CPH
   556
  -1.4240000  -1.9680000  -1.8200000  -0.8170000  -1.6360000  -2.6500000
  -1.4440000  -3.0280000  -1.6050000  -3.8814536   2.8504640   1.0394902
  -3.4031500   1.7415400   1.0597935  -4.1354039   0.4310221   1.0595929
  -4.7881686   0.4041345   1.9281868  -3.0384391  -0.6296323   1.1234541
  -3.2095742  -1.5335827  -0.1253920  -2.3314178  -1.1496443  -1.2751483
  -4.6901164  -1.3295165  -0.4575273  -4.9331140   0.1547771  -0.2297605
  -6.3552611   0.6028795  -0.1472812  -3.1053536  -1.2345810   2.0231783
  -2.0443192   1.4916561   1.0901391  -1.0393723   2.5448883   1.1554824
  -0.9832492   3.4431775  -0.0678834  -0.9779921   2.7302803  -1.4095972
  -0.0045825   1.5868182  -1.5259803   1.3113188   2.0125888  -1.2016516
   2.2269799   0.9499087  -1.0474642   2.8964791   0.9938953   0.3101462
   1.9824295   0.8960996   1.3844103   3.9518842  -0.1047320   0.3910030
   4.7308960  -0.0712810   1.6894358   3.9490481  -0.4895441   2.7883052
   4.8910595   0.0657679  -0.6558421   4.3115368  -0.0696255  -1.9211104
   5.3602714   0.0264062  -2.8297158   3.2816709   1.0197908  -2.1312572
   2.7328129   0.8323544  -3.4170490  -1.7568601   0.1482974   1.1929574
  -0.6411147  -0.3075242   1.3197040  -3.0013986  -2.5676927   0.1351774
  -2.4662959  -0.1460574  -1.6610293  -5.2956910  -1.9069293   0.2417972
  -4.9370948  -1.6512970  -1.4649195  -4.4637637   0.7153433  -1.0405933
  -6.4961618   1.6447599   0.1175776  -0.0908666   2.0458249   1.3025020
  -1.2419134   3.1421748   2.0417193  -1.8164163   4.1404097  -0.0504795
  -0.0768889   4.0357951   0.0373466  -1.9669888   2.3204175  -1.6173012
  -0.7792830   3.4623491  -2.1913228  -0.0262149   1.1833965  -2.5393652
  -0.2840483   0.7781925  -0.8558897   1.7002665  -0.0038899  -1.1419909
   3.3994299   1.9536786   0.4251307   1.2388495   0.3102848   1.1754727
   3.4630546  -1.0802973   0.2966467   5.5721283  -0.7536623   1.6057869
   5.1244621   0.9353198   1.8453604   3.1141779  -0.0056592   2.7391507
   3.8265645  -1.0497205  -1.9962678   4.9847184   0.2053732  -3.6991712
   3.7944550   1.9820599  -2.0715188   2.2303716   1.6155561  -3.6572780
 -10.2290378  -3.1552056  -3.0289487  -9.8809211  -2.0458952  -2.7016200
 -10.3647909  -1.2463937  -1.5267496 -11.4403944  -1.1203685  -1.6188087
  -9.6136954   0.0800438  -1.6206488  -8.8253260   0.2486075  -0.2954734
  -7.3998647  -0.2005388  -0.3781465  -9.6353218  -0.6284601   0.6629739
 -10.0030918  -1.8551976  -0.1579485 -11.0723910  -2.7412945   0.3911710
 -10.2857770   0.9228377  -1.7546219  -8.9409968  -1.3017640  -3.3890755
  -8.3055713  -1.7565989  -4.6190533  -7.4180379  -2.9785959  -4.4587259
  -6.4441445  -2.9377569  -3.2932604  -5.6499093  -1.6645746  -3.1637455
  -4.9650182  -1.3746667  -4.3740940  -4.4055575  -0.0796034  -4.4103235
  -4.9004372   0.6994990  -5.6108915  -6.3042538   0.8674312  -5.6247335
  -4.1897481   2.0482101  -5.6683324  -4.5653161   2.8540842  -6.8944733
  -5.8860806   3.3479501  -6.8208418  -2.7894613   1.8411706  -5.7260946
  -2.2947628   1.2102230  -4.5805552  -0.9138985   1.1637338  -4.7408132
  -2.8954060  -0.1740177  -4.4592351  -2.3633310  -0.7585335  -3.2909563
  -8.7801870  -0.0387221  -2.8630692  -8.0748472   0.8210986  -3.3446604
  -8.8396639   1.2902085   0.0135231  -7.2442190  -1.2399711  -0.6420363
 -10.5444664  -0.0988007   0.9495016  -9.0855998  -0.8711517   1.5675657
  -9.1101151  -2.4693178  -0.2899448 -11.3842733  -3.5478744  -0.2627987
  -7.7312259  -0.9173899  -4.9881030  -9.0918308  -1.9649445  -5.3412570
  -8.0327833  -3.8695141  -4.3640902  -6.8694100  -3.0746653  -5.3933574
  -6.9823867  -3.0666231  -2.3536158  -5.7662254  -3.7862397  -3.3769719
  -4.9355289  -1.7551709  -2.3442219  -6.3034893  -0.8298360  -2.9249092
  -4.6862800   0.4659837  -3.5049928  -4.6511033   0.1481704  -6.5171114
  -6.6648780   0.9782815  -4.7317568  -4.4434363   2.6264927  -4.7734489
  -3.8981786   3.7086898  -6.9644016  -4.4231018   2.2385826  -7.7851948
  -6.4496933   2.6053326  -6.5670133  -2.5592734   1.8016108  -3.6964016
  -0.5644296   0.5142239  -4.1203050  -2.5999601  -0.7462507  -5.3411303
  -2.5644625  -1.6982642  -3.2947374 -11.6602784  -2.3156353   6.4662480
 -11.6742434  -2.9632764   5.4468045 -12.8682101  -3.3290772   4.6135660
 -13.5621818  -3.8867091   5.2370480 -12.3046026  -4.1730295   3.4722996
 -12.6957818  -3.4641915   2.1492132 -11.6239895  -2.5760306   1.5988147
 -13.9257313  -2.6597573   2.5782489 -13.5720879  -2.1250875   3.9577842
 -14.6933262  -1.5812596   4.7806919 -12.7019402  -5.1839979   3.4754282
 -10.5423398  -3.4965547   4.8601254  -9.2107728  -3.3794989   5.4403954
  -8.6716942  -1.9611769   5.5071349  -8.8159066  -1.1405934   4.2365871
  -8.3794528  -1.8322714   2.9718078  -7.0446297  -2.3032885   3.0920412
  -6.6560248  -3.1717530   2.0498063  -6.1693650  -4.4989309   2.5929739
  -7.1507172  -5.1859833   3.3439739  -5.6606046  -5.3619543   1.4424291
  -5.0725009  -6.6756141   1.9139561  -6.0652971  -7.5639552   2.3818767
  -4.6299325  -4.6733183   0.7564986  -5.0811163  -3.4911659   0.1614939
  -3.9950642  -2.9846956  -0.5446284  -5.5570389  -2.5300611   1.2298516
  -5.9991920  -1.3624951   0.5734003 -10.8328283  -4.2621375   3.7522823
 -10.0149041  -4.8972590   3.1227216 -12.9500156  -4.2035205   1.3946438
 -11.3024843  -1.7653761   2.2420539 -14.7811793  -3.3312647   2.6586704
 -14.1761793  -1.8758719   1.8696026 -12.8358195  -1.3266948   3.8461959
 -14.4289291  -1.3036307   5.7948587  -8.5644502  -4.0020846   4.8362463
  -9.2456171  -3.8074274   6.4398217  -9.1502199  -1.4240049   6.3214213
  -7.6194977  -2.0529564   5.7683188  -9.8590510  -0.8569216   4.0929804
  -8.2596518  -0.2119236   4.3576572  -8.4572508  -1.1452649   2.1279266
  -9.0284920  -2.6765747   2.7552478  -7.5096114  -3.3597812   1.3924409
  -5.3370848  -4.3186575   3.2728093  -8.0414524  -5.0508208   2.9861094
  -6.4885282  -5.5708261   0.7564989  -4.5738295  -7.1524051   1.0747241
  -4.3250491  -6.4773789   2.6849754  -6.6244812  -7.0642590   2.9911271
  -5.9093358  -3.7194469  -0.5192214  -4.1748760  -2.0586196  -0.7422968
  -4.7091214  -2.3047201   1.8800326  -6.1157637  -0.6654685   1.2246506
 -19.4334988   0.3307423   1.4178999 -18.7036557   0.4423788   2.3738106
 -18.9426028  -0.0585995   3.7686504 -19.8604884   0.3894519   4.1401554
 -17.7153894   0.3885236   4.5601213 -17.0670879  -0.8907573   5.1510321
 -15.9432364  -1.4358509   4.3262062 -18.2558867  -1.8548363   5.1866808
 -19.0000528  -1.5941986   3.8857819 -20.3861177  -2.1394701   3.7780596
 -17.9731695   1.0713902   5.3646004 -17.4781936   1.0799158   2.3341465
 -16.9568587   1.7358534   1.1419042 -16.6586628   0.7999037  -0.0164457
 -15.8766537  -0.4546847   0.3341475 -14.6546920  -0.2331514   1.1863856
 -13.7903008   0.7212364   0.5863543 -12.7559456   1.1615668   1.4394172
 -12.7683253   2.6687938   1.5856483 -13.9758625   3.1649589   2.1285740
 -11.5726396   3.1066662   2.4258883 -11.4630940   4.6125650   2.5449451
 -12.4727826   5.1545260   3.3699005 -10.3766917   2.6549373   1.8154339
 -10.2991066   1.2599768   1.7593277  -9.0455650   0.9718656   1.2299363
 -11.4156163   0.7200733   0.8912705 -11.2876747  -0.6845405   0.8731253
 -16.8772160   1.1458498   3.5720058 -15.8396833   1.7285699   3.8015472
 -16.6922557  -0.6876490   6.1504644 -16.1933377  -1.7175259   3.3101395
 -18.8987646  -1.5977944   6.0291880 -17.9469842  -2.8897835   5.3000109
 -18.4218367  -2.0149101   3.0607716 -20.9273616  -1.8507934   2.8840581
 -16.0583558   2.2523041   1.4522482 -17.6814105   2.4856851   0.8321186
 -17.5864622   0.5050366  -0.4989857 -16.1021334   1.3895411  -0.7419529
 -16.5148930  -1.1511392   0.8789821 -15.5934238  -0.9572102  -0.5898406
 -14.1259953  -1.1767765   1.3285739 -14.9373124   0.1246591   2.1728415
 -12.8846882   0.7174134   2.4305010 -12.6703494   3.1203307   0.5987946
 -14.3511724   2.5622543   2.7886002 -11.6625459   2.6779400   3.4297288
 -10.5048277   4.8551096   2.9957342 -11.4899885   5.0538600   1.5464526
 -13.3107294   4.7753712   3.0738332 -10.3924683   0.8493087   2.7712903
  -9.0534247   0.0562675   0.9288710 -11.2866363   1.1282649  -0.1133298
 -11.8488599  -1.0383999   0.1778436 -21.3752871  -6.9301228   7.4529131
 -21.5438965  -6.3482851   6.4079562 -22.6912218  -5.4548753   6.0349727
 -23.6112715  -6.0275019   6.1179630 -22.4011357  -5.0253525   4.5983941
 -22.3348972  -3.4756356   4.5939089 -20.9456016  -2.9290949   4.7018814
 -23.1734806  -3.1241107   5.8256435 -22.7785984  -4.1604771   6.8668282
 -23.6639217  -4.2899730   8.0624597 -23.1701684  -5.3592717   3.9077200
 -20.6689676  -6.4175234   5.3404875 -19.4706710  -7.2467214   5.3418802
 -18.4157956  -6.8331975   6.3532816 -18.0853515  -5.3507294   6.3925348
 -17.8368115  -4.7119581   5.0513502 -16.8251096  -5.4122841   4.3413721
 -16.7142539  -5.0264452   2.9884725 -16.8624491  -6.2164140   2.0636577
 -18.1091343  -6.8704671   2.1943656 -16.6289695  -5.7714398   0.6232115
 -16.6720814  -6.9243230  -0.3580671 -17.9811108  -7.4240931  -0.5324689
 -15.3435004  -5.1862637   0.5130158 -15.2161395  -4.0268819   1.2841804
 -13.9516308  -3.5213725   1.0011470 -15.3717646  -4.3683667   2.7507349
 -15.2357364  -3.1659802   3.4755802 -21.1274626  -5.7321393   4.2369261
 -20.5746856  -5.7183574   3.1585135 -22.7862494  -3.0887491   3.6843942
 -20.3928589  -3.2096820   5.5907173 -24.2302984  -3.2395179   5.5827475
 -23.0123413  -2.1032530   6.1592054 -21.7758222  -3.9276814   7.2304488
 -23.4161223  -5.1042278   8.7341014 -19.0715161  -7.1988050   4.3375290
 -19.7777883  -8.2732611   5.5291908 -18.7184290  -7.1460952   7.3488273
 -17.5228260  -7.4026497   6.1041079 -18.9048827  -4.7986983   6.8539166
 -17.2177610  -5.2049557   7.0348289 -17.5437650  -3.6697488   5.1858478
 -18.7449439  -4.7123323   4.4544470 -17.4985281  -4.3029270   2.7486196
 -16.1029914  -6.9561902   2.3152926 -18.8278262  -6.2470180   2.3802100
 -17.3953609  -5.0404235   0.3442053 -16.3242262  -6.5694424  -1.3241776
 -15.9919260  -7.7086792  -0.0195025 -18.3510660  -7.5561697   0.3502869
 -15.9911584  -3.3087891   0.9924247 -13.7216176  -2.8914649   1.6934853
 -14.5768702  -5.0676267   3.0184220 -15.1279933  -3.3756566   4.4072396
 -26.8576442   0.7920442   9.2484594 -26.2474511  -0.1822473   9.6190258
 -26.8103642  -1.5167344  10.0139004 -27.5028326  -1.3652977  10.8378145
 -25.5957311  -2.3484598  10.4204679 -25.5825490  -3.6049366   9.5110052
 -24.6951617  -3.4751379   8.3125883 -27.0557945  -3.7144571   9.1091158
 -27.4934519  -2.2787539   8.8615972 -28.9625572  -2.0237668   8.7790604
 -25.6378998  -2.6530635  11.4622847 -24.8720308  -0.2245262   9.7463661
 -24.0107515   0.9242586   9.4974136 -23.9973409   1.4050964   8.0568193
 -23.8278494   0.3242369   7.0025606 -22.7151562  -0.6572978   7.2615597
 -21.4826703   0.0212208   7.4581735 -20.4525070  -0.8093883   7.9484286
 -19.8714958  -0.2628148   9.2356556 -20.8256517  -0.1508065  10.2730247
 -18.6942874  -1.1307717   9.6695115 -18.0001319  -0.5973663  10.9054455
 -18.7849750  -0.7620131  12.0676231 -17.7258060  -1.1624774   8.6360496
 -18.2115692  -1.7548356   7.4663369 -17.1331359  -1.7996963   6.5890689
 -19.3550217  -0.9315730   6.9128317 -19.8027926  -1.5750993   5.7402221
 -24.4265000  -1.4204433  10.2651164 -23.2718143  -1.6603214  10.5441959
 -25.2628296  -4.4719369  10.0825880 -24.9313951  -2.6652391   7.6324849
 -27.6236770  -4.1272227   9.9435707 -27.2035908  -4.3587466   8.2474736
 -27.0521270  -1.9343551   7.9242629 -29.2463114  -0.9799275   8.7055694
 -23.0175301   0.6271652   9.8065880 -24.3355891   1.7303815  10.1515056
 -24.9101716   1.9547943   7.8442744 -23.1788706   2.1185405   7.9870925
 -24.7450497  -0.2594185   6.9169287 -23.6775521   0.8025311   6.0355288
 -22.6292471  -1.3498574   6.4230213 -22.9296499  -1.2527688   8.1449649
 -20.8506935  -1.8086021   8.1461993 -19.4987493   0.7450681   9.0551086
 -21.4778382  -0.8674573  10.2445760 -19.0522543  -2.1453208   9.8747795
 -17.0774058  -1.1521974  11.0505387 -17.7438702   0.4523331  10.7476064
 -19.6692745  -0.4339631  11.8579408 -18.5662390  -2.7672709   7.6913194
 -17.4781989  -1.9472886   5.7012794 -18.9697172   0.0631186   6.6791500
 -20.3840712  -0.9782372   5.2612307 -32.1712190  -6.9703436   7.1452840
 -31.9824127  -5.7776587   7.1178258 -32.6273530  -4.7309091   7.9792318
 -33.7033402  -4.7858670   7.8360143 -32.0424257  -3.4075924   7.4902625
 -31.3572657  -2.7374006   8.7098644 -29.8847368  -2.9929820   8.7925918
 -32.1051626  -3.3811898   9.8803974 -32.2709604  -4.8379076   9.4747653
 -33.2514699  -5.6502807  10.2549910 -32.8051609  -2.7450915   7.0911740
 -31.1046438  -5.1588505   6.2481235 -30.3491817  -5.8770245   5.2297969
 -29.3274766  -6.8597375   5.7748572 -28.4336531  -6.3335731   6.8851169
 -27.8120217  -4.9864075   6.6257017 -27.1010100  -4.9899078   5.3958577
 -26.7053010  -3.7045067   4.9684746 -27.2242630  -3.4036619   3.5779924
 -28.6350213  -3.4396824   3.4910573 -26.6841891  -2.0536915   3.1161481
 -27.0868257  -1.7192634   1.6948995 -28.4606683  -1.4101137   1.5913284
 -25.2680286  -2.0768706   3.1470900 -24.7645040  -2.2548910   4.4393182
 -23.3816951  -2.1606581   4.3227437 -25.1947665  -3.6039487   4.9746036
 -24.6612576  -3.7262002   6.2746270 -31.1316960  -3.7859699   6.3589571
 -30.5123114  -3.0270313   5.6454440 -31.5180997  -1.6632127   8.6803729
 -29.5867336  -4.0322215   8.8664729 -33.0877055  -2.9175719   9.9744652
 -31.5816414  -3.2593532  10.8240401 -31.3027021  -5.3361502   9.5535330
 -33.4234417  -6.6524286   9.8786358 -29.8633790  -5.1208944   4.6276300
 -31.0614232  -6.4003501   4.5957366 -29.8313697  -7.7538528   6.1315820
 -28.7191922  -7.1613327   4.9246875 -29.0040413  -6.2410621   7.8099639
 -27.6521172  -7.0671017   7.0791332 -27.1394260  -4.7248825   7.4438616
 -28.5765153  -4.2151811   6.5837822 -27.1022601  -2.9518721   5.6555398
 -26.8576375  -4.1662299   2.8913770 -29.0565328  -3.1114148   4.2999538
 -27.0578292  -1.2697673   3.7835616 -26.5279242  -0.8447389   1.3737314
 -26.8192397  -2.5520933   1.0412604 -28.9412984  -2.1089202   2.0541818
 -25.1498838  -1.4633552   5.0923010 -22.9900474  -2.5361243   5.1193987
 -24.7812429  -4.3725512   4.3183060 -24.7437770  -4.6403649   6.5593295
 -34.2302610  -3.4740336  15.8887530 -34.1061314  -4.3976022  15.1203052
 -35.1964721  -5.1584460  14.4232207 -35.8500899  -5.5876895  15.1780808
 -34.4689271  -6.2260385  13.6087746 -34.8695141  -6.0147851  12.1252207
 -33.8867185  -5.2005195  11.3431778 -36.2119998  -5.2921018  12.2645878
 -36.0059794  -4.3190932  13.4156147 -37.2307319  -3.7070901  14.0118820
 -34.7373798  -7.2318087  13.9191026 -32.8854824  -4.9261001  14.7454856
 -31.6136741  -4.4583152  15.2813652 -31.2592645  -3.0280573  14.9133253
 -31.4320164  -2.6619943  13.4488798 -30.8423340  -3.6409794  12.4678395
 -29.4683622  -3.8675045  12.7488267 -28.9167488  -4.9516654  12.0334136
 -28.3007887  -5.9709255  12.9688129 -29.2302706  -6.5221425  13.8805788
 -27.6246896  -7.0667534  12.1506128 -26.9058561  -8.0814063  13.0152884
 -27.8057055  -8.9103245  13.7202066 -26.6502246  -6.4875008  11.3009720
 -27.2101255  -5.6159608  10.3618175 -26.1570676  -5.2070803   9.5503276
 -27.8612063  -4.4483270  11.0719853 -28.4068766  -3.6080720  10.0790838
 -33.0156722  -6.0252688  13.9253052 -32.0910196  -6.7053684  13.5364503
 -34.9870241  -6.9764489  11.6332745 -33.7051118  -4.1965037  11.7082180
 -36.9807514  -6.0163358  12.5360415 -36.5172271  -4.8034747  11.3440121
 -35.3692656  -3.5009114  13.0733456 -37.0605881  -3.0999903  14.8939244
 -30.8620137  -5.1420768  14.9101260 -31.6516606  -4.5612822  16.3635596
 -31.8459883  -2.3379328  15.5133972 -30.2202780  -2.8923580  15.2063281
 -32.4924792  -2.5796985  13.2082784 -31.0029497  -1.6743631  13.2845897
 -30.9568609  -3.2615761  11.4514229 -31.3683795  -4.5908031  12.5137627
 -29.7018757  -5.4451625  11.4536461 -27.5370788  -5.4807633  13.5720152
 -30.1092133  -6.6246020  13.4847166 -28.3801927  -7.5851428  11.5505525
 -26.3052507  -8.7195042  12.3730912 -26.2335677  -7.5579627  13.6982870
 -28.4560913  -8.3290402  14.1357496 -27.9638102  -6.1510931   9.7727285
 -26.4388500  -4.4188678   9.0724764 -27.0859158  -3.9226204  11.6332652
 -28.6456232  -2.7680327  10.4802023 -41.9735535  -3.5733239  10.1490970
 -41.3184292  -3.0774467  11.0344314 -41.5719212  -3.1561923  12.5119949
 -42.5578110  -2.7447380  12.7120114 -40.4563650  -2.3269445  13.1446723
 -39.6889106  -3.2645952  14.1131015 -38.4613039  -3.8780230  13.5154437
 -40.7490932  -4.3234089  14.4275668 -41.4450540  -4.5756453  13.0986317
 -42.7444828  -5.3101774  13.1438915 -40.8419135  -1.4725943  13.6936551
 -40.1812090  -2.3226879  10.8179751 -39.6786372  -1.9977930   9.4893100
 -39.2016540  -3.1932546   8.6830496 -38.2912088  -4.1628910   9.4174478
 -37.1563206  -3.5284406  10.1777624 -36.3843954  -2.6949860   9.3247965
 -35.4625394  -1.8794520  10.0151470 -35.6699626  -0.4157968   9.6865758
 -36.9584629   0.0541203  10.0301438 -34.5872514   0.4153509  10.3679934
 -34.6721852   1.8859677  10.0158878 -35.7863131   2.5119407  10.6164049
 -33.3119226  -0.0348661   9.9462754 -33.0589204  -1.3563577  10.3267121
 -31.7514079  -1.6198052   9.9322042 -34.0489696  -2.2814496   9.6517155
 -33.7470309  -3.5936326  10.0720091 -39.6640282  -1.8012636  11.9835040
 -38.7214132  -1.0414368  12.0370423 -39.3992886  -2.7172820  15.0059534
 -38.6166762  -4.4875809  12.6330709 -41.4654972  -3.9109696  15.1387911
 -40.3211550  -5.2225092  14.8610038 -40.7734040  -5.1457711  12.4537931
 -43.2659059  -5.3842881  12.1961871 -38.8701081  -1.2945885   9.6380581
 -40.4718822  -1.4836947   8.9511137 -40.0569420  -3.7441336   8.3014506
 -38.6823941  -2.7836005   7.8191569 -38.8679526  -4.7394500  10.1414570
 -37.8960499  -4.8802927   8.6993327 -36.5235946  -4.3028907  10.6137107
 -37.5364650  -2.9282920  11.0001429 -35.5910644  -2.0129737  11.0929908
 -35.5730720  -0.2781902   8.6099879 -37.2928704  -0.3633029  10.8386452
 -34.6799368   0.3055238  11.4537799 -33.7784310   2.3819607  10.3840010
 -34.6970717   1.9934591   8.9294816 -36.5526826   1.9507072  10.4395894
 -33.1577274  -1.4471519  11.4145663 -31.6286366  -2.5758092   9.9298189
 -33.9149859  -2.1859192   8.5721785 -34.2197778  -4.2154222   9.5121430
 -43.3382593  -8.8378355  18.1073999 -43.5183369  -8.6312446  16.9310533
 -44.7446391  -8.0583511  16.2817236 -45.5897956  -8.6973447  16.5239579
 -44.4292645  -8.0527760  14.7874325 -44.5555469  -6.5844365  14.3036330
 -43.2530892  -5.8481942  14.2582675 -45.4995608  -5.9906134  15.3525248
 -45.0387490  -6.5961491  16.6697310 -45.9673806  -6.4730795  17.8327436
 -45.1106527  -8.6825073  14.2225497 -42.5826097  -8.9039193  15.9513355
 -41.2927563  -9.5228271  16.2283147 -40.3562035  -8.6814436  17.0778083
 -40.2148809  -7.2273640  16.6605235 -39.9720059  -7.0010578  15.1913829
 -38.8427503  -7.7409297  14.7493002 -38.7042501  -7.7752534  13.3453281
 -38.6512048  -9.1992987  12.8329306 -39.8125518  -9.9447047  13.1407247
 -38.3936058  -9.1880050  11.3292966 -38.2378624 -10.5801027  10.7533502
 -39.4628450 -11.2816710  10.7223070 -37.1864565  -8.4960079  11.0629590
 -37.2476586  -7.1505216  11.4384625 -36.0416202  -6.5892200  11.0322091
 -37.4424384  -7.0457554  12.9360265 -37.4977666  -5.6727004  13.2542984
 -43.0593926  -8.6568704  14.6826898 -42.4524866  -8.8982539  13.6618445
 -44.9992170  -6.5585402  13.3121174 -42.7209854  -5.7664784  15.1987308
 -46.5184698  -6.3166464  15.1410823 -45.4853723  -4.9047176  15.3555300
 -44.0947611  -6.1299295  16.9586948 -45.6589185  -7.0019880  18.7275200
 -40.8464605  -9.7302274  15.2649107 -41.4803170 -10.4748303  16.7199456
 -40.6735242  -8.7134293  18.1165034 -39.3868632  -9.1733561  17.0313380
 -41.1213104  -6.6771442  16.9152521 -39.4097890  -6.7764002  17.2392841
 -39.8185294  -5.9379467  15.0005797 -40.8378575  -7.3066027  14.6100557
 -39.5573529  -7.2726950  12.8808448 -37.8213375  -9.7169451  13.3132715
 -40.6123538  -9.3976306  13.1129455 -39.2277078  -8.6879106  10.8255463
 -37.8826124 -10.4934351   9.7303159 -37.4859466 -11.1239691  11.3289229
 -39.8629007 -11.1867663  11.5966739 -38.0879841  -6.6676690  10.9264670
 -35.9310173  -5.7529728  11.4985563 -36.5833968  -7.5155129  13.4196103
 -37.4177251  -5.5713274  14.2066002 -47.1041813  -5.7683038  17.8018920
 -47.3992647  -5.2461144  16.9033481 -47.7383647  -5.7146545  18.6759304
