default_name
   556
   1.0720000  -1.9350000  -1.7270000   1.6800000  -1.7870000  -2.6200000
   1.4580000  -2.6260000  -0.9770000  -2.0490000   3.0570000   0.4060000
  -1.4230000   2.0120000   0.4600000  -2.0130000   0.6130000   0.5970000
  -2.6350000   0.5550000   1.5000000  -0.7940000  -0.3400000   0.7220000
  -0.9880000  -1.4530000  -0.3490000  -0.0880000  -1.2860000  -1.5590000
  -2.4730000  -1.3390000  -0.7610000  -2.7920000   0.1640000  -0.6570000
  -4.2550000   0.5550000  -0.5880000  -0.7660000  -0.7750000   1.7300000
  -0.0430000   1.8780000   0.3920000   0.8560000   3.0530000   0.3960000
   0.8990000   3.8770000  -0.9180000   0.6950000   3.1190000  -2.2570000
   1.5610000   1.8640000  -2.4860000   2.8980000   2.1150000  -2.0440000
   3.7280000   0.9430000  -1.8860000   4.7890000   1.3220000  -0.8200000
   4.1640000   1.3830000   0.4680000   5.9800000   0.3250000  -0.7810000
   7.1570000   0.8230000   0.0880000   6.7740000   0.8680000   1.4640000
   6.4890000   0.1530000  -2.1180000   5.5470000  -0.4180000  -3.0340000
   6.1780000  -0.6200000  -4.2830000   4.3820000   0.5710000  -3.2440000
   3.4370000  -0.0540000  -4.1290000   0.4270000   0.5730000   0.5530000
   1.6000000   0.2370000   0.6070000  -0.7920000  -2.4370000   0.0980000
  -0.4420000  -0.6000000  -2.3280000  -3.0960000  -1.8970000  -0.0520000
  -2.6600000  -1.7380000  -1.7650000  -2.3490000   0.6670000  -1.5280000
  -4.4100000   1.6220000  -0.4170000   1.8750000   2.7100000   0.6090000
   0.5660000   3.7130000   1.2230000   0.1170000   4.6440000  -0.8580000
   1.8500000   4.4230000  -0.9520000  -0.3600000   2.8300000  -2.3460000
   0.8830000   3.8220000  -3.0770000   1.5440000   1.6120000  -3.5500000
   1.1310000   1.0270000  -1.9320000   3.1500000   0.0830000  -1.5190000
   5.1930000   2.3100000  -1.0850000   3.2860000   0.9400000   0.4100000
   5.6400000  -0.6430000  -0.3870000   8.0110000   0.1450000  -0.0430000
   7.4680000   1.8170000  -0.2600000   5.8490000   1.1970000   1.4800000
   5.1720000  -1.3750000  -2.6450000   5.4140000  -0.6940000  -4.8870000
   4.8030000   1.4850000  -3.6890000   2.8150000   0.6260000  -4.4670000
  -9.0000000  -2.4770000  -3.7100000  -8.3130000  -1.5660000  -3.2820000
  -8.5450000  -0.7960000  -1.9860000  -9.5570000  -0.3740000  -1.9930000
  -7.4870000   0.3370000  -1.9940000  -6.7440000   0.2780000  -0.6320000
  -5.3230000  -0.2480000  -0.7250000  -7.6130000  -0.6330000   0.2520000
  -8.2920000  -1.6270000  -0.7100000  -9.5470000  -2.3140000  -0.1940000
  -7.9830000   1.3080000  -2.1200000  -7.2020000  -1.0140000  -3.9110000
  -6.9110000  -1.2820000  -5.3370000  -6.2040000  -2.6250000  -5.6370000
  -5.0700000  -3.0620000  -4.6740000  -3.9900000  -2.0110000  -4.3460000
  -3.6470000  -1.2710000  -5.5320000  -2.7830000  -0.1370000  -5.3000000
  -3.1780000   1.0050000  -6.2730000  -4.4870000   1.4950000  -5.9660000
  -2.1510000   2.1780000  -6.2160000  -2.3690000   3.2310000  -7.3260000
  -3.5840000   3.9470000  -7.0960000  -0.8090000   1.6630000  -6.3820000
  -0.4150000   0.6870000  -5.4090000   0.9200000   0.2860000  -5.6480000
  -1.3200000  -0.5450000  -5.5860000  -0.8790000  -1.5900000  -4.7160000
  -6.6410000   0.0750000  -3.2410000  -5.6950000   0.7460000  -3.6240000
  -6.7190000   1.2870000  -0.1940000  -5.2180000  -1.3160000  -0.9110000
  -8.3640000  -0.0150000   0.7590000  -7.0180000  -1.1470000   1.0120000
  -7.5550000  -2.4050000  -0.9570000  -9.9660000  -3.0350000  -0.8980000
  -6.2830000  -0.4720000  -5.7260000  -7.8530000  -1.2450000  -5.8980000
  -6.9630000  -3.4170000  -5.6340000  -5.8130000  -2.5870000  -6.6600000
  -5.5150000  -3.4020000  -3.7310000  -4.5770000  -3.9400000  -5.1080000
  -3.1180000  -2.5230000  -3.9260000  -4.3740000  -1.3390000  -3.5710000
  -2.8720000   0.2310000  -4.2670000  -3.1700000   0.6000000  -7.2960000
  -4.7750000   1.1390000  -5.0930000  -2.2290000   2.6820000  -5.2430000
  -1.5200000   3.9270000  -7.3310000  -2.3940000   2.7310000  -8.3030000
  -4.2470000   3.2840000  -6.8070000  -0.5130000   1.0940000  -4.3940000
   0.9010000  -0.6500000  -5.3560000  -1.2460000  -0.8620000  -6.6380000
  -1.4660000  -2.3550000  -4.8790000 -11.1810000  -3.1000000   6.1340000
 -10.9480000  -3.3500000   4.9640000 -11.9500000  -3.3110000   3.8150000
 -12.8110000  -3.9440000   4.0560000 -11.1860000  -3.8710000   2.5850000
 -11.4060000  -2.8710000   1.4140000 -10.1490000  -2.1280000   0.9960000
 -12.4950000  -1.8930000   1.9090000 -12.3850000  -1.8780000   3.4460000
 -13.6050000  -1.4090000   4.2270000 -11.5790000  -4.8620000   2.3230000
  -9.7190000  -3.7200000   4.4330000  -8.5480000  -4.0040000   5.2930000
  -7.8760000  -2.7550000   5.9150000  -7.6690000  -1.5370000   4.9790000
  -6.9030000  -1.8070000   3.6680000  -5.7290000  -2.5750000   3.9610000
  -4.8440000  -2.8490000   2.8500000  -5.3080000  -4.1200000   2.0790000
  -6.4200000  -3.8030000   1.2340000  -4.1710000  -4.7010000   1.1890000
  -4.5170000  -6.0770000   0.5780000  -5.4460000  -5.9120000  -0.4970000
  -2.9750000  -4.8650000   1.9750000  -2.4440000  -3.6400000   2.4930000
  -1.2400000  -3.9060000   3.1830000  -3.4550000  -3.0530000   3.4930000
  -2.9740000  -1.7920000   3.9730000  -9.7430000  -4.0430000   3.0770000
  -8.7950000  -4.4510000   2.4250000 -11.7890000  -3.4230000   0.5440000
  -9.7610000  -1.4250000   1.7300000 -13.4730000  -2.2710000   1.5900000
 -12.3630000  -0.8880000   1.4940000 -11.5540000  -1.2010000   3.6920000
 -13.3710000  -1.1130000   5.2500000  -7.7950000  -4.5360000   4.7000000
  -8.8610000  -4.6800000   6.0980000  -8.4900000  -2.4230000   6.7620000
  -6.9110000  -3.0550000   6.3410000  -8.6460000  -1.1050000   4.7290000
  -7.1320000  -0.7630000   5.5400000  -6.6310000  -0.8440000   3.2170000
  -7.5570000  -2.3380000   2.9720000  -4.7910000  -1.9970000   2.1570000
  -5.5860000  -4.8890000   2.8150000  -7.2550000  -4.0030000   1.7220000
  -3.9670000  -4.0090000   0.3620000  -3.5960000  -6.5440000   0.2050000
  -4.9290000  -6.7340000   1.3550000  -6.1420000  -5.3040000  -0.1760000
  -2.2600000  -2.9300000   1.6810000  -1.1700000  -3.1550000   3.8030000
  -3.5560000  -3.7770000   4.3170000  -3.6810000  -1.4370000   4.5490000
 -19.8660000  -2.4010000   3.2230000 -18.6770000  -2.6550000   3.1340000
 -17.7350000  -2.1730000   2.0380000 -18.1090000  -2.5060000   1.0610000
 -16.3730000  -2.8460000   2.3440000 -15.3110000  -1.7140000   2.3930000
 -14.8810000  -1.3340000   3.8030000 -15.9970000  -0.5260000   1.6830000
 -17.4900000  -0.6520000   2.0490000 -18.5010000   0.0780000   1.1800000
 -16.1310000  -3.5640000   1.5500000 -17.9520000  -3.4760000   3.9890000
 -18.6380000  -4.4340000   4.8850000 -19.1820000  -3.8500000   6.2100000
 -18.2780000  -2.8450000   6.9680000 -16.8010000  -3.2430000   7.1560000
 -16.7050000  -4.6450000   7.4680000 -15.3760000  -5.2110000   7.3840000
 -15.5110000  -6.6880000   6.9240000 -15.9310000  -6.7370000   5.5580000
 -14.1750000  -7.4790000   7.0830000 -14.3450000  -9.0010000   6.8820000
 -14.6680000  -9.2870000   5.5200000 -13.6480000  -7.2850000   8.4140000
 -13.3760000  -5.9180000   8.7430000 -12.8280000  -5.8300000  10.0390000
 -14.7170000  -5.1660000   8.7810000 -14.4890000  -3.8220000   9.2160000
 -16.6080000  -3.6340000   3.6320000 -15.7920000  -4.3470000   4.1960000
 -14.4250000  -2.0200000   1.8190000 -15.6770000  -0.9800000   4.4530000
 -15.8570000  -0.6310000   0.6000000 -15.5740000   0.4330000   1.9920000
 -17.6050000  -0.2890000   3.0810000 -19.4890000   0.1410000   1.6400000
 -17.9460000  -5.2440000   5.1300000 -19.4700000  -4.8900000   4.3340000
 -20.1340000  -3.3470000   5.9990000 -19.4250000  -4.6860000   6.8780000
 -18.3080000  -1.8790000   6.4480000 -18.7190000  -2.6680000   7.9560000
 -16.3720000  -2.6230000   7.9510000 -16.2570000  -3.0160000   6.2330000
 -14.7490000  -4.6690000   6.6620000 -16.2650000  -7.1760000   7.5600000
 -15.8120000  -5.8440000   5.1580000 -13.4460000  -7.1150000   6.3470000
 -13.4080000  -9.5060000   7.1580000 -15.1300000  -9.3730000   7.5520000
 -15.3080000  -8.6000000   5.2370000 -12.6920000  -5.4700000   8.0090000
 -13.1430000  -4.9390000  10.2880000 -15.3730000  -5.6980000   9.4860000
 -15.3600000  -3.3790000   9.1850000 -18.5300000  -0.4350000  -4.9690000
 -18.0820000  -0.6420000  -3.8550000 -16.9420000   0.1240000  -3.1890000
 -16.0310000  -0.0270000  -3.7800000 -16.7760000  -0.5340000  -1.7980000
 -16.9710000   0.5820000  -0.7410000 -18.3310000   0.5750000  -0.0580000
 -16.7340000   1.8920000  -1.5200000 -17.2210000   1.6280000  -2.9630000
 -16.5860000   2.4640000  -4.0660000 -15.7710000  -0.9650000  -1.7150000
 -18.4720000  -1.6630000  -2.9930000 -19.1340000  -2.8790000  -3.5150000
 -20.6610000  -2.7870000  -3.7330000 -21.4860000  -2.0250000  -2.6650000
 -21.2120000  -2.3660000  -1.1860000 -21.0280000  -3.7840000  -1.0270000
 -20.4420000  -4.2050000   0.2290000 -19.6630000  -5.5210000  -0.0400000
 -18.4900000  -5.2320000  -0.8080000 -19.2550000  -6.2510000   1.2770000
 -18.7270000  -7.6830000   1.0340000 -17.4820000  -7.6390000   0.3370000
 -20.4030000  -6.3640000   2.1480000 -20.9710000  -5.1050000   2.5260000
 -22.0460000  -5.3040000   3.4190000 -21.5620000  -4.4540000   1.2650000
 -22.2100000  -3.2330000   1.6370000 -17.7840000  -1.6800000  -1.7780000
 -17.8940000  -2.5220000  -0.8990000 -16.1960000   0.4780000   0.0310000
 -19.1440000   1.0550000  -0.6010000 -15.6570000   2.1000000  -1.5100000
 -17.2490000   2.7440000  -1.0620000 -18.3090000   1.7820000  -2.9870000
 -16.9810000   2.2350000  -5.0570000 -18.9430000  -3.7080000  -2.8230000
 -18.6580000  -3.1540000  -4.4650000 -20.8400000  -2.3010000  -4.7000000
 -21.0560000  -3.8060000  -3.8310000 -21.3280000  -0.9490000  -2.8010000
 -22.5490000  -2.2010000  -2.8710000 -22.0650000  -2.0130000  -0.5990000
 -20.3220000  -1.8200000  -0.8550000 -19.7430000  -3.4530000   0.6220000
 -20.3210000  -6.1960000  -0.6070000 -18.3180000  -4.2630000  -0.7610000
 -18.4680000  -5.6760000   1.7850000 -18.5990000  -8.1860000   2.0020000
 -19.4720000  -8.2530000   0.4620000 -17.5640000  -6.9300000  -0.3360000
 -20.2100000  -4.4610000   2.9860000 -22.5680000  -4.5010000   3.2320000
 -22.2800000  -5.1650000   0.8290000 -22.4630000  -2.8040000   0.7970000
 -10.4320000   4.6140000  -3.3160000 -11.4720000   4.0010000  -3.1410000
 -12.6340000   4.4290000  -2.2500000 -12.2720000   4.6100000  -1.2310000
 -13.6270000   3.2350000  -2.2770000 -15.0340000   3.8090000  -2.6100000
 -15.6010000   3.3740000  -3.9520000 -14.8810000   5.3450000  -2.5460000
 -13.3960000   5.6470000  -2.8060000 -12.8990000   6.9730000  -2.2520000
 -13.6380000   2.7380000  -1.2990000 -11.8150000   2.7910000  -3.7220000
 -10.8580000   2.0140000  -4.5370000 -10.6840000   2.5180000  -5.9910000
 -11.9690000   2.9420000  -6.7540000 -13.1300000   1.9250000  -6.7910000
 -12.5990000   0.5930000  -6.8610000 -13.5690000  -0.4760000  -6.8210000
 -12.9370000  -1.6430000  -6.0160000 -12.9250000  -1.3210000  -4.6210000
 -13.6960000  -2.9900000  -6.2120000 -12.9200000  -4.2050000  -5.6560000
 -12.8600000  -4.1400000  -4.2310000 -13.9130000  -3.2330000  -7.6180000
 -14.6770000  -2.2190000  -8.2780000 -14.8640000  -2.5730000  -9.6300000
 -13.8460000  -0.9260000  -8.2730000 -14.5320000   0.0870000  -9.0220000
 -13.0310000   2.2600000  -3.2950000 -13.4960000   1.1830000  -3.6260000
 -15.7330000   3.4940000  -1.8210000 -15.1920000   3.8910000  -4.8180000
 -15.1760000   5.6870000  -1.5480000 -15.5190000   5.8540000  -3.2770000
 -13.2640000   5.6610000  -3.8970000 -12.2650000   7.5300000  -2.9430000
 -11.1880000   0.9690000  -4.5700000  -9.8820000   2.0260000  -4.0360000
 -10.0120000   3.3860000  -5.9690000 -10.1580000   1.7460000  -6.5650000
 -12.3440000   3.8810000  -6.3300000 -11.6810000   3.1730000  -7.7870000
 -13.7660000   2.1520000  -7.6560000 -13.7460000   2.0450000  -5.8950000
 -14.5060000  -0.1670000  -6.3330000 -11.9060000  -1.7800000  -6.3750000
 -13.0690000  -0.3540000  -4.4990000 -14.6660000  -2.9370000  -5.6990000
 -13.4300000  -5.1280000  -5.9670000 -11.9100000  -4.2230000  -6.0860000
 -12.7450000  -3.1920000  -3.9990000 -15.6460000  -2.0730000  -7.7820000
 -14.8110000  -1.6920000 -10.0480000 -12.8780000  -1.1630000  -8.7430000
 -13.9640000   0.8830000  -8.9780000 -16.2400000  10.0740000   2.0180000
 -15.5450000   9.9790000   1.0210000 -14.0330000  10.1530000   0.9640000
 -13.7840000  11.1770000   1.2680000 -13.6540000   9.9480000  -0.5210000
 -12.5950000   8.8150000  -0.5590000 -13.1560000   7.4850000  -1.0340000
 -12.0610000   8.7370000   0.8910000 -13.2510000   9.1170000   1.7990000
 -12.9310000   9.7080000   3.1640000 -13.2300000  10.8770000  -0.9240000
 -16.0020000   9.7580000  -0.2740000 -17.3830000  10.1430000  -0.6480000
 -18.4970000   9.1250000  -0.3080000 -18.2140000   7.6370000  -0.6290000
 -17.5870000   7.3380000  -2.0030000 -18.2320000   8.1150000  -3.0290000
 -17.5430000   8.1350000  -4.3020000 -17.7470000   9.5320000  -4.9510000
 -17.0280000  10.5240000  -4.2130000 -17.2810000   9.5570000  -6.4410000
 -17.7080000  10.8410000  -7.1870000 -17.0000000  11.9690000  -6.6720000
 -17.8560000   8.4400000  -7.1550000 -17.5130000   7.1600000  -6.6190000
 -18.0790000   6.1340000  -7.4020000 -18.1480000   7.0520000  -5.2230000
 -17.9370000   5.7360000  -4.7030000 -14.9830000   9.6920000  -1.2330000
 -15.1380000   9.5620000  -2.4380000 -11.7740000   9.1130000  -1.2300000
 -13.7790000   6.9530000  -0.3180000 -11.2540000   9.4740000   1.0010000
 -11.6490000   7.7490000   1.1310000 -13.8810000   8.2260000   1.9290000
 -13.8220000  10.0430000   3.7000000 -17.4170000  10.3330000  -1.7260000
 -17.6220000  11.0970000  -0.1600000 -18.7210000   9.2020000   0.7630000
 -19.4120000   9.4350000  -0.8290000 -17.5530000   7.2270000   0.1430000
 -19.1580000   7.0820000  -0.5450000 -17.6680000   6.2630000  -2.2000000
 -16.5230000   7.5850000  -1.9520000 -16.4640000   7.9580000  -4.1810000
 -18.8230000   9.7640000  -4.9330000 -16.3550000  10.0750000  -3.6490000
 -16.1860000   9.4860000  -6.4810000 -17.4950000  10.7210000  -8.2570000
 -18.7920000  10.9830000  -7.0800000 -16.9850000  11.8680000  -5.6960000
 -16.4210000   7.0380000  -6.5690000 -18.2080000   5.4550000  -6.7100000
 -19.2240000   7.2590000  -5.3330000 -18.2700000   5.7630000  -3.7820000
  -8.5390000   8.2350000   7.5260000  -9.6060000   8.5910000   7.0570000
 -10.0720000  10.0310000   6.8640000 -10.0800000  10.5460000   7.8340000
 -11.5130000   9.9200000   6.3010000 -11.5640000  10.7430000   4.9890000
 -11.7270000   9.9360000   3.7100000 -10.2630000  11.5740000   4.9700000
  -9.2360000  10.8060000   5.8230000  -8.1640000  11.6720000   6.4620000
 -12.2270000  10.3240000   7.0310000 -10.6240000   7.7550000   6.6120000
 -10.6080000   6.3000000   6.8800000  -9.7100000   5.4540000   5.9450000
  -9.6350000   5.8700000   4.4510000 -10.9760000   6.0960000   3.7210000
 -11.9200000   5.0830000   4.1130000 -13.2910000   5.3470000   3.7360000
 -14.2280000   4.7530000   4.8190000 -14.0800000   5.4720000   6.0460000
 -15.7240000   4.7820000   4.3670000 -16.6510000   3.9680000   5.2990000
 -16.7330000   4.5900000   6.5830000 -15.8540000   4.2140000   3.0430000
 -15.0710000   4.8710000   2.0380000 -15.2790000   4.2640000   0.7820000
 -13.5910000   4.6550000   2.3890000 -12.7640000   5.1520000   1.3330000
 -11.7720000   8.4190000   6.1750000 -12.8190000   7.8980000   5.8270000
 -12.4130000  11.4370000   5.0540000 -10.8050000   9.6400000   3.2090000
 -10.4750000  12.5470000   5.4200000  -9.8960000  11.7540000   3.9530000
  -8.7500000  10.0750000   5.1600000  -7.1570000  11.2590000   6.3920000
 -11.6320000   5.9200000   6.7990000 -10.2940000   6.1390000   7.9190000
  -8.6870000   5.4830000   6.3430000 -10.0300000   4.4080000   6.0140000
  -9.0400000   6.7860000   4.3670000  -9.0770000   5.0940000   3.9140000
 -10.7930000   6.0820000   2.6410000 -11.3530000   7.0930000   3.9680000
 -13.4840000   6.4270000   3.6520000 -13.9480000   3.7000000   4.9740000
 -13.6560000   6.3420000   5.8550000 -16.0790000   5.8200000   4.3530000
 -17.6490000   3.9080000   4.8460000 -16.2660000   2.9440000   5.3900000
 -15.8270000   4.8900000   6.8060000 -15.3190000   5.9410000   1.9900000
 -14.3940000   4.4000000   0.3900000 -13.4390000   3.5720000   2.5210000
 -11.8450000   5.0370000   1.6490000  -9.1180000  15.8090000  11.2790000
  -9.3810000  14.8880000  10.5250000 -10.1050000  14.9990000   9.1910000
 -11.0930000  15.4530000   9.3460000 -10.2670000  13.5420000   8.6890000
  -9.7250000  13.5020000   7.2340000  -8.3640000  12.8390000   7.1010000
  -9.6500000  14.9870000   6.8140000  -9.3080000  15.7560000   8.1090000
  -9.6270000  17.2420000   8.1120000 -11.3290000  13.2630000   8.7080000
  -9.1030000  13.5440000  10.7530000  -8.8410000  13.0460000  12.1220000
  -7.4090000  13.2750000  12.6630000  -6.2440000  13.0140000  11.6770000
  -6.2910000  11.6860000  10.8990000  -6.6830000  10.6190000  11.7770000
  -6.9740000   9.3690000  11.1160000  -8.1570000   8.6880000  11.8520000
  -9.3630000   9.4270000  11.6270000  -8.3550000   7.2120000  11.3840000
  -9.3540000   6.4270000  12.2650000 -10.6770000   6.9340000  12.0770000
  -7.0960000   6.5060000  11.4360000  -6.0620000   7.0770000  10.6250000
  -4.8860000   6.3040000  10.7240000  -5.7260000   8.4630000  11.1980000
  -4.6120000   9.0220000  10.4890000  -9.5350000  12.6890000   9.7330000
  -9.4250000  11.4710000   9.7220000 -10.4480000  12.9770000   6.5910000
  -7.5370000  13.3860000   7.5430000 -10.6370000  15.3010000   6.4470000
  -8.9240000  15.1600000   6.0120000  -8.2370000  15.6280000   8.3250000
  -9.5840000  17.6990000   9.1020000  -9.0460000  11.9690000  12.1500000
  -9.5550000  13.5180000  12.8070000  -7.3310000  14.3150000  13.0030000
  -7.2720000  12.6540000  13.5550000  -6.2150000  13.8310000  10.9470000
  -5.3000000  13.0660000  12.2340000  -5.3080000  11.5000000  10.4500000
  -7.0130000  11.7880000  10.0860000  -7.2560000   9.5190000  10.0660000
  -7.9280000   8.6730000  12.9270000  -9.2070000  10.1050000  10.9300000
  -8.7310000   7.2050000  10.3510000  -9.3170000   5.3650000  11.9890000
  -9.0530000   6.5070000  13.3180000 -10.6020000   7.9120000  12.0600000
  -6.3840000   7.1470000   9.5760000  -4.2180000   7.0100000  10.6340000
  -5.4740000   8.3240000  12.2610000  -4.4510000   9.8980000  10.8940000
 -13.7650000  19.8770000   4.5310000 -13.1180000  18.9130000   4.8960000
 -11.8510000  18.3730000   4.2380000 -12.0840000  18.0360000   3.2190000
 -11.4280000  17.1650000   5.1140000  -9.9960000  17.4620000   5.6310000
  -9.9550000  18.0000000   7.0530000  -9.4520000  18.5060000   4.6340000
 -10.6700000  19.3710000   4.2430000 -10.5560000  20.1340000   2.9370000
 -11.4320000  16.2510000   4.5060000 -13.4100000  18.0980000   5.9830000
 -14.7200000  18.1570000   6.6680000 -14.8760000  19.3080000   7.6920000
 -13.6830000  19.5710000   8.6480000 -13.1150000  18.3530000   9.4060000
 -14.1930000  17.4840000   9.8000000 -13.7900000  16.2380000  10.4070000
 -14.7610000  15.1250000   9.9320000 -14.5230000  14.8240000   8.5540000
 -14.6130000  13.8210000  10.7770000 -15.7480000  12.8040000  10.5210000
 -15.6560000  12.2860000   9.1940000 -14.6320000  14.1340000  12.1890000
 -13.6090000  15.0410000  12.6110000 -13.6810000  15.2460000  14.0070000
 -13.9030000  16.3920000  11.9380000 -13.0140000  17.4040000  12.4110000
 -12.5150000  17.0480000   6.1810000 -12.6140000  16.1640000   7.0200000
  -9.3920000  16.5460000   5.5740000 -10.1870000  19.0590000   7.1660000
  -9.0710000  17.9770000   3.7520000  -8.6320000  19.1050000   5.0530000
 -10.8460000  20.0980000   5.0500000 -11.4700000  20.6590000   2.6430000
 -14.8920000  17.2050000   7.1850000 -15.5070000  18.2500000   5.9080000
 -15.0710000  20.2340000   7.1380000 -15.7810000  19.1180000   8.2870000
 -12.8670000  20.0320000   8.0780000 -14.0000000  20.3210000   9.3840000
 -12.5450000  18.7080000  10.2710000 -12.4140000  17.8230000   8.7560000
 -12.7650000  15.9550000  10.1290000 -15.7910000  15.4930000  10.0590000
 -13.8510000  15.4430000   8.1850000 -13.6590000  13.3360000  10.5260000
 -15.6700000  11.9870000  11.2490000 -16.7200000  13.2960000  10.6780000
 -15.3850000  13.0330000   8.6190000 -12.6180000  14.6620000  12.3280000
 -13.4080000  16.1800000  14.0690000 -14.9460000  16.6530000  12.1780000
 -13.2000000  18.1680000  11.8320000  -9.4720000  20.2150000   2.1450000
  -8.5300000  19.7280000   2.3820000  -9.5000000  20.7940000   1.2210000
