%VERSION  VERSION_STAMP = V0001.000  DATE = 10/01/26  16:16:20                  
%FLAG TITLE                                                                     
%FORMAT(20a4)                                                                   
default_name                                                                    
%FLAG POINTERS                                                                  
%FORMAT(10I8)                                                                   
     110      12      54      61     128      90     279     211       0       0
     678       2      61      90     211      21      44      35      14       0
       0       0       0       0       0       0       0       0      55       0
       0
%FLAG ATOM_NAME                                                                 
%FORMAT(20a4)                                                                   
O   C   C1  H   C2  C3  C4  C6  C7  C8  H1  N   C10 C11 C12 C13 O1  C14 C15 O2  
C16 C17 O3  O4  C18 O5  C19 O6  C20 O7  H2  H3  H6  H7  H8  H9  H12 H13 H14 H15 
H16 H17 H18 H19 H20 H21 H22 H23 H24 H25 H26 H27 H28 H29 H30 O   C   C1  H   C2  
C3  C4  C6  C7  C8  H1  N   C10 C11 C12 C13 O1  C14 C15 O2  C16 C17 O3  O4  C18 
O5  C19 O6  C20 O7  H2  H3  H6  H7  H8  H9  H12 H13 H14 H15 H16 H17 H18 H19 H20 
H21 H22 H23 H24 H25 H26 H27 H28 H29 H30 
%FLAG CHARGE                                                                    
%FORMAT(5E16.8)                                                                 
 -8.31851639E+00  4.72026815E+00  5.65802415E-02  1.47682630E+00  5.65802415E-02
 -7.38968932E-01 -2.99703990E+00 -1.49838328E+00 -7.38968932E-01 -2.99703990E+00
  1.47682630E+00  1.24995867E+00 -2.34794336E-01 -2.49153508E-01 -1.16934321E+00
  3.56482855E-01 -5.08210836E+00 -7.69053949E-01 -1.84865234E-01 -8.85550935E+00
  8.11949243E-01  9.46101816E-01 -1.08842891E+01 -5.61011772E+00  4.30228503E+00
 -1.10303409E+01 -2.69453150E-01 -1.14920757E+01  4.72026815E+00 -8.31851639E+00
  1.76652443E+00  2.16712347E+00  1.04561380E+00  1.04561380E+00  1.76652443E+00
  2.16712347E+00  9.40398236E-01  9.40398236E-01  5.66932198E-01  5.66932198E-01
  6.40112954E-01  6.40112954E-01  1.02405682E+00  1.02405682E+00  2.48758084E+00
  2.73688013E+00  6.83959453E+00  2.03167712E+00  1.63659943E+00  1.63659943E+00
  6.75642795E+00  1.95532568E+00  8.13197471E+00  2.55369134E+00  8.19646343E+00
 -8.31851639E+00  4.72026815E+00  5.65802415E-02  1.47682630E+00  5.65802415E-02
 -7.38968932E-01 -2.99703990E+00 -1.49838328E+00 -7.38968932E-01 -2.99703990E+00
  1.47682630E+00  1.24995867E+00 -2.34794336E-01 -2.49153508E-01 -1.16934321E+00
  3.56482855E-01 -5.08210836E+00 -7.69053949E-01 -1.84865234E-01 -8.85550935E+00
  8.11949243E-01  9.46101816E-01 -1.08842891E+01 -5.61011772E+00  4.30228503E+00
 -1.10303409E+01 -2.69453150E-01 -1.14920757E+01  4.72026815E+00 -8.31851639E+00
  1.76652443E+00  2.16712347E+00  1.04561380E+00  1.04561380E+00  1.76652443E+00
  2.16712347E+00  9.40398236E-01  9.40398236E-01  5.66932198E-01  5.66932198E-01
  6.40112954E-01  6.40112954E-01  1.02405682E+00  1.02405682E+00  2.48758084E+00
  2.73688013E+00  6.83959453E+00  2.03167712E+00  1.63659943E+00  1.63659943E+00
  6.75642795E+00  1.95532568E+00  8.13197471E+00  2.55369134E+00  8.19646343E+00
%FLAG ATOMIC_NUMBER                                                             
%FORMAT(10I8)                                                                   
       8       6       6       1       6       6       6       6       6       6
       1       7       6       6       6       6       8       6       6       8
       6       6       8       8       6       8       6       8       6       8
       1       1       1       1       1       1       1       1       1       1
       1       1       1       1       1       1       1       1       1       1
       1       1       1       1       1       8       6       6       1       6
       6       6       6       6       6       1       7       6       6       6
       6       8       6       6       8       6       6       8       8       6
       8       6       8       6       8       1       1       1       1       1
       1       1       1       1       1       1       1       1       1       1
       1       1       1       1       1       1       1       1       1       1
%FLAG MASS                                                                      
%FORMAT(5E16.8)                                                                 
  1.60000000E+01  1.20100000E+01  1.20100000E+01  1.00800000E+00  1.20100000E+01
  1.20100000E+01  1.20100000E+01  1.20100000E+01  1.20100000E+01  1.20100000E+01
  1.00800000E+00  1.40100000E+01  1.20100000E+01  1.20100000E+01  1.20100000E+01
  1.20100000E+01  1.60000000E+01  1.20100000E+01  1.20100000E+01  1.60000000E+01
  1.20100000E+01  1.20100000E+01  1.60000000E+01  1.60000000E+01  1.20100000E+01
  1.60000000E+01  1.20100000E+01  1.60000000E+01  1.20100000E+01  1.60000000E+01
  1.00800000E+00  1.00800000E+00  1.00800000E+00  1.00800000E+00  1.00800000E+00
  1.00800000E+00  1.00800000E+00  1.00800000E+00  1.00800000E+00  1.00800000E+00
  1.00800000E+00  1.00800000E+00  1.00800000E+00  1.00800000E+00  1.00800000E+00
  1.00800000E+00  1.00800000E+00  1.00800000E+00  1.00800000E+00  1.00800000E+00
  1.00800000E+00  1.00800000E+00  1.00800000E+00  1.00800000E+00  1.00800000E+00
  1.60000000E+01  1.20100000E+01  1.20100000E+01  1.00800000E+00  1.20100000E+01
  1.20100000E+01  1.20100000E+01  1.20100000E+01  1.20100000E+01  1.20100000E+01
  1.00800000E+00  1.40100000E+01  1.20100000E+01  1.20100000E+01  1.20100000E+01
  1.20100000E+01  1.60000000E+01  1.20100000E+01  1.20100000E+01  1.60000000E+01
  1.20100000E+01  1.20100000E+01  1.60000000E+01  1.60000000E+01  1.20100000E+01
  1.60000000E+01  1.20100000E+01  1.60000000E+01  1.20100000E+01  1.60000000E+01
  1.00800000E+00  1.00800000E+00  1.00800000E+00  1.00800000E+00  1.00800000E+00
  1.00800000E+00  1.00800000E+00  1.00800000E+00  1.00800000E+00  1.00800000E+00
  1.00800000E+00  1.00800000E+00  1.00800000E+00  1.00800000E+00  1.00800000E+00
  1.00800000E+00  1.00800000E+00  1.00800000E+00  1.00800000E+00  1.00800000E+00
  1.00800000E+00  1.00800000E+00  1.00800000E+00  1.00800000E+00  1.00800000E+00
%FLAG ATOM_TYPE_INDEX                                                           
%FORMAT(10I8)                                                                   
       1       2       3       4       3       3       2       3       3       2
       4       5       6       6       6       6       7       3       3       8
       3       6       8       7       3       8       3       8       2       1
       4       9       4       4       4       9      10      10       4       4
       4       4      10      10      10      10      11      10      10      10
      11      12      11      10      11       1       2       3       4       3
       3       2       3       3       2       4       5       6       6       6
       6       7       3       3       8       3       6       8       7       3
       8       3       8       2       1       4       9       4       4       4
       9      10      10       4       4       4       4      10      10      10
      10      11      10      10      10      11      12      11      10      11
%FLAG NUMBER_EXCLUDED_ATOMS                                                     
%FORMAT(10I8)                                                                   
       8      16      18       9      15      13       8      11      12      10
       4       9      11      12      11      11      14      18      15       8
      14       8       5      11       9       5       7       4       4       1
       3       1       2       1       2       3       3       2       3       2
       3       2       1       1       2       2       1       2       2       1
       1       2       1       1       1       8      16      17       9      15
      13       8      10       9       4       4       9      11      12      11
      11      14      18      15       8      14       8       5      11       9
       5       7       4       4       1       3       1       2       1       1
       1       3       2       3       2       3       2       1       1       2
       2       1       2       2       1       1       2       1       1       1
%FLAG NONBONDED_PARM_INDEX                                                      
%FORMAT(10I8)                                                                   
       1       2       4       7      11      16      22      29      37      46
      56      67       2       3       5       8      12      17      23      30
      38      47      57      68       4       5       6       9      13      18
      24      31      39      48      58      69       7       8       9      10
      14      19      25      32      40      49      59      70      11      12
      13      14      15      20      26      33      41      50      60      71
      16      17      18      19      20      21      27      34      42      51
      61      72      22      23      24      25      26      27      28      35
      43      52      62      73      29      30      31      32      33      34
      35      36      44      53      63      74      37      38      39      40
      41      42      43      44      45      54      64      75      46      47
      48      49      50      51      52      53      54      55      65      76
      56      57      58      59      60      61      62      63      64      65
      66      77      67      68      69      70      71      72      73      74
      75      76      77      78
%FLAG RESIDUE_LABEL                                                             
%FORMAT(20a4)                                                                   
MON MON 
%FLAG RESIDUE_POINTER                                                           
%FORMAT(10I8)                                                                   
       1      56
%FLAG BOND_FORCE_CONSTANT                                                       
%FORMAT(5E16.8)                                                                 
  5.90600000E+02  5.35510000E+02  3.16700000E+02  3.30600000E+02  3.31700000E+02
  3.00900000E+02  3.08600000E+02  3.44220000E+02  2.85150000E+02  3.00900000E+02
  2.82270000E+02  3.45250000E+02  2.28890000E+02  3.17460000E+02  2.54460000E+02
  3.57290000E+02  4.36000000E+02  3.30600000E+02  3.26800000E+02  3.00900000E+02
  3.13000000E+02
%FLAG BOND_EQUIL_VALUE                                                          
%FORMAT(5E16.8)                                                                 
  1.21900000E+00  9.72500000E-01  1.42300000E+00  1.09700000E+00  1.09600000E+00
  1.53800000E+00  1.43200000E+00  1.09690000E+00  1.42420000E+00  1.53800000E+00
  1.42730000E+00  1.09620000E+00  1.53540000E+00  1.39670000E+00  1.46430000E+00
  1.08820000E+00  1.33790000E+00  1.09700000E+00  1.51000000E+00  1.53800000E+00
  1.52400000E+00
%FLAG ANGLE_FORCE_CONSTANT                                                      
%FORMAT(5E16.8)                                                                 
  3.56400000E+01  3.58000000E+01  4.63700000E+01  3.94000000E+01  5.09000000E+01
  4.74000000E+01  4.62000000E+01  4.64000000E+01  5.11000000E+01  6.75000000E+01
  7.26000000E+01  5.09000000E+01  6.80000000E+01  5.08000000E+01  5.62900000E+01
  6.80000000E+01  4.64000000E+01  6.51300000E+01  6.27000000E+01  4.64000000E+01
  6.75000000E+01  6.29000000E+01  6.29000000E+01  5.62000000E+01  6.27000000E+01
  4.32700000E+01  4.32800000E+01  7.74400000E+01  5.98700000E+01  7.72400000E+01
  8.66800000E+01  6.49500000E+01  4.80900000E+01  4.69000000E+01  4.70000000E+01
  6.41000000E+01  4.63000000E+01  4.59000000E+01  6.34000000E+01  6.29000000E+01
  6.33000000E+01  6.74000000E+01  6.68000000E+01  7.71500000E+01
%FLAG ANGLE_EQUIL_VALUE                                                         
%FORMAT(5E16.8)                                                                 
  1.89455572E+00  1.88024401E+00  2.10120279E+00  1.87762601E+00  1.92440086E+00
  1.87204096E+00  1.92370273E+00  1.91218355E+00  1.90991462E+00  1.92317913E+00
  1.90904195E+00  1.91253261E+00  1.88443280E+00  1.91602327E+00  1.92649525E+00
  1.88443280E+00  1.91218355E+00  1.87430989E+00  1.96314718E+00  1.91218355E+00
  1.92317913E+00  1.94621748E+00  1.94621748E+00  1.92579712E+00  1.96314718E+00
  1.91427794E+00  1.91270715E+00  1.87832415E+00  1.96576518E+00  2.07397564E+00
  2.13925098E+00  1.96838317E+00  1.89822091E+00  1.89839544E+00  1.92614619E+00
  2.15775148E+00  1.91637234E+00  2.01899774E+00  1.94709015E+00  1.94621748E+00
  1.93801443E+00  2.15024656E+00  2.01027109E+00  2.18532769E+00
%FLAG DIHEDRAL_FORCE_CONSTANT                                                   
%FORMAT(5E16.8)                                                                 
  1.66666667E-01  1.55555556E-01  1.23000000E-01  1.20000000E-01  6.65000000E+00
  0.00000000E+00  1.15000000E+00  3.80000000E-01  1.50000000E-01  0.00000000E+00
  2.50000000E-01  0.00000000E+00  1.60000000E-01  1.17500000E+00  1.44000000E-01
  3.83333333E-01  1.00000000E-01  3.83000000E-01  2.00000000E-01  2.50000000E-01
  1.80000000E-01  1.30000000E-01  2.26000000E+00  3.00000000E-02  6.50000000E-01
  5.20000000E-01  2.50000000E+00  1.00000000E-01  8.00000000E-01  8.00000000E-02
  7.00000000E-02  1.00000000E-01  1.50000000E+00  1.05000000E+01  1.10000000E+00
%FLAG DIHEDRAL_PERIODICITY                                                      
%FORMAT(5E16.8)                                                                 
  3.00000000E+00  3.00000000E+00  3.00000000E+00  3.00000000E+00  2.00000000E+00
  2.00000000E+00  1.00000000E+00  3.00000000E+00  3.00000000E+00  2.00000000E+00
  1.00000000E+00  3.00000000E+00  3.00000000E+00  2.00000000E+00  3.00000000E+00
  3.00000000E+00  2.00000000E+00  3.00000000E+00  1.00000000E+00  2.00000000E+00
  3.00000000E+00  3.00000000E+00  1.00000000E+00  3.00000000E+00  4.00000000E+00
  3.00000000E+00  2.00000000E+00  3.00000000E+00  1.00000000E+00  3.00000000E+00
  2.00000000E+00  4.00000000E+00  1.00000000E+00  2.00000000E+00  2.00000000E+00
%FLAG DIHEDRAL_PHASE                                                            
%FORMAT(5E16.8)                                                                 
  0.00000000E+00  0.00000000E+00  0.00000000E+00  0.00000000E+00  3.14159400E+00
  0.00000000E+00  0.00000000E+00  3.14159400E+00  0.00000000E+00  3.14159400E+00
  0.00000000E+00  0.00000000E+00  0.00000000E+00  0.00000000E+00  0.00000000E+00
  0.00000000E+00  3.14159400E+00  0.00000000E+00  3.14159400E+00  3.14159400E+00
  0.00000000E+00  0.00000000E+00  0.00000000E+00  3.14159400E+00  3.14159400E+00
  0.00000000E+00  3.14159400E+00  0.00000000E+00  0.00000000E+00  3.14159400E+00
  0.00000000E+00  0.00000000E+00  3.14159400E+00  3.14159400E+00  3.14159400E+00
%FLAG SCEE_SCALE_FACTOR                                                         
%FORMAT(5E16.8)                                                                 
  1.20000000E+00  1.20000000E+00  1.20000000E+00  1.20000000E+00  1.20000000E+00
  1.20000000E+00  1.20000000E+00  1.20000000E+00  1.20000000E+00  1.20000000E+00
  1.20000000E+00  1.20000000E+00  1.20000000E+00  1.20000000E+00  1.20000000E+00
  1.20000000E+00  1.20000000E+00  1.20000000E+00  1.20000000E+00  1.20000000E+00
  1.20000000E+00  1.20000000E+00  1.20000000E+00  1.20000000E+00  1.20000000E+00
  1.20000000E+00  1.20000000E+00  1.20000000E+00  1.20000000E+00  1.20000000E+00
  1.20000000E+00  1.20000000E+00  1.20000000E+00  0.00000000E+00  0.00000000E+00
%FLAG SCNB_SCALE_FACTOR                                                         
%FORMAT(5E16.8)                                                                 
  2.00000000E+00  2.00000000E+00  2.00000000E+00  2.00000000E+00  2.00000000E+00
  2.00000000E+00  2.00000000E+00  2.00000000E+00  2.00000000E+00  2.00000000E+00
  2.00000000E+00  2.00000000E+00  2.00000000E+00  2.00000000E+00  2.00000000E+00
  2.00000000E+00  2.00000000E+00  2.00000000E+00  2.00000000E+00  2.00000000E+00
  2.00000000E+00  2.00000000E+00  2.00000000E+00  2.00000000E+00  2.00000000E+00
  2.00000000E+00  2.00000000E+00  2.00000000E+00  2.00000000E+00  2.00000000E+00
  2.00000000E+00  2.00000000E+00  2.00000000E+00  0.00000000E+00  0.00000000E+00
%FLAG SOLTY                                                                     
%FORMAT(5E16.8)                                                                 
  0.00000000E+00  0.00000000E+00  0.00000000E+00  0.00000000E+00  0.00000000E+00
  0.00000000E+00  0.00000000E+00  0.00000000E+00  0.00000000E+00  0.00000000E+00
  0.00000000E+00  0.00000000E+00  0.00000000E+00  0.00000000E+00
%FLAG LENNARD_JONES_ACOEF                                                       
%FORMAT(5E16.8)                                                                 
  3.76435470E+05  5.17507491E+05  6.96551276E+05  6.37913494E+05  8.53193737E+05
  1.04308023E+06  5.68021765E+04  8.12662403E+04  1.01372942E+05  7.94617769E+03
  5.15491878E+05  7.01106848E+05  8.61458248E+05  7.93773615E+04  7.02078680E+05
  6.30925504E+05  8.43969952E+05  1.03184851E+06  1.00235148E+05  8.52084164E+05
  1.02073671E+06  3.27367585E+05  4.46121722E+05  5.48478208E+05  5.02224902E+04
  4.46307018E+05  5.42502534E+05  2.83662575E+05  4.37717034E+05  5.92438683E+05
  7.26877088E+05  6.80216136E+04  5.94682930E+05  7.18991463E+05  3.78207390E+05
  5.03152404E+05  5.27277400E+04  7.52549148E+04  9.38067954E+04  7.41026906E+03
  7.35931098E+04  9.27554496E+04  4.65732396E+04  6.30298721E+04  6.90855956E+03
  3.86646725E+04  5.63013422E+04  7.06006146E+04  5.22955465E+03  5.45183252E+04
  6.97998263E+04  3.44374471E+04  4.69084694E+04  4.88692384E+03  3.39005767E+03
  1.15813907E+02  2.25372434E+02  3.07630260E+02  8.80612241E+00  1.89434762E+02
  3.03553352E+02  1.16469347E+02  1.74176419E+02  8.53132435E+00  4.36660257E+00
  1.10360882E-05  2.59855087E+04  3.85565555E+04  4.86195279E+04  3.39005767E+03
  3.69926172E+04  4.80619274E+04  2.33261683E+04  3.19666529E+04  3.17496391E+03
  2.16218723E+03  2.07292270E+00  1.35510742E+03
%FLAG LENNARD_JONES_BCOEF                                                       
%FORMAT(5E16.8)                                                                 
  4.69350655E+02  4.98871431E+02  5.24668528E+02  5.68167388E+02  5.95658566E+02
  6.75612247E+02  1.11953944E+02  1.21392023E+02  1.39078880E+02  2.57122925E+01
  5.64804067E+02  5.97113873E+02  6.78964813E+02  1.36094315E+02  6.77820248E+02
  5.62969425E+02  5.90251928E+02  6.69494459E+02  1.37787728E+02  6.72777963E+02
  6.63431737E+02  3.67361018E+02  3.88758656E+02  4.42179058E+02  8.83545880E+01
  4.41089616E+02  4.38146883E+02  2.87011518E+02  4.51916854E+02  4.76608379E+02
  5.41546250E+02  1.09393126E+02  5.41675626E+02  5.36620538E+02  3.52573684E+02
  4.32634597E+02  1.01173582E+02  1.09570372E+02  1.25489661E+02  2.32899892E+01
  1.22913863E+02  1.24325688E+02  7.98066064E+01  9.87712192E+01  2.10929191E+01
  9.23664132E+01  1.01040256E+02  1.16065835E+02  2.08590256E+01  1.12788003E+02
  1.14981426E+02  7.31636661E+01  9.08431526E+01  1.89134207E+01  1.67944276E+01
  3.48534600E+00  4.40751799E+00  5.28230309E+00  5.90150328E-01  4.58384710E+00
  5.22789272E+00  2.93355636E+00  3.81654050E+00  5.44840215E-01  4.15568027E-01
  4.55498033E-04  7.57220777E+01  8.36149973E+01  9.63175726E+01  1.67944276E+01
  9.29071597E+01  9.54115851E+01  6.02145835E+01  7.49920368E+01  1.52447987E+01
  1.34124560E+01  2.86326700E-01  1.06181419E+01
%FLAG BONDS_INC_HYDROGEN                                                        
%FORMAT(10I8)                                                                   
      81     162       2      78     159       4      75     156       2      72
     153       5      66     150       2      63     144       8      63     147
       8      60     141       4      57     138       2      54     135       4
      51     132       4      45     126       8      45     129       8      42
     123      12      42     120      12      39     117      12      39     114
      12      36     108       8      36     111       8      27     105      16
      24     102      18      21      99      18      21      96      18      18
      93      16      15      90      18      12      30      18       6       9
      18     246     327       2     243     324       4     240     321       2
     237     318       5     231     315       2     228     309       8     228
     312       8     225     306       4     222     303       2     219     300
       4     216     297       4     210     291       8     210     294       8
     207     288      12     207     285      12     204     282      12     204
     279      12     201     273       8     201     276       8     192     270
      16     189     267      18     186     264      18     186     261      18
     183     258      16     180     255      18     177     195      18     171
     174      18
%FLAG BONDS_WITHOUT_HYDROGEN                                                    
%FORMAT(10I8)                                                                   
      84      87       1      78      81       3      72      75       3      72
      78       6      69      72       7      63      66       9      60      69
       7      60      63      10      54      60       6      54      57       3
      51      78       6      51      54       6      48      51       7      45
      48      11      42      45      13      39      42      13      36      39
      13      33      84      14      33      36      15      27     183      17
      24      27      19      21      24      20      15      18      19      15
      21      20      12      15      20      12      84      21       6      24
      20       6      12      20       3       6      21       3      33      14
       0       3       1     249     252       1     243     246       3     237
     240       3     237     243       6     234     237       7     228     231
       9     225     234       7     225     228      10     219     225       6
     219     222       3     216     243       6     216     219       6     213
     216       7     210     213      11     207     210      13     204     207
      13     201     204      13     198     249      14     198     201      15
     189     192      19     186     189      20     180     183      19     180
     186      20     177     180      20     177     249      21     171     189
      20     171     177      20     168     171      21     168     198      14
     165     168       1
%FLAG ANGLES_INC_HYDROGEN                                                       
%FORMAT(10I8)                                                                   
     144      63     147       1     126      45     129       1     120      42
     123       2     114      39     117       2     108      36     111       1
     105      27     183       3      96      21      99       4      81      78
     159       5      78      81     162       6      78      72     153       7
      78      51     132       8      75      72     153       9      72      75
     156       6      72      78     159       8      69      72     153      12
      69      60     141      14      66      63     144      15      66      63
     147      15      63      60     141      17      63      66     150      18
      60      54     135       8      60      63     144      20      60      63
     147      20      57      54     135       5      54      51     132       8
      54      60     141       8      54      57     138       6      51      78
     159       8      51      54     135       8      48      45     126      24
      48      45     129      24      48      51     132      14      45      42
     123      26      45      42     120      26      42      45     126      27
      42      45     129      27      42      39     117      26      42      39
     114      26      39      42     123      26      39      42     120      26
      39      36     108      27      39      36     111      27      36      39
     117      26      36      39     114      26      33      36     108      33
      33      36     111      33      30      12      84      34      27      24
     102      35      27     183     258       3      24      21      99      37
      24      21      96      37      24      27     105      38      21      15
      90      37      21      24     102      37      18      15      90      35
      15      18      93      38      15      21      99      37      15      21
      96      37      15      12      30      37      12      15      90      37
       9       6      24      37       9       6      12      37       6      24
     102      37       6      12      30      37       3       6       9      34
     309     228     312       1     291     210     294       1     285     207
     288       2     279     204     282       2     273     201     276       1
     261     186     264       4     246     243     324       5     243     246
     327       6     243     237     318       7     243     216     297       8
     240     237     318       9     237     240     321       6     237     243
     324       8     234     237     318      12     234     225     306      14
     231     228     309      15     231     228     312      15     228     225
     306      17     228     231     315      18     225     219     300       8
     225     228     309      20     225     228     312      20     222     219
     300       5     219     216     297       8     219     225     306       8
     219     222     303       6     216     243     324       8     216     219
     300       8     213     210     291      24     213     210     294      24
     213     216     297      14     210     207     288      26     210     207
     285      26     207     210     291      27     207     210     294      27
     207     204     282      26     207     204     279      26     204     207
     288      26     204     207     285      26     204     201     273      27
     204     201     276      27     201     204     282      26     201     204
     279      26     198     201     273      33     198     201     276      33
     195     177     249      34     192     189     267      35     189     186
     264      37     189     186     261      37     189     192     270      38
     186     180     255      37     186     189     267      37     183     180
     255      35     180     183     258      38     180     186     264      37
     180     186     261      37     180     177     195      37     177     180
     255      37     174     171     189      37     174     171     177      37
     171     189     267      37     171     177     195      37     168     171
     174      34
%FLAG ANGLES_WITHOUT_HYDROGEN                                                   
%FORMAT(10I8)                                                                   
      75      72      78      10      72      78      81      10      69      72
      75      11      69      72      78      13      63      60      69      16
      60      69      72      19      60      63      66      21      57      54
      60      10      54      51      78      22      54      60      69      13
      54      60      63      23      51      78      81      10      51      78
      72      22      51      54      60      22      51      54      57      10
      48      51      78      13      48      51      54      13      45      48
      51      25      42      45      48      28      39      42      45      29
      36      39      42      29      36      33      84      30      33      84
      87      31      33      36      39      32      27     183     180      36
      24      27     183      36      21      24      27      39      18      15
      21      39      15      21      24      40      15      12      84      41
      12      15      18      39      12      15      21      40      12      84
      87      42      12      84      33      43      12       6      24      40
       6      24      21      40       6      24      27      39       6      12
      15      40       6      12      84      41       6       3      33      43
       3       6      24      41       3       6      12      41       3      33
      84      44       3      33      36      30       0       3       6      42
       0       3      33      31     240     237     243      10     237     243
     246      10     234     237     240      11     234     237     243      13
     228     225     234      16     225     234     237      19     225     228
     231      21     222     219     225      10     219     216     243      22
     219     225     234      13     219     225     228      23     216     243
     246      10     216     243     237      22     216     219     225      22
     216     219     222      10     213     216     243      13     213     216
     219      13     210     213     216      25     207     210     213      28
     204     207     210      29     201     204     207      29     201     198
     249      30     198     249     252      31     198     201     204      32
     186     189     192      39     183     180     186      39     180     186
     189      40     180     177     249      41     177     180     183      39
     177     180     186      40     177     249     252      42     177     249
     198      43     177     171     189      40     171     189     186      40
     171     189     192      39     171     177     180      40     171     177
     249      41     171     168     198      43     168     171     189      41
     168     171     177      41     168     198     249      44     168     198
     201      30     165     168     171      42     165     168     198      31
%FLAG DIHEDRALS_INC_HYDROGEN                                                    
%FORMAT(10I8)                                                                   
     159      78      81     162       1     153      72      75     156       1
     153      72      78     159       2     147      63      66     150       3
     144      63      66     150       3     141      60      63     144       2
     141      60      63     147       2     135      54      60     141       2
     135      54      57     138       1     132      51      78     159       2
     132      51      54     135       2     123      42      45     126       2
     123      42      45     129       2     120      42      45     126       2
     120      42      45     129       2     117      39      42     123       4
     117      39      42     120       4     114      39      42     123       4
     114      39      42     120       4     111      36      39     117       2
     111      36      39     114       2     108      36      39     117       2
     108      36      39     114       2     105      27     183     258       5
     105      27     183     180       5     102      24      27     105       6
     102      24      27     183       7     102      24     -27     183       6
     102      24     -27     183       8      99      21      24     102       9
      96      21      24     102       9      90      15      18      93       6
      90      15      21      99       9      90      15      21      96       9
      84      12      15      90       2      84      33      36     108      10
      84      33      36     111      10      81      78      72     153       2
      81      78      51     132      11      81      78     -51     132      12
      78      72      75     156      11      78      72     -75     156      13
      78      51      54     135       2      75      72      78     159      11
      75      72     -78     159      12      72      78      81     162      11
      72      78     -81     162      13      72      78      51     132       2
      72      69      60     141      16      69      72      75     156       1
      69      72      78     159      11      69      72     -78     159      12
      69      60      54     135      11      69      60     -54     135      12
      69      60      63     144      11      69      60     -63     144      12
      69      60      63     147      11      69      60     -63     147      12
      66      63      60     141      11      66      63     -60     141      12
      63      60      54     135       2      60      69      72     153      16
      60      54      51     132       2      60      54      57     138      11
      60      54     -57     138      13      60      63      66     150      11
      60      63     -66     150      13      57      54      51     132      11
      57      54     -51     132      12      57      54      60     141      11
      57      54     -60     141      12      54      51      78     159       2
      54      60      63     144       2      54      60      63     147       2
      51      78      81     162      11      51      78     -81     162      13
      51      78      72     153       2      51      48      45     126      16
      51      48      45     129      16      51      54      60     141       2
      51      54      57     138      11      51      54     -57     138      13
      48      45      42     123      11      48      45     -42     123      12
      48      45      42     120      11      48      45     -42     120      12
      48      51      78     159      11      48      51     -78     159      12
      48      51      54     135      11      48      51     -54     135      12
      45      48      51     132      16      45      42      39     117      22
      45      42      39     114      22      42      39      36     108       2
      42      39      36     111       2      39      42      45     126       2
      39      42      45     129       2      36      39      42     123      22
      36      39      42     120      22      33      36      39     117       2
      33      36      39     114       2      30      12      15      90       9
      30      12      84      87      29      30      12     -84      87       6
      30      12     -84      87      30      30      12      84      33      10
      27      24      21      99       2      27      24      21      96       2
      27     183     180     255       7      27     183    -180     255       6
      27     183    -180     255       8      24      21      15      90      13
      24      27     183     258       5      24       6      12      30      13
      21      15      18      93       6      21      15      12      30      13
      21      24      27     105       6      18      15      21      99       2
      18      15      21      96       2      18      15      12      30       2
      15      21      24     102      13      12      15      18      93       6
      12      15      21      99      13      12      15      21      96      13
      12       6      24     102      13       9       6      24     102       9
       9       6      24      21      13       9       6      24      27       2
       9       6      12      15      13       9       6      12      84       2
       9       6      12      30       9       9       6       3      33      10
       6      24      21      99      13       6      24      21      96      13
       6      24      27     105       6       6      12      15      90      13
       3       6      24     102       2       3       6      12      30       2
       3      33      36     108      10       3      33      36     111      10
       0       3       6       9      29       0       3      -6       9       6
       0       3      -6       9      30     324     243     246     327       1
     318     237     240     321       1     318     237     243     324       2
     312     228     231     315       3     309     228     231     315       3
     306     225     228     309       2     306     225     228     312       2
     300     219     225     306       2     300     219     222     303       1
     297     216     243     324       2     297     216     219     300       2
     288     207     210     291       2     288     207     210     294       2
     285     207     210     291       2     285     207     210     294       2
     282     204     207     288       4     282     204     207     285       4
     279     204     207     288       4     279     204     207     285       4
     276     201     204     282       2     276     201     204     279       2
     273     201     204     282       2     273     201     204     279       2
     267     189     192     270       6     264     186     189     267       9
     261     186     189     267       9     255     180     183     258       6
     255     180     186     264       9     255     180     186     261       9
     249     177     180     255       2     249     198     201     273      10
     249     198     201     276      10     246     243     237     318       2
     246     243     216     297      11     246     243    -216     297      12
     243     237     240     321      11     243     237    -240     321      13
     243     216     219     300       2     240     237     243     324      11
     240     237    -243     324      12     237     243     246     327      11
     237     243    -246     327      13     237     243     216     297       2
     237     234     225     306      16     234     237     240     321       1
     234     237     243     324      11     234     237    -243     324      12
     234     225     219     300      11     234     225    -219     300      12
     234     225     228     309      11     234     225    -228     309      12
     234     225     228     312      11     234     225    -228     312      12
     231     228     225     306      11     231     228    -225     306      12
     228     225     219     300       2     225     234     237     318      16
     225     219     216     297       2     225     219     222     303      11
     225     219    -222     303      13     225     228     231     315      11
     225     228    -231     315      13     222     219     216     297      11
     222     219    -216     297      12     222     219     225     306      11
     222     219    -225     306      12     219     216     243     324       2
     219     225     228     309       2     219     225     228     312       2
     216     243     246     327      11     216     243    -246     327      13
     216     243     237     318       2     216     213     210     291      16
     216     213     210     294      16     216     219     225     306       2
     216     219     222     303      11     216     219    -222     303      13
     213     210     207     288      11     213     210    -207     288      12
     213     210     207     285      11     213     210    -207     285      12
     213     216     243     324      11     213     216    -243     324      12
     213     216     219     300      11     213     216    -219     300      12
     210     213     216     297      16     210     207     204     282      22
     210     207     204     279      22     207     204     201     273       2
     207     204     201     276       2     204     207     210     291       2
     204     207     210     294       2     201     204     207     288      22
     201     204     207     285      22     198     201     204     282       2
     198     201     204     279       2     195     177     180     255       9
     195     177     249     252      29     195     177    -249     252       6
     195     177    -249     252      30     195     177     249     198      10
     192     189     186     264       2     192     189     186     261       2
     189     186     180     255      13     189     171     177     195      13
     186     180     183     258       6     186     180     177     195      13
     186     189     192     270       6     183     180     186     264       2
     183     180     186     261       2     183     180     177     195       2
     180     186     189     267      13     177     180     183     258       6
     177     180     186     264      13     177     180     186     261      13
     177     171     189     267      13     174     171     189     267       9
     174     171     189     186      13     174     171     189     192       2
     174     171     177     180      13     174     171     177     249       2
     174     171     177     195       9     174     171     168     198      10
     171     189     186     264      13     171     189     186     261      13
     171     189     192     270       6     171     177     180     255      13
     168     171     189     267       2     168     171     177     195       2
     168     198     201     273      10     168     198     201     276      10
     165     168     171     174      29     165     168    -171     174       6
     165     168    -171     174      30     183      24     -27    -105      35
      27     180    -183    -258      35
%FLAG DIHEDRALS_WITHOUT_HYDROGEN                                                
%FORMAT(10I8)                                                                   
      75      72      78      81      14      75      72     -78      81      15
      69      72      78      81      14      69      72     -78      81      15
      66      63      60      69      14      66      63     -60      69      15
      63      60      69      72      17      63      60     -69      72      18
      60      69      72      75      16      60      69      72      78      17
      60      69     -72      78      18      60      54     -51      78      19
      60      54     -51      78      20      60      54     -51      78      21
      57      54      51      78       2      57      54      60      69      14
      57      54     -60      69      15      57      54      60      63       2
      54      51      78      81       2      54      51      78      72      19
      54      51     -78      72      20      54      51     -78      72      21
      54      60     -69      72      17      54      60     -69      72      18
      54      60      63      66       2      51      78      72      75       2
      51      78      72      69       2      51      54     -60      69       2
      51      54      60      63      19      51      54     -60      63      20
      51      54     -60      63      21      48      51      78      81      14
      48      51     -78      81      15      48      51      78      72       2
      48      51      54      60       2      48      51      54      57      14
      48      51     -54      57      15      45      48      51      78      17
      45      48     -51      78      18      45      48      51      54      17
      45      48     -51      54      18      42      45      48      51      17
      42      45     -48      51      18      39      42      45      48       2
      39      36      33      84      23      39      36     -33      84      24
      39      36     -33      84      25      36      39      42      45      26
      36      33      84      87      27      33      36      39      42      28
      27     183     180     186       6      27     183     180     177       6
      24      27     183     180       5      24       6      12      84       2
      24       6       3      33      31      24       6      -3      33      32
      21      15      12      84       2      21      24      27     183       6
      18      15      21      24       2      18      15      12      84       2
      15      21      24      27       2      15      12      84      87      10
      15      12      84      33      31      15      12     -84      33      32
      15      12      -6      24      19      15      12      -6      24      20
      15      12      -6      24      21      12      15     -21      24      19
      12      15     -21      24      20      12      15     -21      24      21
      12      84      33      36      33      12      84     -33      36       6
      12       6     -24      21      19      12       6     -24      21      20
      12       6     -24      21      21      12       6      24      27       2
      12       6      -3      33      31      12       6      -3      33      32
       6      24     -21      15      19       6      24     -21      15      20
       6      24     -21      15      21       6      24      27     183       6
       6      12      15      18       2       6      12     -15      21      19
       6      12     -15      21      20       6      12     -15      21      21
       6      12      84      87      10       6      12     -84      33      31
       6      12     -84      33      32       6       3     -33      84      27
       6       3      33      36      33       6       3     -33      36       6
       3       6      24      21       2       3       6      24      27       2
       3       6      12      15       2       3       6     -12      84       2
       3      33     -84      12      27       3      33      84      87      27
       3      33      36      39      23       3      33     -36      39      24
       3      33     -36      39      25       0       3       6      24      10
       0       3       6      12      10       0       3      33      84      27
       0       3      33      36      27     240     237     243     246      14
     240     237    -243     246      15     234     237     243     246      14
     234     237    -243     246      15     231     228     225     234      14
     231     228    -225     234      15     228     225     234     237      17
     228     225    -234     237      18     225     234     237     240      16
     225     234     237     243      17     225     234    -237     243      18
     225     219    -216     243      19     225     219    -216     243      20
     225     219    -216     243      21     222     219     216     243       2
     222     219     225     234      14     222     219    -225     234      15
     222     219     225     228       2     219     216     243     246       2
     219     216     243     237      19     219     216    -243     237      20
     219     216    -243     237      21     219     225    -234     237      17
     219     225    -234     237      18     219     225     228     231       2
     216     243     237     240       2     216     243     237     234       2
     216     219    -225     234       2     216     219     225     228      19
     216     219    -225     228      20     216     219    -225     228      21
     213     216     243     246      14     213     216    -243     246      15
     213     216     243     237       2     213     216     219     225       2
     213     216     219     222      14     213     216    -219     222      15
     210     213     216     243      17     210     213    -216     243      18
     210     213     216     219      17     210     213    -216     219      18
     207     210     213     216      17     207     210    -213     216      18
     204     207     210     213       2     204     201     198     249      23
     204     201    -198     249      24     204     201    -198     249      25
     201     204     207     210      26     201     198     249     252      27
     198     201     204     207      28     189     171     177     249       2
     189     171     168     198      31     189     171    -168     198      32
     186     180     177     249       2     183     180     186     189       2
     183     180     177     249       2     180     186     189     192       2
     180     177     249     252      10     180     177     249     198      31
     180     177    -249     198      32     180     177    -171     189      19
     180     177    -171     189      20     180     177    -171     189      21
     177     180    -186     189      19     177     180    -186     189      20
     177     180    -186     189      21     177     249     198     201      33
     177     249    -198     201       6     177     171    -189     186      19
     177     171    -189     186      20     177     171    -189     186      21
     177     171     189     192       2     177     171    -168     198      31
     177     171    -168     198      32     171     189    -186     180      19
     171     189    -186     180      20     171     189    -186     180      21
     171     177     180     183       2     171     177    -180     186      19
     171     177    -180     186      20     171     177    -180     186      21
     171     177     249     252      10     171     177    -249     198      31
     171     177    -249     198      32     171     168    -198     249      27
     171     168     198     201      33     171     168    -198     201       6
     168     171     189     186       2     168     171     189     192       2
     168     171     177     180       2     168     171    -177     249       2
     168     198    -249     177      27     168     198     249     252      27
     168     198     201     204      23     168     198    -201     204      24
     168     198    -201     204      25     165     168     171     189      10
     165     168     171     177      10     165     168     198     249      27
     165     168     198     201      27      12      33     -84     -87      34
       3      84     -33     -36      35       0       3     -33      -6      34
     177     198    -249    -252      34     168     249    -198    -201      35
     171     198    -168    -165      34
%FLAG EXCLUDED_ATOMS_LIST                                                       
%FORMAT(10I8)                                                                   
       2       3       4       5       9      12      13      29       3       4
       5       6       8       9      10      11      12      13      14      29
      30      35      37      38       4       5       6       7       8       9
      10      11      12      13      29      30      31      33      34      35
      36      62       5       6       8       9      10      11      12      29
      35       6       7       8       9      10      11      12      13      29
      30      31      32      33      34      35       7       8       9      10
      11      12      29      30      31      32      33      34      35       8
       9      11      29      31      32      33      34       9      10      11
      29      31      32      33      34      35      36      62      10      11
      12      29      31      33      34      35      36      61      62      87
      33      34      35      36      60      61      62      63      86      87
      12      29      30      31      13      14      15      29      30      37
      38      39      40      14      15      16      29      30      37      38
      39      40      41      42      15      16      17      29      37      38
      39      40      41      42      43      44      16      17      18      37
      38      39      40      41      42      43      44      17      18      19
      27      39      40      41      42      43      44      45      18      19
      20      21      25      27      28      41      42      43      44      45
      46      54      19      20      21      22      24      25      26      27
      28      43      44      45      46      47      48      52      54      55
      20      21      22      23      24      25      27      28      45      46
      47      48      49      50      54      21      22      24      27      45
      46      47      48      22      23      24      25      26      27      45
      46      47      48      49      50      51      52      23      24      25
      46      48      49      50      51      24      48      49      50      51
      25      26      27      28      46      48      49      50      52      53
      54      26      27      28      45      48      52      53      54      55
      27      28      52      53      54      28      45      46      52      53
      54      55      45      52      54      55      30      31      37      38
       0      32      33      34       0      34      35      35      36      62
      61      62      87      38      39      40      39      40      40      41
      42      41      42      42      43      44      43      44      44       0
      46      54      47      48       0      49      50      50      51      51
       0      53      54       0      55       0      57      58      59      60
      64      67      68      84      58      59      60      61      63      64
      65      66      67      68      69      84      85      90      92      93
      59      60      61      62      63      64      65      66      67      68
      84      85      86      88      89      90      91      60      61      63
      64      65      66      67      84      90      61      62      63      64
      65      66      67      68      84      85      86      87      88      89
      90      62      63      64      65      66      67      84      85      86
      87      88      89      90      63      64      66      84      86      87
      88      89      64      65      66      84      86      87      88      89
      90      91      65      66      67      84      86      88      89      90
      91      88      89      90      91      67      84      85      86      68
      69      70      84      85      92      93      94      95      69      70
      71      84      85      92      93      94      95      96      97      70
      71      72      84      92      93      94      95      96      97      98
      99      71      72      73      92      93      94      95      96      97
      98      99      72      73      74      82      94      95      96      97
      98      99     100      73      74      75      76      80      82      83
      96      97      98      99     100     101     109      74      75      76
      77      79      80      81      82      83      98      99     100     101
     102     103     107     109     110      75      76      77      78      79
      80      82      83     100     101     102     103     104     105     109
      76      77      79      82     100     101     102     103      77      78
      79      80      81      82     100     101     102     103     104     105
     106     107      78      79      80     101     103     104     105     106
      79     103     104     105     106      80      81      82      83     101
     103     104     105     107     108     109      81      82      83     100
     103     107     108     109     110      82      83     107     108     109
      83     100     101     107     108     109     110     100     107     109
     110      85      86      92      93       0      87      88      89       0
      89      90      90      91       0      93      94      95      94      95
      95      96      97      96      97      97      98      99      98      99
      99       0     101     109     102     103       0     104     105     105
     106     106       0     108     109       0     110       0
%FLAG HBOND_ACOEF                                                               
%FORMAT(5E16.8)                                                                 

%FLAG HBOND_BCOEF                                                               
%FORMAT(5E16.8)                                                                 

%FLAG HBCUT                                                                     
%FORMAT(5E16.8)                                                                 

%FLAG AMBER_ATOM_TYPE                                                           
%FORMAT(20a4)                                                                   
o   c   c5  hc  c5  c5  c2  c5  c5  c2  hc  n   c3  c3  c3  c3  os  c6  c6  oh  
c6  c3  oh  os  c6  oh  c6  oh  c   o   hc  ha  hc  hc  hc  ha  h1  h1  hc  hc  
hc  hc  h1  h1  h1  h1  ho  h1  h1  h1  ho  h2  ho  h1  ho  o   c   c5  hc  c5  
c5  c2  c5  c5  c2  hc  n   c3  c3  c3  c3  os  c6  c6  oh  c6  c3  oh  os  c6  
oh  c6  oh  c   o   hc  ha  hc  hc  hc  ha  h1  h1  hc  hc  hc  hc  h1  h1  h1  
h1  ho  h1  h1  h1  ho  h2  ho  h1  ho  
%FLAG TREE_CHAIN_CLASSIFICATION                                                 
%FORMAT(20a4)                                                                   
BLA BLA BLA BLA BLA BLA BLA BLA BLA BLA BLA BLA BLA BLA BLA BLA BLA BLA BLA BLA 
BLA BLA BLA BLA BLA BLA BLA BLA BLA BLA BLA BLA BLA BLA BLA BLA BLA BLA BLA BLA 
BLA BLA BLA BLA BLA BLA BLA BLA BLA BLA BLA BLA BLA BLA BLA BLA BLA BLA BLA BLA 
BLA BLA BLA BLA BLA BLA BLA BLA BLA BLA BLA BLA BLA BLA BLA BLA BLA BLA BLA BLA 
BLA BLA BLA BLA BLA BLA BLA BLA BLA BLA BLA BLA BLA BLA BLA BLA BLA BLA BLA BLA 
BLA BLA BLA BLA BLA BLA BLA BLA BLA BLA 
%FLAG JOIN_ARRAY                                                                
%FORMAT(10I8)                                                                   
       0       0       0       0       0       0       0       0       0       0
       0       0       0       0       0       0       0       0       0       0
       0       0       0       0       0       0       0       0       0       0
       0       0       0       0       0       0       0       0       0       0
       0       0       0       0       0       0       0       0       0       0
       0       0       0       0       0       0       0       0       0       0
       0       0       0       0       0       0       0       0       0       0
       0       0       0       0       0       0       0       0       0       0
       0       0       0       0       0       0       0       0       0       0
       0       0       0       0       0       0       0       0       0       0
       0       0       0       0       0       0       0       0       0       0
%FLAG IROTAT                                                                    
%FORMAT(10I8)                                                                   
       0       0       0       0       0       0       0       0       0       0
       0       0       0       0       0       0       0       0       0       0
       0       0       0       0       0       0       0       0       0       0
       0       0       0       0       0       0       0       0       0       0
       0       0       0       0       0       0       0       0       0       0
       0       0       0       0       0       0       0       0       0       0
       0       0       0       0       0       0       0       0       0       0
       0       0       0       0       0       0       0       0       0       0
       0       0       0       0       0       0       0       0       0       0
       0       0       0       0       0       0       0       0       0       0
       0       0       0       0       0       0       0       0       0       0
%FLAG RADIUS_SET                                                                
%FORMAT(1a80)                                                                   
modified Bondi radii (mbondi)                                                   
%FLAG RADII                                                                     
%FORMAT(5E16.8)                                                                 
  1.50000000E+00  1.70000000E+00  1.70000000E+00  1.30000000E+00  1.70000000E+00
  1.70000000E+00  1.70000000E+00  1.70000000E+00  1.70000000E+00  1.70000000E+00
  1.30000000E+00  1.55000000E+00  1.70000000E+00  1.70000000E+00  1.70000000E+00
  1.70000000E+00  1.50000000E+00  1.70000000E+00  1.70000000E+00  1.50000000E+00
  1.70000000E+00  1.70000000E+00  1.50000000E+00  1.50000000E+00  1.70000000E+00
  1.50000000E+00  1.70000000E+00  1.50000000E+00  1.70000000E+00  1.50000000E+00
  1.30000000E+00  1.30000000E+00  1.30000000E+00  1.30000000E+00  1.30000000E+00
  1.30000000E+00  1.30000000E+00  1.30000000E+00  1.30000000E+00  1.30000000E+00
  1.30000000E+00  1.30000000E+00  1.30000000E+00  1.30000000E+00  1.30000000E+00
  1.30000000E+00  8.00000000E-01  1.30000000E+00  1.30000000E+00  1.30000000E+00
  8.00000000E-01  1.30000000E+00  8.00000000E-01  1.30000000E+00  8.00000000E-01
  1.50000000E+00  1.70000000E+00  1.70000000E+00  1.30000000E+00  1.70000000E+00
  1.70000000E+00  1.70000000E+00  1.70000000E+00  1.70000000E+00  1.70000000E+00
  1.30000000E+00  1.55000000E+00  1.70000000E+00  1.70000000E+00  1.70000000E+00
  1.70000000E+00  1.50000000E+00  1.70000000E+00  1.70000000E+00  1.50000000E+00
  1.70000000E+00  1.70000000E+00  1.50000000E+00  1.50000000E+00  1.70000000E+00
  1.50000000E+00  1.70000000E+00  1.50000000E+00  1.70000000E+00  1.50000000E+00
  1.30000000E+00  1.30000000E+00  1.30000000E+00  1.30000000E+00  1.30000000E+00
  1.30000000E+00  1.30000000E+00  1.30000000E+00  1.30000000E+00  1.30000000E+00
  1.30000000E+00  1.30000000E+00  1.30000000E+00  1.30000000E+00  1.30000000E+00
  1.30000000E+00  8.00000000E-01  1.30000000E+00  1.30000000E+00  1.30000000E+00
  8.00000000E-01  1.30000000E+00  8.00000000E-01  1.30000000E+00  8.00000000E-01
%FLAG SCREEN                                                                    
%FORMAT(5E16.8)                                                                 
  8.50000000E-01  7.20000000E-01  7.20000000E-01  8.50000000E-01  7.20000000E-01
  7.20000000E-01  7.20000000E-01  7.20000000E-01  7.20000000E-01  7.20000000E-01
  8.50000000E-01  7.90000000E-01  7.20000000E-01  7.20000000E-01  7.20000000E-01
  7.20000000E-01  8.50000000E-01  7.20000000E-01  7.20000000E-01  8.50000000E-01
  7.20000000E-01  7.20000000E-01  8.50000000E-01  8.50000000E-01  7.20000000E-01
  8.50000000E-01  7.20000000E-01  8.50000000E-01  7.20000000E-01  8.50000000E-01
  8.50000000E-01  8.50000000E-01  8.50000000E-01  8.50000000E-01  8.50000000E-01
  8.50000000E-01  8.50000000E-01  8.50000000E-01  8.50000000E-01  8.50000000E-01
  8.50000000E-01  8.50000000E-01  8.50000000E-01  8.50000000E-01  8.50000000E-01
  8.50000000E-01  8.50000000E-01  8.50000000E-01  8.50000000E-01  8.50000000E-01
  8.50000000E-01  8.50000000E-01  8.50000000E-01  8.50000000E-01  8.50000000E-01
  8.50000000E-01  7.20000000E-01  7.20000000E-01  8.50000000E-01  7.20000000E-01
  7.20000000E-01  7.20000000E-01  7.20000000E-01  7.20000000E-01  7.20000000E-01
  8.50000000E-01  7.90000000E-01  7.20000000E-01  7.20000000E-01  7.20000000E-01
  7.20000000E-01  8.50000000E-01  7.20000000E-01  7.20000000E-01  8.50000000E-01
  7.20000000E-01  7.20000000E-01  8.50000000E-01  8.50000000E-01  7.20000000E-01
  8.50000000E-01  7.20000000E-01  8.50000000E-01  7.20000000E-01  8.50000000E-01
  8.50000000E-01  8.50000000E-01  8.50000000E-01  8.50000000E-01  8.50000000E-01
  8.50000000E-01  8.50000000E-01  8.50000000E-01  8.50000000E-01  8.50000000E-01
  8.50000000E-01  8.50000000E-01  8.50000000E-01  8.50000000E-01  8.50000000E-01
  8.50000000E-01  8.50000000E-01  8.50000000E-01  8.50000000E-01  8.50000000E-01
  8.50000000E-01  8.50000000E-01  8.50000000E-01  8.50000000E-01  8.50000000E-01
%FLAG IPOL                                                                      
%FORMAT(1I8)                                                                    
       0
