GROningen MAchine for Chemical Simulation
20224
    1CPH     CC    1   4.413   3.535   3.713
    1CPH    HC1    2   4.482   3.558   3.632
    1CPH    HC2    3   4.455   3.488   3.802
    2MNF      O    4   3.956   3.940   3.803
    2MNF      C    5   4.039   3.857   3.835
    2MNF     C1    6   4.013   3.709   3.858
    2MNF      H    7   3.938   3.697   3.937
    2MNF     C2    8   4.149   3.650   3.906
    2MNF     C3    9   4.180   3.530   3.812
    2MNF     C4   10   4.282   3.562   3.703
    2MNF     C6   11   4.044   3.495   3.751
    2MNF     C7   12   3.972   3.630   3.732
    2MNF     C8   13   3.820   3.635   3.711
    2MNF     H1   14   4.140   3.616   4.010
    2MNF      N   15   4.174   3.880   3.858
    2MNF    C10   16   4.231   4.017   3.863
    2MNF    C11   17   4.254   4.086   3.727
    2MNF    C12   18   4.286   3.997   3.604
    2MNF    C13   19   4.402   3.896   3.619
    2MNF     O1   20   4.514   3.960   3.682
    2MNF    C14   21   4.614   3.871   3.735
    2MNF    C15   22   4.674   3.938   3.861
    2MNF     O2   23   4.576   3.942   3.965
    2MNF    C16   24   4.802   3.864   3.911
    2MNF    C17   25   4.877   3.940   4.022
    2MNF     O3   26   4.800   3.943   4.142
    2MNF     O4   27   4.894   3.848   3.801
    2MNF    C18   28   4.843   3.771   3.691
    2MNF     O5   29   4.943   3.760   3.592
    2MNF    C19   30   4.724   3.848   3.629
    2MNF     O6   31   4.674   3.774   3.517
    2MNF    C20   32   4.246   3.768   3.902
    2MNF     O7   33   4.364   3.767   3.934
    2MNF     H2   34   4.218   3.446   3.872
    2MNF     H3   35   4.242   3.609   3.613
    2MNF     H6   36   3.989   3.433   3.823
    2MNF     H7   37   4.054   3.439   3.657
    2MNF     H8   38   4.018   3.680   3.646
    2MNF     H9   39   3.784   3.737   3.703
    2MNF    H12   40   4.327   4.012   3.915
    2MNF    H13   41   4.165   4.080   3.925
    2MNF    H14   42   4.163   4.142   3.702
    2MNF    H15   43   4.333   4.161   3.739
    2MNF    H16   44   4.196   3.941   3.576
    2MNF    H17   45   4.309   4.062   3.519
    2MNF    H18   46   4.428   3.856   3.521
    2MNF    H19   47   4.368   3.812   3.680
    2MNF    H20   48   4.571   3.774   3.764
    2MNF    H21   49   4.704   4.041   3.834
    2MNF    H22   50   4.508   3.873   3.948
    2MNF    H23   51   4.774   3.765   3.950
    2MNF    H24   52   4.973   3.890   4.041
    2MNF    H25   53   4.899   4.042   3.987
    2MNF    H26   54   4.707   3.960   4.115
    2MNF    H27   55   4.811   3.672   3.725
    2MNF    H28   56   4.891   3.739   3.512
    2MNF    H29   57   4.762   3.946   3.597
    2MNF    H30   58   4.602   3.828   3.479
    3MON      O   59   3.370   3.313   3.974
    3MON      C   60   3.487   3.334   3.946
    3MON     C1   61   3.567   3.265   3.836
    3MON      H   62   3.570   3.156   3.855
    3MON     C2   63   3.710   3.325   3.846
    3MON     C3   64   3.743   3.386   3.707
    3MON     C4   65   3.727   3.537   3.702
    3MON     C6   66   3.642   3.320   3.612
    3MON     C7   67   3.515   3.297   3.695
    3MON     C8   68   3.419   3.194   3.639
    3MON     H1   69   3.782   3.247   3.873
    3MON      N   70   3.571   3.427   4.007
    3MON    C10   71   3.526   3.511   4.120
    3MON    C11   72   3.443   3.635   4.079
    3MON    C12   73   3.501   3.725   3.966
    3MON    C13   74   3.643   3.783   3.989
    3MON     O1   75   3.654   3.829   4.124
    3MON    C14   76   3.780   3.890   4.158
    3MON    C15   77   3.857   3.798   4.256
    3MON     O2   78   3.907   3.683   4.187
    3MON    C16   79   3.976   3.873   4.323
    3MON    C17   80   4.042   3.793   4.438
    3MON     O3   81   4.106   3.676   4.386
    3MON     O4   82   3.928   3.997   4.380
    3MON    C18   83   3.872   4.089   4.285
    3MON     O5   84   3.833   4.207   4.352
    3MON    C19   85   3.746   4.025   4.225
    3MON     O6   86   3.688   4.113   4.128
    3MON    C20   87   3.702   3.424   3.963
    3MON     O7   88   3.796   3.486   4.012
    3MON     H2   89   3.843   3.355   3.675
    3MON     H3   90   3.624   3.569   3.688
    3MON     H6   91   3.682   3.223   3.578
    3MON     H7   92   3.623   3.381   3.523
    3MON     H8   93   3.461   3.393   3.702
    3MON     H9   94   3.344   3.159   3.710
    3MON    H12   95   3.615   3.545   4.176
    3MON    H13   96   3.467   3.450   4.188
    3MON    H14   97   3.344   3.601   4.046
    3MON    H15   98   3.425   3.696   4.168
    3MON    H16   99   3.501   3.669   3.872
    3MON    H17  100   3.432   3.809   3.951
    3MON    H18  101   3.659   3.866   3.918
    3MON    H19  102   3.717   3.707   3.968
    3MON    H20  103   3.842   3.909   4.069
    3MON    H21  104   3.787   3.768   4.336
    3MON    H22  105   3.833   3.637   4.142
    3MON    H23  106   4.053   3.895   4.248
    3MON    H24  107   4.115   3.857   4.489
    3MON    H25  108   3.965   3.765   4.512
    3MON    H26  109   4.049   3.643   4.314
    3MON    H27  110   3.946   4.112   4.207
    3MON    H28  111   3.768   4.245   4.290
    3MON    H29  112   3.676   4.006   4.307
    3MON    H30  113   3.619   4.062   4.082
    4MON      O  114   3.250   3.125   2.993
    4MON      C  115   3.250   3.140   3.113
    4MON     C1  116   3.254   3.031   3.219
    4MON      H  117   3.181   2.952   3.197
    4MON     C2  118   3.222   3.102   3.354
    4MON     C3  119   3.321   3.045   3.460
    4MON     C4  120   3.419   3.147   3.513
    4MON     C6  121   3.397   2.932   3.387
    4MON     C7  122   3.395   2.973   3.239
    4MON     C8  123   3.434   2.867   3.137
    4MON     H1  124   3.118   3.083   3.382
    4MON      N  125   3.250   3.262   3.181
    4MON    C10  126   3.251   3.392   3.110
    4MON    C11  127   3.386   3.427   3.042
    4MON    C12  128   3.515   3.393   3.120
    4MON    C13  129   3.529   3.454   3.261
    4MON     O1  130   3.502   3.595   3.253
    4MON    C14  131   3.526   3.670   3.374
    4MON    C15  132   3.398   3.677   3.460
    4MON     O2  133   3.373   3.551   3.522
    4MON    C16  134   3.411   3.785   3.571
    4MON    C17  135   3.280   3.810   3.649
    4MON     O3  136   3.253   3.700   3.736
    4MON     O4  137   3.450   3.911   3.511
    4MON    C18  138   3.577   3.909   3.446
    4MON     O5  139   3.605   4.038   3.395
    4MON    C19  140   3.569   3.811   3.327
    4MON     O6  141   3.696   3.802   3.262
    4MON    C20  142   3.235   3.252   3.319
    4MON     O7  143   3.228   3.346   3.397
    4MON     H2  144   3.264   3.002   3.543
    4MON     H3  145   3.492   3.183   3.441
    4MON     H6  146   3.342   2.837   3.401
    4MON     H7  147   3.499   2.919   3.425
    4MON     H8  148   3.468   3.055   3.228
    4MON     H9  149   3.455   2.907   3.038
    4MON    H12  150   3.228   3.471   3.182
    4MON    H13  151   3.171   3.392   3.035
    4MON    H14  152   3.390   3.373   2.946
    4MON    H15  153   3.385   3.533   3.016
    4MON    H16  154   3.525   3.284   3.128
    4MON    H17  155   3.601   3.425   3.060
    4MON    H18  156   3.632   3.437   3.296
    4MON    H19  157   3.461   3.405   3.330
    4MON    H20  158   3.608   3.627   3.433
    4MON    H21  159   3.313   3.706   3.395
    4MON    H22  160   3.325   3.491   3.460
    4MON    H23  161   3.488   3.755   3.643
    4MON    H24  162   3.291   3.902   3.709
    4MON    H25  163   3.198   3.826   3.579
    4MON    H26  164   3.267   3.619   3.683
    4MON    H27  165   3.656   3.878   3.516
    4MON    H28  166   3.674   4.020   3.329
    4MON    H29  167   3.493   3.850   3.258
    4MON    H30  168   3.687   3.733   3.194
    5MON      O  169   3.414   2.255   3.294
    5MON      C  170   3.477   2.349   3.248
    5MON     C1  171   3.470   2.399   3.104
    5MON      H  172   3.503   2.319   3.037
    5MON     C2  173   3.572   2.516   3.098
    5MON     C3  174   3.493   2.640   3.049
    5MON     C4  175   3.447   2.735   3.158
    5MON     C6  176   3.372   2.579   2.977
    5MON     C7  177   3.333   2.454   3.058
    5MON     C8  178   3.250   2.344   2.992
    5MON     H1  179   3.652   2.491   3.027
    5MON      N  180   3.572   2.425   3.316
    5MON    C10  181   3.633   2.378   3.442
    5MON    C11  182   3.552   2.403   3.571
    5MON    C12  183   3.478   2.538   3.585
    5MON    C13  184   3.559   2.666   3.556
    5MON     O1  185   3.692   2.654   3.611
    5MON    C14  186   3.787   2.752   3.561
    5MON    C15  187   3.927   2.686   3.555
    5MON     O2  188   3.929   2.585   3.454
    5MON    C16  189   4.039   2.790   3.527
    5MON    C17  190   4.181   2.732   3.545
    5MON     O3  191   4.211   2.641   3.438
    5MON     O4  192   4.027   2.901   3.619
    5MON    C18  193   3.902   2.970   3.612
    5MON     O5  194   3.900   3.078   3.703
    5MON    C19  195   3.792   2.872   3.658
    5MON     O6  196   3.667   2.941   3.666
    5MON    C20  197   3.632   2.525   3.238
    5MON     O7  198   3.719   2.603   3.274
    5MON     H2  199   3.554   2.696   2.976
    5MON     H3  200   3.426   2.690   3.255
    5MON     H6  201   3.406   2.550   2.877
    5MON     H7  202   3.289   2.650   2.968
    5MON     H8  203   3.279   2.488   3.148
    5MON     H9  204   3.235   2.259   3.058
    5MON    H12  205   3.731   2.426   3.453
    5MON    H13  206   3.653   2.270   3.433
    5MON    H14  207   3.477   2.323   3.580
    5MON    H15  208   3.619   2.389   3.657
    5MON    H16  209   3.390   2.538   3.519
    5MON    H17  210   3.439   2.545   3.688
    5MON    H18  211   3.506   2.752   3.598
    5MON    H19  212   3.564   2.680   3.447
    5MON    H20  213   3.760   2.787   3.461
    5MON    H21  214   3.947   2.640   3.653
    5MON    H22  215   3.857   2.601   3.389
    5MON    H23  216   4.030   2.827   3.424
    5MON    H24  217   4.254   2.814   3.545
    5MON    H25  218   4.189   2.681   3.642
    5MON    H26  219   4.132   2.585   3.426
    5MON    H27  220   3.883   3.005   3.510
    5MON    H28  221   3.805   3.078   3.724
    5MON    H29  222   3.821   2.835   3.758
    5MON    H30  223   3.601   2.874   3.693
    6MON      O  224   3.281   2.127   2.416
    6MON      C  225   3.305   2.208   2.504
    6MON     C1  226   3.234   2.342   2.525
    6MON      H  227   3.248   2.404   2.436
    6MON     C2  228   3.307   2.407   2.646
    6MON     C3  229   3.198   2.435   2.754
    6MON     C4  230   3.196   2.334   2.868
    6MON     C6  231   3.067   2.433   2.674
    6MON     C7  232   3.084   2.331   2.560
    6MON     C8  233   2.996   2.344   2.436
    6MON     H1  234   3.354   2.501   2.615
    6MON      N  235   3.404   2.197   2.600
    6MON    C10  236   3.505   2.089   2.598
    6MON    C11  237   3.454   1.950   2.643
    6MON    C12  238   3.352   1.947   2.760
    6MON    C13  239   3.396   2.015   2.891
    6MON     O1  240   3.527   1.970   2.928
    6MON    C14  241   3.571   2.020   3.056
    6MON    C15  242   3.712   2.082   3.040
    6MON     O2  243   3.706   2.197   2.956
    6MON    C16  244   3.767   2.121   3.181
    6MON    C17  245   3.910   2.178   3.178
    6MON     O3  246   3.908   2.310   3.124
    6MON     O4  247   3.766   2.005   3.266
    6MON    C18  248   3.635   1.950   3.290
    6MON     O5  249   3.646   1.838   3.375
    6MON    C19  250   3.577   1.902   3.155
    6MON     O6  251   3.447   1.846   3.174
    6MON    C20  252   3.415   2.307   2.686
    6MON     O7  253   3.499   2.320   2.774
    6MON     H2  254   3.207   2.537   2.792
    6MON     H3  255   3.143   2.242   2.844
    6MON     H6  256   3.057   2.534   2.632
    6MON     H7  257   2.979   2.412   2.736
    6MON     H8  258   3.068   2.231   2.603
    6MON     H9  259   3.019   2.267   2.362
    6MON    H12  260   3.589   2.118   2.663
    6MON    H13  261   3.546   2.081   2.496
    6MON    H14  262   3.406   1.902   2.557
    6MON    H15  263   3.540   1.887   2.668
    6MON    H16  264   3.258   1.992   2.727
    6MON    H17  265   3.329   1.842   2.782
    6MON    H18  266   3.323   1.990   2.970
    6MON    H19  267   3.395   2.123   2.879
    6MON    H20  268   3.503   2.095   3.096
    6MON    H21  269   3.779   2.007   2.997
    6MON    H22  270   3.646   2.179   2.881
    6MON    H23  271   3.702   2.198   3.224
    6MON    H24  272   3.950   2.180   3.281
    6MON    H25  273   3.975   2.112   3.119
    6MON    H26  274   3.862   2.304   3.038
    6MON    H27  275   3.569   2.025   3.335
    6MON    H28  276   3.563   1.790   3.356
    6MON    H29  277   3.646   1.826   3.115
    6MON    H30  278   3.413   1.825   3.085
    7MON      O  279   2.838   2.836   2.134
    7MON      C  280   2.887   2.786   2.234
    7MON     C1  281   2.820   2.773   2.371
    7MON      H  282   2.814   2.872   2.415
    7MON     C2  283   2.916   2.684   2.455
    7MON     C3  284   2.842   2.549   2.481
    7MON     C4  285   2.900   2.433   2.402
    7MON     C6  286   2.693   2.574   2.449
    7MON     C7  287   2.682   2.704   2.367
    7MON     C8  288   2.571   2.797   2.412
    7MON     H1  289   2.940   2.735   2.549
    7MON      N  290   3.014   2.732   2.245
    7MON    C10  291   3.120   2.758   2.144
    7MON    C11  292   3.106   2.678   2.013
    7MON    C12  293   3.058   2.531   2.025
    7MON    C13  294   3.141   2.439   2.116
    7MON     O1  295   3.279   2.444   2.076
    7MON    C14  296   3.361   2.348   2.145
    7MON    C15  297   3.482   2.420   2.209
    7MON     O2  298   3.436   2.511   2.309
    7MON    C16  299   3.579   2.315   2.271
    7MON    C17  300   3.707   2.376   2.331
    7MON     O3  301   3.675   2.444   2.452
    7MON     O4  302   3.618   2.222   2.168
    7MON    C18  303   3.509   2.146   2.112
    7MON     O5  304   3.559   2.058   2.013
    7MON    C19  305   3.411   2.244   2.043
    7MON     O6  306   3.301   2.172   1.988
    7MON    C20  307   3.043   2.677   2.370
    7MON     O7  308   3.153   2.637   2.407
    7MON     H2  309   2.845   2.526   2.588
    7MON     H3  310   2.853   2.420   2.304
    7MON     H6  311   2.636   2.583   2.542
    7MON     H7  312   2.649   2.489   2.394
    7MON     H8  313   2.662   2.675   2.263
    7MON     H9  314   2.500   2.820   2.333
    7MON    H12  315   3.217   2.734   2.189
    7MON    H13  316   3.120   2.865   2.121
    7MON    H14  317   3.034   2.730   1.949
    7MON    H15  318   3.202   2.680   1.960
    7MON    H16  319   2.954   2.530   2.061
    7MON    H17  320   3.055   2.487   1.925
    7MON    H18  321   3.102   2.337   2.109
    7MON    H19  322   3.131   2.470   2.221
    7MON    H20  323   3.306   2.295   2.224
    7MON    H21  324   3.536   2.475   2.130
    7MON    H22  325   3.363   2.563   2.271
    7MON    H23  326   3.527   2.261   2.350
    7MON    H24  327   3.779   2.296   2.350
    7MON    H25  328   3.752   2.445   2.258
    7MON    H26  329   3.600   2.503   2.432
    7MON    H27  330   3.457   2.089   2.191
    7MON    H28  331   3.479   2.037   1.962
    7MON    H29  332   3.467   2.296   1.964
    7MON    H30  333   3.239   2.239   1.954
    8MON      O  334   2.422   3.219   2.719
    8MON      C  335   2.525   3.155   2.704
    8MON     C1  336   2.576   3.042   2.794
    8MON      H  337   2.617   3.086   2.886
    8MON     C2  338   2.691   2.979   2.712
    8MON     C3  339   2.636   2.843   2.660
    8MON     C4  340   2.553   2.857   2.532
    8MON     C6  341   2.543   2.800   2.776
    8MON     C7  342   2.473   2.931   2.822
    8MON     C8  343   2.428   2.933   2.967
    8MON     H1  344   2.779   2.963   2.776
    8MON      N  345   2.618   3.173   2.602
    8MON    C10  346   2.621   3.295   2.518
    8MON    C11  347   2.525   3.295   2.397
    8MON    C12  348   2.521   3.167   2.309
    8MON    C13  349   2.656   3.116   2.252
    8MON     O1  350   2.734   3.227   2.209
    8MON    C14  351   2.851   3.193   2.131
    8MON    C15  352   2.979   3.188   2.220
    8MON     O2  353   2.974   3.077   2.310
    8MON    C16  354   3.105   3.177   2.130
    8MON    C17  355   3.238   3.182   2.209
    8MON     O3  356   3.255   3.060   2.283
    8MON     O4  357   3.106   3.287   2.037
    8MON    C18  358   2.996   3.288   1.945
    8MON     O5  359   3.008   3.399   1.858
    8MON    C19  360   2.865   3.304   2.025
    8MON     O6  361   2.753   3.299   1.936
    8MON    C20  362   2.723   3.082   2.604
    8MON     O7  363   2.826   3.088   2.539
    8MON     H2  364   2.718   2.772   2.648
    8MON     H3  365   2.467   2.923   2.542
    8MON     H6  366   2.604   2.759   2.858
    8MON     H7  367   2.471   2.723   2.745
    8MON     H8  368   2.386   2.949   2.758
    8MON     H9  369   2.420   3.032   3.010
    8MON    H12  370   2.723   3.309   2.480
    8MON    H13  371   2.598   3.381   2.581
    8MON    H14  372   2.423   3.313   2.434
    8MON    H15  373   2.549   3.381   2.333
    8MON    H16  374   2.474   3.086   2.366
    8MON    H17  375   2.454   3.186   2.225
    8MON    H18  376   2.635   3.047   2.169
    8MON    H19  377   2.709   3.058   2.328
    8MON    H20  378   2.839   3.096   2.079
    8MON    H21  379   2.985   3.283   2.276
    8MON    H22  380   2.910   3.098   2.382
    8MON    H23  381   3.102   3.083   2.074
    8MON    H24  382   3.321   3.195   2.138
    8MON    H25  383   3.238   3.268   2.276
    8MON    H26  384   3.169   3.042   2.325
    8MON    H27  385   2.995   3.194   1.887
    8MON    H28  386   2.917   3.409   1.825
    8MON    H29  387   2.870   3.401   2.076
    8MON    H30  388   2.674   3.291   1.993
    9MON      O  389   1.998   2.549   3.183
    9MON      C  390   2.058   2.655   3.175
    9MON     C1  391   2.165   2.705   3.272
    9MON      H  392   2.122   2.715   3.373
    9MON     C2  393   2.207   2.843   3.216
    9MON     C3  394   2.360   2.838   3.189
    9MON     C4  395   2.397   2.826   3.042
    9MON     C6  396   2.410   2.717   3.268
    9MON     C7  397   2.293   2.617   3.274
    9MON     C8  398   2.301   2.522   3.392
    9MON     H1  399   2.184   2.922   3.290
    9MON      N  400   2.040   2.752   3.078
    9MON    C10  401   1.925   2.750   2.984
    9MON    C11  402   1.940   2.655   2.863
    9MON    C12  403   2.078   2.649   2.793
    9MON    C13  404   2.142   2.784   2.753
    9MON     O1  405   2.041   2.872   2.700
    9MON    C14  406   2.088   3.006   2.671
    9MON    C15  407   1.976   3.107   2.708
    9MON     O2  408   1.954   3.106   2.850
    9MON    C16  409   2.014   3.250   2.661
    9MON    C17  410   1.899   3.352   2.678
    9MON     O3  411   1.873   3.374   2.817
    9MON     O4  412   2.045   3.247   2.520
    9MON    C18  413   2.155   3.161   2.485
    9MON     O5  414   2.176   3.168   2.345
    9MON    C19  415   2.116   3.017   2.519
    9MON     O6  416   2.219   2.926   2.478
    9MON    C20  417   2.119   2.866   3.094
    9MON     O7  418   2.115   2.968   3.027
    9MON     H2  419   2.406   2.929   3.229
    9MON     H3  420   2.402   2.725   3.002
    9MON     H6  421   2.438   2.750   3.368
    9MON     H7  422   2.498   2.671   3.221
    9MON     H8  423   2.295   2.558   3.182
    9MON     H9  424   2.280   2.418   3.367
    9MON    H12  425   1.909   2.851   2.946
    9MON    H13  426   1.835   2.722   3.040
    9MON    H14  427   1.916   2.553   2.896
    9MON    H15  428   1.863   2.681   2.789
    9MON    H16  429   2.149   2.596   2.858
    9MON    H17  430   2.068   2.587   2.703
    9MON    H18  431   2.222   2.765   2.680
    9MON    H19  432   2.189   2.828   2.841
    9MON    H20  433   2.178   3.031   2.727
    9MON    H21  434   1.884   3.077   2.656
    9MON    H22  435   2.023   3.052   2.894
    9MON    H23  436   2.101   3.286   2.717
    9MON    H24  437   1.928   3.447   2.630
    9MON    H25  438   1.809   3.315   2.627
    9MON    H26  439   1.880   3.287   2.860
    9MON    H27  440   2.246   3.191   2.538
    9MON    H28  441   2.215   3.080   2.326
    9MON    H29  442   2.022   2.995   2.465
    9MON    H30  443   2.184   2.837   2.498
   10MON      O  444   2.700   2.641   3.878
   10MON      C  445   2.644   2.577   3.791
   10MON     C1  446   2.517   2.494   3.809
   10MON      H  447   2.533   2.418   3.887
   10MON     C2  448   2.494   2.425   3.672
   10MON     C3  449   2.347   2.453   3.631
   10MON     C4  450   2.334   2.555   3.519
   10MON     C6  451   2.280   2.505   3.760
   10MON     C7  452   2.391   2.578   3.838
   10MON     C8  453   2.365   2.595   3.987
   10MON     H1  454   2.510   2.316   3.683
   10MON      N  455   2.685   2.564   3.659
   10MON    C10  456   2.824   2.596   3.618
   10MON    C11  457   2.855   2.747   3.600
   10MON    C12  458   2.752   2.829   3.521
   10MON    C13  459   2.718   2.778   3.379
   10MON     O1  460   2.838   2.763   3.303
   10MON    C14  461   2.819   2.715   3.168
   10MON    C15  462   2.823   2.559   3.165
   10MON     O2  463   2.696   2.507   3.205
   10MON    C16  464   2.852   2.503   3.023
   10MON    C17  465   2.886   2.352   3.025
   10MON     O3  466   2.767   2.276   3.046
   10MON     O4  467   2.963   2.573   2.963
   10MON    C18  468   2.942   2.713   2.945
   10MON     O5  469   3.052   2.768   2.876
   10MON    C19  470   2.934   2.777   3.085
   10MON     O6  471   2.911   2.918   3.073
   10MON    C20  472   2.604   2.481   3.582
   10MON     O7  473   2.625   2.451   3.465
   10MON     H2  474   2.299   2.359   3.600
   10MON     H3  475   2.355   2.658   3.546
   10MON     H6  476   2.244   2.418   3.818
   10MON     H7  477   2.193   2.568   3.739
   10MON     H8  478   2.406   2.677   3.793
   10MON     H9  479   2.454   2.618   4.045
   10MON    H12  480   2.846   2.545   3.524
   10MON    H13  481   2.893   2.555   3.694
   10MON    H14  482   2.865   2.792   3.700
   10MON    H15  483   2.954   2.757   3.553
   10MON    H16  484   2.658   2.833   3.578
   10MON    H17  485   2.787   2.933   3.513
   10MON    H18  486   2.651   2.850   3.331
   10MON    H19  487   2.665   2.683   3.388
   10MON    H20  488   2.724   2.750   3.126
   10MON    H21  489   2.903   2.525   3.232
   10MON    H22  490   2.690   2.500   3.303
   10MON    H23  491   2.763   2.517   2.959
   10MON    H24  492   2.930   2.324   2.929
   10MON    H25  493   2.960   2.332   3.103
   10MON    H26  494   2.715   2.323   3.115
   10MON    H27  495   2.849   2.732   2.889
   10MON    H28  496   3.055   2.862   2.904
   10MON    H29  497   3.029   2.756   3.136
   10MON    H30  498   2.885   2.949   3.162
   11MNL      O  499   1.817   2.797   4.147
   11MNL      C  500   1.938   2.792   4.165
   11MNL     C1  501   2.011   2.701   4.264
   11MNL      H  502   1.981   2.727   4.366
   11MNL     C2  503   2.161   2.731   4.242
   11MNL     C3  504   2.228   2.598   4.199
   11MNL     C4  505   2.246   2.584   4.049
   11MNL     C6  506   2.132   2.490   4.252
   11MNL     C7  507   1.990   2.550   4.237
   11MNL     C8  508   1.882   2.490   4.324
   11MNL     H1  509   2.205   2.767   4.336
   11MNL      N  510   2.034   2.868   4.100
   11MNL    C10  511   1.997   2.986   4.017
   11MNL    C11  512   1.948   2.953   3.874
   11MNL    C12  513   2.027   2.844   3.796
   11MNL    C13  514   2.180   2.862   3.786
   11MNL     O1  515   2.212   3.001   3.772
   11MNL    C14  516   2.352   3.028   3.747
   11MNL    C15  517   2.396   3.147   3.836
   11MNL     O2  518   2.415   3.100   3.970
   11MNL    C16  519   2.530   3.211   3.788
   11MNL    C17  520   2.557   3.348   3.854
   11MNL     O3  521   2.581   3.332   3.993
   11MNL     O4  522   2.529   3.231   3.645
   11MNL    C18  523   2.508   3.112   3.569
   11MNL     O5  524   2.517   3.141   3.430
   11MNL    C19  525   2.365   3.065   3.598
   11MNL     O6  526   2.329   2.953   3.516
   11MNL    C20  527   2.165   2.844   4.139
   11MNL     O7  528   2.264   2.904   4.101
   11MNL     H2  529   2.326   2.588   4.249
   11MNL     H3  530   2.155   2.562   3.993
   11MNL     H6  531   2.154   2.473   4.359
   11MNL     H7  532   2.142   2.394   4.200
   11MNL     H8  533   1.959   2.538   4.132
   11MNL     H9  534   1.786   2.541   4.318
   11MNL    H12  535   2.084   3.052   4.010
   11MNL    H13  536   1.919   3.042   4.070
   11MNL    H14  537   1.844   2.920   3.881
   11MNL    H15  538   1.947   3.046   3.816
   11MNL    H16  539   2.006   2.746   3.841
   11MNL    H17  540   1.986   2.840   3.694
   11MNL    H18  541   2.216   2.803   3.701
   11MNL    H19  542   2.227   2.821   3.876
   11MNL    H20  543   2.416   2.941   3.770
   11MNL    H21  544   2.318   3.224   3.833
   11MNL    H22  545   2.343   3.037   3.995
   11MNL    H23  546   2.613   3.144   3.814
   11MNL    H24  547   2.644   3.395   3.806
   11MNL    H25  548   2.471   3.415   3.837
   11MNL    H26  549   2.525   3.257   4.023
   11MNL    H27  550   2.582   3.036   3.597
   11MNL    H28  551   2.444   3.087   3.395
   11MNL    H29  552   2.298   3.150   3.578
   11MNL    H30  553   2.241   2.927   3.549
   12CPT     CC  554   1.894   2.384   4.405
   12CPT    HC1  555   1.986   2.327   4.416
   12CPT    HC2  556   1.809   2.348   4.464
   13WAT      O  557   6.471   5.759   5.817
   13WAT     H1  558   6.463   5.667   5.790
   13WAT     H2  559   6.430   5.808   5.747
   14WAT      O  560   5.527   5.464   5.472
   14WAT     H1  561   5.438   5.498   5.461
   14WAT     H2  562   5.555   5.444   5.382
   15WAT      O  563   5.323   5.724   6.060
   15WAT     H1  564   5.380   5.647   6.060
   15WAT     H2  565   5.323   5.754   5.969
   16WAT      O  566   6.331   5.485   6.029
   16WAT     H1  567   6.369   5.397   6.018
   16WAT     H2  568   6.321   5.518   5.940
   17WAT      O  569   5.744   5.322   5.575
   17WAT     H1  570   5.755   5.412   5.606
   17WAT     H2  571   5.653   5.317   5.546
   18WAT      O  572   5.928   5.619   6.008
   18WAT     H1  573   5.979   5.669   6.072
   18WAT     H2  574   5.981   5.541   5.991
   19WAT      O  575   6.093   5.003   5.868
   19WAT     H1  576   6.124   4.947   5.796
   19WAT     H2  577   6.000   5.016   5.850
   20WAT      O  578   6.331   5.436   5.241
   20WAT     H1  579   6.237   5.452   5.250
   20WAT     H2  580   6.362   5.508   5.187
   21WAT      O  581   5.893   5.862   5.820
   21WAT     H1  582   5.852   5.791   5.770
   21WAT     H2  583   5.901   5.827   5.909
   22WAT      O  584   5.563   5.751   5.570
   22WAT     H1  585   5.551   5.824   5.509
   22WAT     H2  586   5.532   5.674   5.522
   23WAT      O  587   5.809   5.086   5.908
   23WAT     H1  588   5.765   5.164   5.875
   23WAT     H2  589   5.865   5.118   5.979
   24WAT      O  590   6.121   5.048   5.396
   24WAT     H1  591   6.058   5.047   5.469
   24WAT     H2  592   6.112   4.961   5.357
   25WAT      O  593   6.013   5.140   6.094
   25WAT     H1  594   6.043   5.231   6.086
   25WAT     H2  595   6.068   5.091   6.033
   26WAT      O  596   5.788   5.598   5.681
   26WAT     H1  597   5.766   5.576   5.771
   26WAT     H2  598   5.710   5.641   5.646
   27WAT      O  599   6.511   5.599   5.541
   27WAT     H1  600   6.451   5.671   5.522
   27WAT     H2  601   6.566   5.592   5.463
   28WAT      O  602   6.372   5.462   5.744
   28WAT     H1  603   6.411   5.494   5.663
   28WAT     H2  604   6.408   5.374   5.755
   29WAT      O  605   5.276   5.121   5.966
   29WAT     H1  606   5.247   5.178   6.037
   29WAT     H2  607   5.350   5.073   6.002
   30WAT      O  608   5.294   5.515   5.087
   30WAT     H1  609   5.286   5.610   5.101
   30WAT     H2  610   5.259   5.501   4.999
   31WAT      O  611   6.074   5.389   5.994
   31WAT     H1  612   6.075   5.345   5.909
   31WAT     H2  613   6.164   5.421   6.005
   32WAT      O  614   5.659   5.377   5.890
   32WAT     H1  615   5.625   5.425   5.966
   32WAT     H2  616   5.583   5.332   5.854
   33WAT      O  617   6.080   5.489   5.293
   33WAT     H1  618   6.093   5.485   5.388
   33WAT     H2  619   6.042   5.575   5.277
   34WAT      O  620   5.982   5.720   5.233
   34WAT     H1  621   5.925   5.675   5.170
   34WAT     H2  622   6.053   5.756   5.179
   35WAT      O  623   5.391   5.269   5.782
   35WAT     H1  624   5.362   5.233   5.865
   35WAT     H2  625   5.385   5.196   5.720
   36WAT      O  626   6.358   5.159   5.454
   36WAT     H1  627   6.277   5.109   5.446
   36WAT     H2  628   6.339   5.243   5.412
   37WAT      O  629   5.340   5.783   5.177
   37WAT     H1  630   5.427   5.811   5.206
   37WAT     H2  631   5.291   5.864   5.166
   38WAT      O  632   5.647   4.956   5.637
   38WAT     H1  633   5.634   4.955   5.732
   38WAT     H2  634   5.564   4.990   5.602
   39WAT      O  635   6.029   5.505   5.580
   39WAT     H1  636   5.958   5.551   5.624
   39WAT     H2  637   6.058   5.439   5.644
   40WAT      O  638   6.432   5.177   5.724
   40WAT     H1  639   6.420   5.179   5.629
   40WAT     H2  640   6.527   5.182   5.736
   41WAT      O  641   5.850   5.335   5.318
   41WAT     H1  642   5.935   5.379   5.311
   41WAT     H2  643   5.813   5.367   5.401
   42WAT      O  644   5.609   5.704   5.234
   42WAT     H1  645   5.617   5.609   5.245
   42WAT     H2  646   5.698   5.737   5.244
   43WAT      O  647   5.832   5.568   5.057
   43WAT     H1  648   5.812   5.481   5.093
   43WAT     H2  649   5.815   5.559   4.963
   44WAT      O  650   6.580   5.049   5.310
   44WAT     H1  651   6.608   4.964   5.346
   44WAT     H2  652   6.503   5.072   5.361
   45WAT      O  653   5.712   5.278   5.056
   45WAT     H1  654   5.742   5.278   4.965
   45WAT     H2  655   5.786   5.243   5.106
   46WAT      O  656   6.034   5.172   5.155
   46WAT     H1  657   5.999   5.104   5.097
   46WAT     H2  658   6.054   5.126   5.236
   47WAT      O  659   5.368   5.825   5.794
   47WAT     H1  660   5.303   5.798   5.730
   47WAT     H2  661   5.452   5.814   5.749
   48WAT      O  662   5.289   5.546   5.388
   48WAT     H1  663   5.199   5.572   5.371
   48WAT     H2  664   5.338   5.573   5.310
   49WAT      O  665   5.544   5.452   5.179
   49WAT     H1  666   5.615   5.409   5.131
   49WAT     H2  667   5.472   5.458   5.116
   50WAT      O  668   5.509   5.057   5.083
   50WAT     H1  669   5.581   5.111   5.115
   50WAT     H2  670   5.536   5.030   4.996
   51WAT      O  671   5.451   5.061   5.443
   51WAT     H1  672   5.527   5.072   5.385
   51WAT     H2  673   5.405   5.145   5.438
   52WAT      O  674   6.105   5.272   5.742
   52WAT     H1  675   6.024   5.235   5.708
   52WAT     H2  676   6.156   5.197   5.772
   53WAT      O  677   6.555   4.939   5.866
   53WAT     H1  678   6.616   4.996   5.913
   53WAT     H2  679   6.481   4.995   5.843
   54WAT      O  680   5.688   5.114   5.297
   54WAT     H1  681   5.741   5.035   5.284
   54WAT     H2  682   5.752   5.181   5.320
   55WAT      O  683   5.908   5.087   5.602
   55WAT     H1  684   5.845   5.017   5.619
   55WAT     H2  685   5.854   5.163   5.581
   56WAT      O  686   6.471   5.759   3.940
   56WAT     H1  687   6.463   5.667   3.913
   56WAT     H2  688   6.430   5.808   3.869
   57WAT      O  689   5.527   5.464   3.594
   57WAT     H1  690   5.438   5.498   3.584
   57WAT     H2  691   5.555   5.444   3.505
   58WAT      O  692   5.323   5.724   4.183
   58WAT     H1  693   5.380   5.647   4.183
   58WAT     H2  694   5.323   5.754   4.092
   59WAT      O  695   5.447   5.264   4.361
   59WAT     H1  696   5.429   5.175   4.389
   59WAT     H2  697   5.407   5.319   4.429
   60WAT      O  698   6.331   5.485   4.151
   60WAT     H1  699   6.369   5.397   4.140
   60WAT     H2  700   6.321   5.518   4.062
   61WAT      O  701   5.744   5.322   3.698
   61WAT     H1  702   5.755   5.412   3.728
   61WAT     H2  703   5.653   5.317   3.669
   62WAT      O  704   5.509   5.514   4.222
   62WAT     H1  705   5.577   5.540   4.284
   62WAT     H2  706   5.478   5.430   4.255
   63WAT      O  707   5.928   5.619   4.131
   63WAT     H1  708   5.979   5.669   4.195
   63WAT     H2  709   5.981   5.541   4.113
   64WAT      O  710   5.757   5.083   4.557
   64WAT     H1  711   5.757   5.134   4.477
   64WAT     H2  712   5.674   5.035   4.555
   65WAT      O  713   5.725   5.254   4.358
   65WAT     H1  714   5.759   5.338   4.329
   65WAT     H2  715   5.631   5.269   4.370
   66WAT      O  716   6.093   5.003   3.991
   66WAT     H1  717   6.124   4.947   3.919
   66WAT     H2  718   6.000   5.016   3.972
   67WAT      O  719   6.331   5.436   3.364
   67WAT     H1  720   6.237   5.452   3.372
   67WAT     H2  721   6.362   5.508   3.309
   68WAT      O  722   5.893   5.862   3.942
   68WAT     H1  723   5.852   5.791   3.893
   68WAT     H2  724   5.901   5.827   4.031
   69WAT      O  725   5.764   5.539   4.320
   69WAT     H1  726   5.819   5.550   4.243
   69WAT     H2  727   5.815   5.577   4.392
   70WAT      O  728   5.563   5.751   3.692
   70WAT     H1  729   5.551   5.824   3.631
   70WAT     H2  730   5.532   5.674   3.645
   71WAT      O  731   5.809   5.086   4.031
   71WAT     H1  732   5.765   5.164   3.998
   71WAT     H2  733   5.865   5.118   4.101
   72WAT      O  734   6.238   5.372   4.591
   72WAT     H1  735   6.192   5.393   4.672
   72WAT     H2  736   6.198   5.291   4.561
   73WAT      O  737   6.447   5.644   4.914
   73WAT     H1  738   6.480   5.561   4.880
   73WAT     H2  739   6.526   5.697   4.929
   74WAT      O  740   6.121   5.048   3.519
   74WAT     H1  741   6.058   5.047   3.591
   74WAT     H2  742   6.112   4.961   3.479
   75WAT      O  743   6.013   5.140   4.217
   75WAT     H1  744   6.043   5.231   4.209
   75WAT     H2  745   6.068   5.091   4.155
   76WAT      O  746   5.788   5.598   3.804
   76WAT     H1  747   5.766   5.576   3.894
   76WAT     H2  748   5.710   5.641   3.769
   77WAT      O  749   6.511   5.599   3.663
   77WAT     H1  750   6.451   5.671   3.645
   77WAT     H2  751   6.566   5.592   3.585
   78WAT      O  752   6.032   5.688   4.870
   78WAT     H1  753   6.023   5.594   4.855
   78WAT     H2  754   6.117   5.710   4.831
   79WAT      O  755   6.372   5.462   3.866
   79WAT     H1  756   6.411   5.494   3.785
   79WAT     H2  757   6.408   5.374   3.878
   80WAT      O  758   5.545   5.329   4.685
   80WAT     H1  759   5.506   5.414   4.706
   80WAT     H2  760   5.477   5.265   4.705
   81WAT      O  761   6.203   5.337   4.992
   81WAT     H1  762   6.134   5.318   5.056
   81WAT     H2  763   6.277   5.366   5.046
   82WAT      O  764   5.276   5.121   4.089
   82WAT     H1  765   5.247   5.178   4.160
   82WAT     H2  766   5.350   5.073   4.125
   83WAT      O  767   5.294   5.515   3.210
   83WAT     H1  768   5.286   5.610   3.224
   83WAT     H2  769   5.259   5.501   3.122
   84WAT      O  770   6.431   5.721   4.276
   84WAT     H1  771   6.357   5.772   4.311
   84WAT     H2  772   6.391   5.640   4.246
   85WAT      O  773   6.074   5.389   4.116
   85WAT     H1  774   6.075   5.345   4.032
   85WAT     H2  775   6.164   5.421   4.127
   86WAT      O  776   5.659   5.377   4.012
   86WAT     H1  777   5.625   5.425   4.088
   86WAT     H2  778   5.583   5.332   3.976
   87WAT      O  779   6.080   5.489   3.416
   87WAT     H1  780   6.093   5.485   3.510
   87WAT     H2  781   6.042   5.575   3.400
   88WAT      O  782   6.477   5.267   4.217
   88WAT     H1  783   6.479   5.312   4.302
   88WAT     H2  784   6.452   5.177   4.239
   89WAT      O  785   5.982   5.720   3.355
   89WAT     H1  786   5.925   5.675   3.293
   89WAT     H2  787   6.053   5.756   3.302
   90WAT      O  788   6.104   5.795   4.291
   90WAT     H1  789   6.141   5.747   4.366
   90WAT     H2  790   6.085   5.882   4.325
   91WAT      O  791   5.391   5.269   3.904
   91WAT     H1  792   5.362   5.233   3.988
   91WAT     H2  793   5.385   5.196   3.843
   92WAT      O  794   5.883   5.699   4.523
   92WAT     H1  795   5.853   5.787   4.545
   92WAT     H2  796   5.979   5.705   4.527
   93WAT      O  797   6.358   5.159   3.576
   93WAT     H1  798   6.277   5.109   3.569
   93WAT     H2  799   6.339   5.243   3.535
   94WAT      O  800   5.489   5.783   4.638
   94WAT     H1  801   5.453   5.849   4.696
   94WAT     H2  802   5.460   5.700   4.675
   95WAT      O  803   5.809   5.829   4.926
   95WAT     H1  804   5.779   5.843   4.836
   95WAT     H2  805   5.886   5.773   4.917
   96WAT      O  806   5.340   5.783   3.300
   96WAT     H1  807   5.427   5.811   3.328
   96WAT     H2  808   5.291   5.864   3.289
   97WAT      O  809   5.647   4.956   3.759
   97WAT     H1  810   5.634   4.955   3.854
   97WAT     H2  811   5.564   4.990   3.724
   98WAT      O  812   5.346   5.132   4.705
   98WAT     H1  813   5.275   5.152   4.766
   98WAT     H2  814   5.388   5.054   4.743
   99WAT      O  815   6.496   5.381   4.480
   99WAT     H1  816   6.533   5.299   4.513
   99WAT     H2  817   6.410   5.387   4.522
  100WAT      O  818   6.029   5.505   3.703
  100WAT     H1  819   5.958   5.551   3.747
  100WAT     H2  820   6.058   5.439   3.766
  101WAT      O  821   6.192   5.646   4.503
  101WAT     H1  822   6.242   5.694   4.569
  101WAT     H2  823   6.206   5.554   4.524
  102WAT      O  824   6.432   5.177   3.847
  102WAT     H1  825   6.420   5.179   3.752
  102WAT     H2  826   6.527   5.182   3.859
  103WAT      O  827   5.850   5.335   3.440
  103WAT     H1  828   5.935   5.379   3.434
  103WAT     H2  829   5.813   5.367   3.523
  104WAT      O  830   5.609   5.704   3.356
  104WAT     H1  831   5.617   5.609   3.367
  104WAT     H2  832   5.698   5.737   3.367
  105WAT      O  833   5.565   5.700   4.969
  105WAT     H1  834   5.569   5.671   5.060
  105WAT     H2  835   5.650   5.740   4.953
  106WAT      O  836   5.759   5.558   4.766
  106WAT     H1  837   5.706   5.509   4.703
  106WAT     H2  838   5.826   5.601   4.712
  107WAT      O  839   5.808   5.255   4.774
  107WAT     H1  840   5.798   5.193   4.701
  107WAT     H2  841   5.750   5.328   4.751
  108WAT      O  842   6.084   5.111   4.477
  108WAT     H1  843   6.040   5.113   4.393
  108WAT     H2  844   6.021   5.071   4.537
  109WAT      O  845   6.359   5.773   4.678
  109WAT     H1  846   6.371   5.714   4.752
  109WAT     H2  847   6.445   5.777   4.636
  110WAT      O  848   5.832   5.568   3.180
  110WAT     H1  849   5.812   5.481   3.216
  110WAT     H2  850   5.815   5.559   3.086
  111WAT      O  851   6.035   5.428   4.803
  111WAT     H1  852   6.094   5.397   4.872
  111WAT     H2  853   5.954   5.380   4.819
  112WAT      O  854   6.517   5.389   4.827
  112WAT     H1  855   6.448   5.323   4.820
  112WAT     H2  856   6.589   5.345   4.871
  113WAT      O  857   6.580   5.049   3.433
  113WAT     H1  858   6.608   4.964   3.468
  113WAT     H2  859   6.503   5.072   3.484
  114WAT      O  860   5.712   5.278   3.179
  114WAT     H1  861   5.742   5.278   3.088
  114WAT     H2  862   5.786   5.243   3.228
  115WAT      O  863   6.034   5.172   3.277
  115WAT     H1  864   5.999   5.104   3.219
  115WAT     H2  865   6.054   5.126   3.359
  116WAT      O  866   5.368   5.825   3.917
  116WAT     H1  867   5.303   5.798   3.852
  116WAT     H2  868   5.452   5.814   3.872
  117WAT      O  869   5.472   5.863   4.371
  117WAT     H1  870   5.509   5.855   4.459
  117WAT     H2  871   5.415   5.787   4.361
  118WAT      O  872   5.427   5.555   4.761
  118WAT     H1  873   5.338   5.551   4.795
  118WAT     H2  874   5.481   5.574   4.838
  119WAT      O  875   5.289   5.546   3.511
  119WAT     H1  876   5.199   5.572   3.494
  119WAT     H2  877   5.338   5.573   3.433
  120WAT      O  878   5.544   5.452   3.302
  120WAT     H1  879   5.615   5.409   3.253
  120WAT     H2  880   5.472   5.458   3.239
  121WAT      O  881   5.509   5.057   3.206
  121WAT     H1  882   5.581   5.111   3.238
  121WAT     H2  883   5.536   5.030   3.118
  122WAT      O  884   5.477   4.982   4.196
  122WAT     H1  885   5.542   4.927   4.152
  122WAT     H2  886   5.519   5.007   4.278
  123WAT      O  887   5.453   4.998   4.470
  123WAT     H1  888   5.418   5.043   4.547
  123WAT     H2  889   5.420   4.908   4.479
  124WAT      O  890   6.204   5.117   4.823
  124WAT     H1  891   6.198   5.176   4.898
  124WAT     H2  892   6.298   5.106   4.808
  125WAT      O  893   6.468   5.082   4.787
  125WAT     H1  894   6.529   5.114   4.720
  125WAT     H2  895   6.522   5.034   4.849
  126WAT      O  896   5.520   4.950   4.798
  126WAT     H1  897   5.575   4.932   4.722
  126WAT     H2  898   5.527   4.871   4.852
  127WAT      O  899   6.542   4.939   4.419
  127WAT     H1  900   6.454   4.972   4.399
  127WAT     H2  901   6.531   4.891   4.502
  128WAT      O  902   6.317   5.030   4.313
  128WAT     H1  903   6.238   5.078   4.341
  128WAT     H2  904   6.287   4.940   4.302
  129WAT      O  905   5.451   5.061   3.565
  129WAT     H1  906   5.527   5.072   3.508
  129WAT     H2  907   5.405   5.145   3.561
  130WAT      O  908   6.105   5.272   3.864
  130WAT     H1  909   6.024   5.235   3.830
  130WAT     H2  910   6.156   5.197   3.895
  131WAT      O  911   6.555   4.939   3.988
  131WAT     H1  912   6.616   4.996   4.036
  131WAT     H2  913   6.481   4.995   3.966
  132WAT      O  914   5.688   5.114   3.419
  132WAT     H1  915   5.741   5.035   3.406
  132WAT     H2  916   5.752   5.181   3.443
  133WAT      O  917   5.908   5.087   3.725
  133WAT     H1  918   5.845   5.017   3.741
  133WAT     H2  919   5.854   5.163   3.703
  134WAT      O  920   5.920   5.015   4.968
  134WAT     H1  921   5.892   5.065   4.892
  134WAT     H2  922   5.958   4.935   4.932
  135WAT      O  923   6.471   5.759   2.062
  135WAT     H1  924   6.463   5.667   2.035
  135WAT     H2  925   6.430   5.808   1.992
  136WAT      O  926   5.527   5.464   1.717
  136WAT     H1  927   5.438   5.498   1.707
  136WAT     H2  928   5.555   5.444   1.628
  137WAT      O  929   5.323   5.724   2.305
  137WAT     H1  930   5.380   5.647   2.305
  137WAT     H2  931   5.323   5.754   2.214
  138WAT      O  932   5.447   5.264   2.484
  138WAT     H1  933   5.429   5.175   2.512
  138WAT     H2  934   5.407   5.319   2.551
  139WAT      O  935   6.331   5.485   2.274
  139WAT     H1  936   6.369   5.397   2.263
  139WAT     H2  937   6.321   5.518   2.185
  140WAT      O  938   5.744   5.322   1.820
  140WAT     H1  939   5.755   5.412   1.851
  140WAT     H2  940   5.653   5.317   1.791
  141WAT      O  941   5.509   5.514   2.345
  141WAT     H1  942   5.577   5.540   2.407
  141WAT     H2  943   5.478   5.430   2.378
  142WAT      O  944   5.928   5.619   2.253
  142WAT     H1  945   5.979   5.669   2.317
  142WAT     H2  946   5.981   5.541   2.236
  143WAT      O  947   5.757   5.083   2.680
  143WAT     H1  948   5.757   5.134   2.599
  143WAT     H2  949   5.674   5.035   2.678
  144WAT      O  950   5.725   5.254   2.481
  144WAT     H1  951   5.759   5.338   2.451
  144WAT     H2  952   5.631   5.269   2.492
  145WAT      O  953   6.093   5.003   2.113
  145WAT     H1  954   6.124   4.947   2.042
  145WAT     H2  955   6.000   5.016   2.095
  146WAT      O  956   6.331   5.436   1.486
  146WAT     H1  957   6.237   5.452   1.495
  146WAT     H2  958   6.362   5.508   1.432
  147WAT      O  959   5.893   5.862   2.065
  147WAT     H1  960   5.852   5.791   2.015
  147WAT     H2  961   5.901   5.827   2.154
  148WAT      O  962   5.764   5.539   2.443
  148WAT     H1  963   5.819   5.550   2.365
  148WAT     H2  964   5.815   5.577   2.514
  149WAT      O  965   5.563   5.751   1.815
  149WAT     H1  966   5.551   5.824   1.754
  149WAT     H2  967   5.532   5.674   1.767
  150WAT      O  968   5.809   5.086   2.153
  150WAT     H1  969   5.765   5.164   2.120
  150WAT     H2  970   5.865   5.118   2.224
  151WAT      O  971   6.238   5.372   2.714
  151WAT     H1  972   6.192   5.393   2.795
  151WAT     H2  973   6.198   5.291   2.683
  152WAT      O  974   6.447   5.644   3.037
  152WAT     H1  975   6.480   5.561   3.003
  152WAT     H2  976   6.526   5.697   3.051
  153WAT      O  977   6.121   5.048   1.641
  153WAT     H1  978   6.058   5.047   1.714
  153WAT     H2  979   6.112   4.961   1.602
  154WAT      O  980   6.013   5.140   2.339
  154WAT     H1  981   6.043   5.231   2.331
  154WAT     H2  982   6.068   5.091   2.278
  155WAT      O  983   5.788   5.598   1.926
  155WAT     H1  984   5.766   5.576   2.017
  155WAT     H2  985   5.710   5.641   1.892
  156WAT      O  986   6.511   5.599   1.786
  156WAT     H1  987   6.451   5.671   1.768
  156WAT     H2  988   6.566   5.592   1.708
  157WAT      O  989   6.032   5.688   2.993
  157WAT     H1  990   6.023   5.594   2.978
  157WAT     H2  991   6.117   5.710   2.953
  158WAT      O  992   6.372   5.462   1.989
  158WAT     H1  993   6.411   5.494   1.908
  158WAT     H2  994   6.408   5.374   2.000
  159WAT      O  995   5.545   5.329   2.808
  159WAT     H1  996   5.506   5.414   2.829
  159WAT     H2  997   5.477   5.265   2.827
  160WAT      O  998   6.203   5.337   3.115
  160WAT     H1  999   6.134   5.318   3.178
  160WAT     H2 1000   6.277   5.366   3.168
  161WAT      O 1001   5.276   5.121   2.211
  161WAT     H1 1002   5.247   5.178   2.283
  161WAT     H2 1003   5.350   5.073   2.248
  162WAT      O 1004   5.294   5.515   1.332
  162WAT     H1 1005   5.286   5.610   1.346
  162WAT     H2 1006   5.259   5.501   1.244
  163WAT      O 1007   6.431   5.721   2.399
  163WAT     H1 1008   6.357   5.772   2.433
  163WAT     H2 1009   6.391   5.640   2.368
  164WAT      O 1010   6.074   5.389   2.239
  164WAT     H1 1011   6.075   5.345   2.154
  164WAT     H2 1012   6.164   5.421   2.250
  165WAT      O 1013   5.659   5.377   2.135
  165WAT     H1 1014   5.625   5.425   2.211
  165WAT     H2 1015   5.583   5.332   2.099
  166WAT      O 1016   6.080   5.489   1.538
  166WAT     H1 1017   6.093   5.485   1.633
  166WAT     H2 1018   6.042   5.575   1.523
  167WAT      O 1019   6.477   5.267   2.340
  167WAT     H1 1020   6.479   5.312   2.424
  167WAT     H2 1021   6.452   5.177   2.361
  168WAT      O 1022   5.982   5.720   1.478
  168WAT     H1 1023   5.925   5.675   1.415
  168WAT     H2 1024   6.053   5.756   1.425
  169WAT      O 1025   6.104   5.795   2.414
  169WAT     H1 1026   6.141   5.747   2.488
  169WAT     H2 1027   6.085   5.882   2.448
  170WAT      O 1028   5.391   5.269   2.027
  170WAT     H1 1029   5.362   5.233   2.110
  170WAT     H2 1030   5.385   5.196   1.965
  171WAT      O 1031   5.883   5.699   2.646
  171WAT     H1 1032   5.853   5.787   2.668
  171WAT     H2 1033   5.979   5.705   2.649
  172WAT      O 1034   6.358   5.159   1.699
  172WAT     H1 1035   6.277   5.109   1.691
  172WAT     H2 1036   6.339   5.243   1.657
  173WAT      O 1037   5.489   5.783   2.760
  173WAT     H1 1038   5.453   5.849   2.819
  173WAT     H2 1039   5.460   5.700   2.797
  174WAT      O 1040   5.809   5.829   3.049
  174WAT     H1 1041   5.779   5.843   2.959
  174WAT     H2 1042   5.886   5.773   3.039
  175WAT      O 1043   5.340   5.783   1.423
  175WAT     H1 1044   5.427   5.811   1.451
  175WAT     H2 1045   5.291   5.864   1.411
  176WAT      O 1046   5.647   4.956   1.882
  176WAT     H1 1047   5.634   4.955   1.977
  176WAT     H2 1048   5.564   4.990   1.847
  177WAT      O 1049   5.346   5.132   2.828
  177WAT     H1 1050   5.275   5.152   2.888
  177WAT     H2 1051   5.388   5.054   2.865
  178WAT      O 1052   6.496   5.381   2.603
  178WAT     H1 1053   6.533   5.299   2.636
  178WAT     H2 1054   6.410   5.387   2.645
  179WAT      O 1055   6.029   5.505   1.825
  179WAT     H1 1056   5.958   5.551   1.870
  179WAT     H2 1057   6.058   5.439   1.889
  180WAT      O 1058   6.192   5.646   2.625
  180WAT     H1 1059   6.242   5.694   2.692
  180WAT     H2 1060   6.206   5.554   2.646
  181WAT      O 1061   6.432   5.177   1.969
  181WAT     H1 1062   6.420   5.179   1.874
  181WAT     H2 1063   6.527   5.182   1.981
  182WAT      O 1064   5.850   5.335   1.563
  182WAT     H1 1065   5.935   5.379   1.556
  182WAT     H2 1066   5.813   5.367   1.646
  183WAT      O 1067   5.609   5.704   1.479
  183WAT     H1 1068   5.617   5.609   1.490
  183WAT     H2 1069   5.698   5.737   1.489
  184WAT      O 1070   5.565   5.700   3.092
  184WAT     H1 1071   5.569   5.671   3.183
  184WAT     H2 1072   5.650   5.740   3.076
  185WAT      O 1073   5.759   5.558   2.888
  185WAT     H1 1074   5.706   5.509   2.826
  185WAT     H2 1075   5.826   5.601   2.835
  186WAT      O 1076   5.808   5.255   2.896
  186WAT     H1 1077   5.798   5.193   2.824
  186WAT     H2 1078   5.750   5.328   2.874
  187WAT      O 1079   6.084   5.111   2.600
  187WAT     H1 1080   6.040   5.113   2.515
  187WAT     H2 1081   6.021   5.071   2.659
  188WAT      O 1082   6.359   5.773   2.800
  188WAT     H1 1083   6.371   5.714   2.874
  188WAT     H2 1084   6.445   5.777   2.758
  189WAT      O 1085   5.832   5.568   1.302
  189WAT     H1 1086   5.812   5.481   1.338
  189WAT     H2 1087   5.815   5.559   1.209
  190WAT      O 1088   6.035   5.428   2.926
  190WAT     H1 1089   6.094   5.397   2.995
  190WAT     H2 1090   5.954   5.380   2.942
  191WAT      O 1091   6.517   5.389   2.949
  191WAT     H1 1092   6.448   5.323   2.943
  191WAT     H2 1093   6.589   5.345   2.994
  192WAT      O 1094   6.580   5.049   1.555
  192WAT     H1 1095   6.608   4.964   1.591
  192WAT     H2 1096   6.503   5.072   1.607
  193WAT      O 1097   5.712   5.278   1.301
  193WAT     H1 1098   5.742   5.278   1.210
  193WAT     H2 1099   5.786   5.243   1.351
  194WAT      O 1100   6.034   5.172   1.400
  194WAT     H1 1101   5.999   5.104   1.342
  194WAT     H2 1102   6.054   5.126   1.481
  195WAT      O 1103   5.368   5.825   2.039
  195WAT     H1 1104   5.303   5.798   1.975
  195WAT     H2 1105   5.452   5.814   1.994
  196WAT      O 1106   5.472   5.863   2.493
  196WAT     H1 1107   5.509   5.855   2.581
  196WAT     H2 1108   5.415   5.787   2.483
  197WAT      O 1109   5.427   5.555   2.884
  197WAT     H1 1110   5.338   5.551   2.918
  197WAT     H2 1111   5.481   5.574   2.960
  198WAT      O 1112   5.289   5.546   1.634
  198WAT     H1 1113   5.199   5.572   1.616
  198WAT     H2 1114   5.338   5.573   1.556
  199WAT      O 1115   5.544   5.452   1.424
  199WAT     H1 1116   5.615   5.409   1.376
  199WAT     H2 1117   5.472   5.458   1.361
  200WAT      O 1118   5.509   5.057   1.329
  200WAT     H1 1119   5.581   5.111   1.360
  200WAT     H2 1120   5.536   5.030   1.241
  201WAT      O 1121   5.477   4.982   2.319
  201WAT     H1 1122   5.542   4.927   2.275
  201WAT     H2 1123   5.519   5.007   2.401
  202WAT      O 1124   5.453   4.998   2.593
  202WAT     H1 1125   5.418   5.043   2.670
  202WAT     H2 1126   5.420   4.908   2.601
  203WAT      O 1127   6.204   5.117   2.945
  203WAT     H1 1128   6.198   5.176   3.020
  203WAT     H2 1129   6.298   5.106   2.931
  204WAT      O 1130   6.468   5.082   2.909
  204WAT     H1 1131   6.529   5.114   2.843
  204WAT     H2 1132   6.522   5.034   2.971
  205WAT      O 1133   5.520   4.950   2.921
  205WAT     H1 1134   5.575   4.932   2.844
  205WAT     H2 1135   5.527   4.871   2.974
  206WAT      O 1136   6.542   4.939   2.542
  206WAT     H1 1137   6.454   4.972   2.522
  206WAT     H2 1138   6.531   4.891   2.624
  207WAT      O 1139   6.317   5.030   2.436
  207WAT     H1 1140   6.238   5.078   2.464
  207WAT     H2 1141   6.287   4.940   2.425
  208WAT      O 1142   5.451   5.061   1.688
  208WAT     H1 1143   5.527   5.072   1.631
  208WAT     H2 1144   5.405   5.145   1.683
  209WAT      O 1145   6.105   5.272   1.987
  209WAT     H1 1146   6.024   5.235   1.953
  209WAT     H2 1147   6.156   5.197   2.017
  210WAT      O 1148   6.555   4.939   2.111
  210WAT     H1 1149   6.616   4.996   2.158
  210WAT     H2 1150   6.481   4.995   2.088
  211WAT      O 1151   5.688   5.114   1.542
  211WAT     H1 1152   5.741   5.035   1.529
  211WAT     H2 1153   5.752   5.181   1.565
  212WAT      O 1154   5.908   5.087   1.847
  212WAT     H1 1155   5.845   5.017   1.864
  212WAT     H2 1156   5.854   5.163   1.826
  213WAT      O 1157   5.920   5.015   3.091
  213WAT     H1 1158   5.892   5.065   3.014
  213WAT     H2 1159   5.958   4.935   3.054
  214WAT      O 1160   5.323   5.724   0.428
  214WAT     H1 1161   5.380   5.647   0.428
  214WAT     H2 1162   5.323   5.754   0.337
  215WAT      O 1163   5.447   5.264   0.606
  215WAT     H1 1164   5.429   5.175   0.634
  215WAT     H2 1165   5.407   5.319   0.674
  216WAT      O 1166   6.331   5.485   0.397
  216WAT     H1 1167   6.369   5.397   0.385
  216WAT     H2 1168   6.321   5.518   0.307
  217WAT      O 1169   5.509   5.514   0.467
  217WAT     H1 1170   5.577   5.540   0.529
  217WAT     H2 1171   5.478   5.430   0.501
  218WAT      O 1172   5.928   5.619   0.376
  218WAT     H1 1173   5.979   5.669   0.440
  218WAT     H2 1174   5.981   5.541   0.358
  219WAT      O 1175   5.757   5.083   0.803
  219WAT     H1 1176   5.757   5.134   0.722
  219WAT     H2 1177   5.674   5.035   0.800
  220WAT      O 1178   5.725   5.254   0.603
  220WAT     H1 1179   5.759   5.338   0.574
  220WAT     H2 1180   5.631   5.269   0.615
  221WAT      O 1181   5.764   5.539   0.566
  221WAT     H1 1182   5.819   5.550   0.488
  221WAT     H2 1183   5.815   5.577   0.637
  222WAT      O 1184   5.809   5.086   0.276
  222WAT     H1 1185   5.765   5.164   0.243
  222WAT     H2 1186   5.865   5.118   0.347
  223WAT      O 1187   6.238   5.372   0.836
  223WAT     H1 1188   6.192   5.393   0.917
  223WAT     H2 1189   6.198   5.291   0.806
  224WAT      O 1190   6.447   5.644   1.159
  224WAT     H1 1191   6.480   5.561   1.125
  224WAT     H2 1192   6.526   5.697   1.174
  225WAT      O 1193   6.013   5.140   0.462
  225WAT     H1 1194   6.043   5.231   0.454
  225WAT     H2 1195   6.068   5.091   0.400
  226WAT      O 1196   6.032   5.688   1.115
  226WAT     H1 1197   6.023   5.594   1.100
  226WAT     H2 1198   6.117   5.710   1.076
  227WAT      O 1199   5.545   5.329   0.931
  227WAT     H1 1200   5.506   5.414   0.951
  227WAT     H2 1201   5.477   5.265   0.950
  228WAT      O 1202   6.203   5.337   1.238
  228WAT     H1 1203   6.134   5.318   1.301
  228WAT     H2 1204   6.277   5.366   1.291
  229WAT      O 1205   5.276   5.121   0.334
  229WAT     H1 1206   5.247   5.178   0.405
  229WAT     H2 1207   5.350   5.073   0.370
  230WAT      O 1208   6.431   5.721   0.521
  230WAT     H1 1209   6.357   5.772   0.556
  230WAT     H2 1210   6.391   5.640   0.491
  231WAT      O 1211   6.074   5.389   0.362
  231WAT     H1 1212   6.075   5.345   0.277
  231WAT     H2 1213   6.164   5.421   0.372
  232WAT      O 1214   5.659   5.377   0.258
  232WAT     H1 1215   5.625   5.425   0.333
  232WAT     H2 1216   5.583   5.332   0.222
  233WAT      O 1217   6.477   5.267   0.462
  233WAT     H1 1218   6.479   5.312   0.547
  233WAT     H2 1219   6.452   5.177   0.484
  234WAT      O 1220   6.104   5.795   0.536
  234WAT     H1 1221   6.141   5.747   0.611
  234WAT     H2 1222   6.085   5.882   0.570
  235WAT      O 1223   5.883   5.699   0.768
  235WAT     H1 1224   5.853   5.787   0.791
  235WAT     H2 1225   5.979   5.705   0.772
  236WAT      O 1226   5.489   5.783   0.883
  236WAT     H1 1227   5.453   5.849   0.942
  236WAT     H2 1228   5.460   5.700   0.920
  237WAT      O 1229   5.809   5.829   1.171
  237WAT     H1 1230   5.779   5.843   1.081
  237WAT     H2 1231   5.886   5.773   1.162
  238WAT      O 1232   5.346   5.132   0.951
  238WAT     H1 1233   5.275   5.152   1.011
  238WAT     H2 1234   5.388   5.054   0.988
  239WAT      O 1235   6.496   5.381   0.726
  239WAT     H1 1236   6.533   5.299   0.758
  239WAT     H2 1237   6.410   5.387   0.767
  240WAT      O 1238   6.192   5.646   0.748
  240WAT     H1 1239   6.242   5.694   0.814
  240WAT     H2 1240   6.206   5.554   0.769
  241WAT      O 1241   5.565   5.700   1.214
  241WAT     H1 1242   5.569   5.671   1.305
  241WAT     H2 1243   5.650   5.740   1.198
  242WAT      O 1244   5.759   5.558   1.011
  242WAT     H1 1245   5.706   5.509   0.948
  242WAT     H2 1246   5.826   5.601   0.958
  243WAT      O 1247   5.808   5.255   1.019
  243WAT     H1 1248   5.798   5.193   0.946
  243WAT     H2 1249   5.750   5.328   0.996
  244WAT      O 1250   6.084   5.111   0.722
  244WAT     H1 1251   6.040   5.113   0.638
  244WAT     H2 1252   6.021   5.071   0.782
  245WAT      O 1253   6.359   5.773   0.923
  245WAT     H1 1254   6.371   5.714   0.997
  245WAT     H2 1255   6.445   5.777   0.881
  246WAT      O 1256   6.035   5.428   1.049
  246WAT     H1 1257   6.094   5.397   1.117
  246WAT     H2 1258   5.954   5.380   1.064
  247WAT      O 1259   6.517   5.389   1.072
  247WAT     H1 1260   6.448   5.323   1.065
  247WAT     H2 1261   6.589   5.345   1.116
  248WAT      O 1262   5.472   5.863   0.616
  248WAT     H1 1263   5.509   5.855   0.704
  248WAT     H2 1264   5.415   5.787   0.606
  249WAT      O 1265   5.427   5.555   1.006
  249WAT     H1 1266   5.338   5.551   1.040
  249WAT     H2 1267   5.481   5.574   1.083
  250WAT      O 1268   5.477   4.982   0.441
  250WAT     H1 1269   5.542   4.927   0.397
  250WAT     H2 1270   5.519   5.007   0.523
  251WAT      O 1271   5.453   4.998   0.716
  251WAT     H1 1272   5.418   5.043   0.792
  251WAT     H2 1273   5.420   4.908   0.724
  252WAT      O 1274   6.204   5.117   1.068
  252WAT     H1 1275   6.198   5.176   1.143
  252WAT     H2 1276   6.298   5.106   1.053
  253WAT      O 1277   6.468   5.082   1.032
  253WAT     H1 1278   6.529   5.114   0.965
  253WAT     H2 1279   6.522   5.034   1.094
  254WAT      O 1280   5.520   4.950   1.043
  254WAT     H1 1281   5.575   4.932   0.967
  254WAT     H2 1282   5.527   4.871   1.097
  255WAT      O 1283   6.542   4.939   0.664
  255WAT     H1 1284   6.454   4.972   0.644
  255WAT     H2 1285   6.531   4.891   0.747
  256WAT      O 1286   6.317   5.030   0.558
  256WAT     H1 1287   6.238   5.078   0.586
  256WAT     H2 1288   6.287   4.940   0.547
  257WAT      O 1289   6.555   4.939   0.233
  257WAT     H1 1290   6.616   4.996   0.281
  257WAT     H2 1291   6.481   4.995   0.211
  258WAT      O 1292   5.920   5.015   1.213
  258WAT     H1 1293   5.892   5.065   1.137
  258WAT     H2 1294   5.958   4.935   1.177
  259WAT      O 1295   6.471   3.881   5.817
  259WAT     H1 1296   6.463   3.790   5.790
  259WAT     H2 1297   6.430   3.931   5.747
  260WAT      O 1298   6.284   4.059   6.005
  260WAT     H1 1299   6.207   4.011   6.034
  260WAT     H2 1300   6.349   3.991   5.988
  261WAT      O 1301   5.684   4.494   6.113
  261WAT     H1 1302   5.714   4.404   6.095
  261WAT     H2 1303   5.758   4.549   6.090
  262WAT      O 1304   5.527   3.586   5.472
  262WAT     H1 1305   5.438   3.620   5.461
  262WAT     H2 1306   5.555   3.566   5.382
  263WAT      O 1307   5.323   3.846   6.060
  263WAT     H1 1308   5.380   3.769   6.060
  263WAT     H2 1309   5.323   3.876   5.969
  264WAT      O 1310   6.309   4.728   5.845
  264WAT     H1 1311   6.247   4.774   5.788
  264WAT     H2 1312   6.394   4.744   5.805
  265WAT      O 1313   6.228   4.326   6.006
  265WAT     H1 1314   6.221   4.232   5.990
  265WAT     H2 1315   6.304   4.335   6.063
  266WAT      O 1316   6.331   3.607   6.029
  266WAT     H1 1317   6.369   3.520   6.018
  266WAT     H2 1318   6.321   3.641   5.940
  267WAT      O 1319   5.744   3.444   5.575
  267WAT     H1 1320   5.755   3.534   5.606
  267WAT     H2 1321   5.653   3.440   5.546
  268WAT      O 1322   5.928   3.741   6.008
  268WAT     H1 1323   5.979   3.791   6.072
  268WAT     H2 1324   5.981   3.664   5.991
  269WAT      O 1325   6.395   4.216   5.585
  269WAT     H1 1326   6.334   4.263   5.528
  269WAT     H2 1327   6.447   4.286   5.626
  270WAT      O 1328   5.332   4.285   5.322
  270WAT     H1 1329   5.295   4.334   5.249
  270WAT     H2 1330   5.358   4.352   5.385
  271WAT      O 1331   6.093   3.125   5.868
  271WAT     H1 1332   6.124   3.070   5.796
  271WAT     H2 1333   6.000   3.139   5.850
  272WAT      O 1334   6.332   3.932   5.542
  272WAT     H1 1335   6.239   3.925   5.565
  272WAT     H2 1336   6.347   4.026   5.530
  273WAT      O 1337   6.331   3.559   5.241
  273WAT     H1 1338   6.237   3.575   5.250
  273WAT     H2 1339   6.362   3.631   5.187
  274WAT      O 1340   5.893   3.984   5.820
  274WAT     H1 1341   5.852   3.913   5.770
  274WAT     H2 1342   5.901   3.950   5.909
  275WAT      O 1343   5.939   4.353   6.036
  275WAT     H1 1344   5.910   4.292   5.968
  275WAT     H2 1345   6.034   4.357   6.025
  276WAT      O 1346   6.553   4.012   5.293
  276WAT     H1 1347   6.597   3.928   5.278
  276WAT     H2 1348   6.624   4.075   5.301
  277WAT      O 1349   6.364   4.506   5.690
  277WAT     H1 1350   6.407   4.580   5.648
  277WAT     H2 1351   6.357   4.530   5.782
  278WAT      O 1352   5.563   3.874   5.570
  278WAT     H1 1353   5.551   3.946   5.509
  278WAT     H2 1354   5.532   3.797   5.522
  279WAT      O 1355   5.451   4.361   5.792
  279WAT     H1 1356   5.410   4.375   5.706
  279WAT     H2 1357   5.540   4.333   5.771
  280WAT      O 1358   5.878   4.782   5.603
  280WAT     H1 1359   5.861   4.691   5.582
  280WAT     H2 1360   5.793   4.818   5.627
  281WAT      O 1361   6.557   4.718   5.689
  281WAT     H1 1362   6.603   4.640   5.720
  281WAT     H2 1363   6.591   4.789   5.743
  282WAT      O 1364   5.809   3.208   5.908
  282WAT     H1 1365   5.765   3.286   5.875
  282WAT     H2 1366   5.865   3.240   5.979
  283WAT      O 1367   6.121   3.170   5.396
  283WAT     H1 1368   6.058   3.170   5.469
  283WAT     H2 1369   6.112   3.084   5.357
  284WAT      O 1370   6.013   3.263   6.094
  284WAT     H1 1371   6.043   3.353   6.086
  284WAT     H2 1372   6.068   3.214   6.033
  285WAT      O 1373   5.788   3.720   5.681
  285WAT     H1 1374   5.766   3.699   5.771
  285WAT     H2 1375   5.710   3.764   5.646
  286WAT      O 1376   6.511   3.721   5.541
  286WAT     H1 1377   6.451   3.793   5.522
  286WAT     H2 1378   6.566   3.715   5.463
  287WAT      O 1379   6.372   3.585   5.744
  287WAT     H1 1380   6.411   3.616   5.663
  287WAT     H2 1381   6.408   3.497   5.755
  288WAT      O 1382   5.276   3.244   5.966
  288WAT     H1 1383   5.247   3.301   6.037
  288WAT     H2 1384   5.350   3.196   6.002
  289WAT      O 1385   5.294   3.638   5.087
  289WAT     H1 1386   5.286   3.732   5.101
  289WAT     H2 1387   5.259   3.624   4.999
  290WAT      O 1388   6.074   3.511   5.994
  290WAT     H1 1389   6.075   3.467   5.909
  290WAT     H2 1390   6.164   3.544   6.005
  291WAT      O 1391   5.659   3.500   5.890
  291WAT     H1 1392   5.625   3.547   5.966
  291WAT     H2 1393   5.583   3.454   5.854
  292WAT      O 1394   6.080   3.611   5.293
  292WAT     H1 1395   6.093   3.607   5.388
  292WAT     H2 1396   6.042   3.698   5.277
  293WAT      O 1397   5.982   3.842   5.233
  293WAT     H1 1398   5.925   3.798   5.170
  293WAT     H2 1399   6.053   3.878   5.179
  294WAT      O 1400   5.391   3.392   5.782
  294WAT     H1 1401   5.362   3.355   5.865
  294WAT     H2 1402   5.385   3.319   5.720
  295WAT      O 1403   5.736   4.242   5.460
  295WAT     H1 1404   5.659   4.188   5.444
  295WAT     H2 1405   5.809   4.190   5.426
  296WAT      O 1406   6.358   3.281   5.454
  296WAT     H1 1407   6.277   3.231   5.446
  296WAT     H2 1408   6.339   3.365   5.412
  297WAT      O 1409   5.741   4.209   5.824
  297WAT     H1 1410   5.792   4.129   5.818
  297WAT     H2 1411   5.695   4.203   5.908
  298WAT      O 1412   6.229   4.336   5.351
  298WAT     H1 1413   6.263   4.410   5.302
  298WAT     H2 1414   6.146   4.367   5.387
  299WAT      O 1415   6.518   4.268   5.888
  299WAT     H1 1416   6.553   4.208   5.822
  299WAT     H2 1417   6.429   4.235   5.905
  300WAT      O 1418   6.126   4.344   5.628
  300WAT     H1 1419   6.195   4.398   5.666
  300WAT     H2 1420   6.047   4.398   5.632
  301WAT      O 1421   5.340   3.905   5.177
  301WAT     H1 1422   5.427   3.934   5.206
  301WAT     H2 1423   5.291   3.987   5.166
  302WAT      O 1424   6.056   4.044   5.590
  302WAT     H1 1425   6.102   4.125   5.612
  302WAT     H2 1426   6.021   4.012   5.673
  303WAT      O 1427   5.647   3.079   5.637
  303WAT     H1 1428   5.634   3.078   5.732
  303WAT     H2 1429   5.564   3.112   5.602
  304WAT      O 1430   5.377   4.827   5.234
  304WAT     H1 1431   5.413   4.887   5.169
  304WAT     H2 1432   5.363   4.881   5.311
  305WAT      O 1433   5.978   4.565   5.316
  305WAT     H1 1434   5.978   4.638   5.254
  305WAT     H2 1435   5.886   4.540   5.325
  306WAT      O 1436   5.539   4.087   5.390
  306WAT     H1 1437   5.478   4.161   5.391
  306WAT     H2 1438   5.586   4.096   5.308
  307WAT      O 1439   6.277   4.571   5.182
  307WAT     H1 1440   6.287   4.551   5.089
  307WAT     H2 1441   6.187   4.546   5.203
  308WAT      O 1442   6.029   3.627   5.580
  308WAT     H1 1443   5.958   3.674   5.624
  308WAT     H2 1444   6.058   3.561   5.644
  309WAT      O 1445   6.432   3.300   5.724
  309WAT     H1 1446   6.420   3.301   5.629
  309WAT     H2 1447   6.527   3.304   5.736
  310WAT      O 1448   6.141   4.823   5.652
  310WAT     H1 1449   6.167   4.819   5.559
  310WAT     H2 1450   6.046   4.810   5.651
  311WAT      O 1451   5.850   3.458   5.318
  311WAT     H1 1452   5.935   3.502   5.311
  311WAT     H2 1453   5.813   3.489   5.401
  312WAT      O 1454   5.740   4.083   5.165
  312WAT     H1 1455   5.816   4.072   5.221
  312WAT     H2 1456   5.747   4.014   5.100
  313WAT      O 1457   5.609   3.826   5.234
  313WAT     H1 1458   5.617   3.732   5.245
  313WAT     H2 1459   5.698   3.860   5.244
  314WAT      O 1460   5.689   4.841   5.944
  314WAT     H1 1461   5.763   4.787   5.971
  314WAT     H2 1462   5.728   4.928   5.930
  315WAT      O 1463   5.378   4.448   5.531
  315WAT     H1 1464   5.285   4.472   5.530
  315WAT     H2 1465   5.424   4.531   5.519
  316WAT      O 1466   6.000   4.759   5.126
  316WAT     H1 1467   6.080   4.788   5.081
  316WAT     H2 1468   5.948   4.716   5.058
  317WAT      O 1469   6.052   4.281   5.113
  317WAT     H1 1470   6.042   4.219   5.185
  317WAT     H2 1471   6.035   4.228   5.034
  318WAT      O 1472   6.376   4.187   5.173
  318WAT     H1 1473   6.321   4.232   5.237
  318WAT     H2 1474   6.438   4.136   5.225
  319WAT      O 1475   5.943   4.083   5.363
  319WAT     H1 1476   5.985   4.066   5.447
  319WAT     H2 1477   5.955   4.002   5.313
  320WAT      O 1478   6.194   3.985   5.087
  320WAT     H1 1479   6.246   3.914   5.051
  320WAT     H2 1480   6.259   4.049   5.117
  321WAT      O 1481   5.832   3.690   5.057
  321WAT     H1 1482   5.812   3.604   5.093
  321WAT     H2 1483   5.815   3.682   4.963
  322WAT      O 1484   6.580   3.171   5.310
  322WAT     H1 1485   6.608   3.087   5.346
  322WAT     H2 1486   6.503   3.195   5.361
  323WAT      O 1487   5.712   3.400   5.056
  323WAT     H1 1488   5.742   3.401   4.965
  323WAT     H2 1489   5.786   3.365   5.106
  324WAT      O 1490   6.034   3.295   5.155
  324WAT     H1 1491   5.999   3.227   5.097
  324WAT     H2 1492   6.054   3.248   5.236
  325WAT      O 1493   6.251   4.793   5.316
  325WAT     H1 1494   6.340   4.827   5.319
  325WAT     H2 1495   6.254   4.721   5.254
  326WAT      O 1496   5.615   4.331   5.139
  326WAT     H1 1497   5.658   4.385   5.205
  326WAT     H2 1498   5.663   4.248   5.140
  327WAT      O 1499   5.336   4.610   5.884
  327WAT     H1 1500   5.369   4.523   5.861
  327WAT     H2 1501   5.379   4.630   5.968
  328WAT      O 1502   5.796   4.443   5.650
  328WAT     H1 1503   5.766   4.430   5.741
  328WAT     H2 1504   5.785   4.357   5.610
  329WAT      O 1505   5.368   3.947   5.794
  329WAT     H1 1506   5.303   3.921   5.730
  329WAT     H2 1507   5.452   3.936   5.749
  330WAT      O 1508   5.289   3.668   5.388
  330WAT     H1 1509   5.199   3.695   5.371
  330WAT     H2 1510   5.338   3.696   5.310
  331WAT      O 1511   5.544   3.574   5.179
  331WAT     H1 1512   5.615   3.532   5.131
  331WAT     H2 1513   5.472   3.581   5.116
  332WAT      O 1514   5.509   3.179   5.083
  332WAT     H1 1515   5.581   3.234   5.115
  332WAT     H2 1516   5.536   3.152   4.996
  333WAT      O 1517   5.921   4.690   6.050
  333WAT     H1 1518   5.972   4.629   5.997
  333WAT     H2 1519   5.986   4.740   6.099
  334WAT      O 1520   5.389   4.800   5.692
  334WAT     H1 1521   5.372   4.737   5.762
  334WAT     H2 1522   5.302   4.821   5.657
  335WAT      O 1523   5.451   3.183   5.443
  335WAT     H1 1524   5.527   3.195   5.385
  335WAT     H2 1525   5.405   3.267   5.438
  336WAT      O 1526   6.105   3.395   5.742
  336WAT     H1 1527   6.024   3.357   5.708
  336WAT     H2 1528   6.156   3.319   5.772
  337WAT      O 1529   6.555   3.061   5.866
  337WAT     H1 1530   6.616   3.118   5.913
  337WAT     H2 1531   6.481   3.118   5.843
  338WAT      O 1532   5.549   4.670   5.437
  338WAT     H1 1533   5.497   4.708   5.367
  338WAT     H2 1534   5.542   4.732   5.509
  339WAT      O 1535   5.688   3.236   5.297
  339WAT     H1 1536   5.741   3.157   5.284
  339WAT     H2 1537   5.752   3.304   5.320
  340WAT      O 1538   5.908   3.210   5.602
  340WAT     H1 1539   5.845   3.140   5.619
  340WAT     H2 1540   5.854   3.286   5.581
  341WAT      O 1541   5.809   4.864   5.324
  341WAT     H1 1542   5.882   4.836   5.270
  341WAT     H2 1543   5.835   4.841   5.413
  342WAT      O 1544   5.725   4.476   5.325
  342WAT     H1 1545   5.662   4.523   5.380
  342WAT     H2 1546   5.737   4.392   5.368
  343WAT      O 1547   6.471   3.881   3.940
  343WAT     H1 1548   6.463   3.790   3.913
  343WAT     H2 1549   6.430   3.931   3.869
  344WAT      O 1550   6.284   4.059   4.128
  344WAT     H1 1551   6.207   4.011   4.157
  344WAT     H2 1552   6.349   3.991   4.111
  345WAT      O 1553   5.686   4.090   4.216
  345WAT     H1 1554   5.603   4.065   4.256
  345WAT     H2 1555   5.747   4.097   4.289
  346WAT      O 1556   5.684   4.494   4.235
  346WAT     H1 1557   5.714   4.404   4.217
  346WAT     H2 1558   5.758   4.549   4.213
  347WAT      O 1559   5.527   3.586   3.594
  347WAT     H1 1560   5.438   3.620   3.584
  347WAT     H2 1561   5.555   3.566   3.505
  348WAT      O 1562   5.323   3.846   4.183
  348WAT     H1 1563   5.380   3.769   4.183
  348WAT     H2 1564   5.323   3.876   4.092
  349WAT      O 1565   6.309   4.728   3.968
  349WAT     H1 1566   6.247   4.774   3.911
  349WAT     H2 1567   6.394   4.744   3.928
  350WAT      O 1568   6.228   4.326   4.129
  350WAT     H1 1569   6.221   4.232   4.113
  350WAT     H2 1570   6.304   4.335   4.186
  351WAT      O 1571   5.447   3.387   4.361
  351WAT     H1 1572   5.429   3.297   4.389
  351WAT     H2 1573   5.407   3.442   4.429
  352WAT      O 1574   6.331   3.607   4.151
  352WAT     H1 1575   6.369   3.520   4.140
  352WAT     H2 1576   6.321   3.641   4.062
  353WAT      O 1577   5.744   3.444   3.698
  353WAT     H1 1578   5.755   3.534   3.728
  353WAT     H2 1579   5.653   3.440   3.669
  354WAT      O 1580   5.509   3.637   4.222
  354WAT     H1 1581   5.577   3.663   4.284
  354WAT     H2 1582   5.478   3.553   4.255
  355WAT      O 1583   5.928   3.741   4.131
  355WAT     H1 1584   5.979   3.791   4.195
  355WAT     H2 1585   5.981   3.664   4.113
  356WAT      O 1586   5.757   3.205   4.557
  356WAT     H1 1587   5.757   3.257   4.477
  356WAT     H2 1588   5.674   3.158   4.555
  357WAT      O 1589   6.395   4.216   3.707
  357WAT     H1 1590   6.334   4.263   3.651
  357WAT     H2 1591   6.447   4.286   3.749
  358WAT      O 1592   5.882   4.169   4.375
  358WAT     H1 1593   5.848   4.232   4.439
  358WAT     H2 1594   5.899   4.222   4.297
  359WAT      O 1595   5.725   3.376   4.358
  359WAT     H1 1596   5.759   3.461   4.329
  359WAT     H2 1597   5.631   3.391   4.370
  360WAT      O 1598   5.803   4.366   4.557
  360WAT     H1 1599   5.865   4.434   4.529
  360WAT     H2 1600   5.717   4.407   4.548
  361WAT      O 1601   5.332   4.285   3.445
  361WAT     H1 1602   5.295   4.334   3.372
  361WAT     H2 1603   5.358   4.352   3.508
  362WAT      O 1604   6.093   3.125   3.991
  362WAT     H1 1605   6.124   3.070   3.919
  362WAT     H2 1606   6.000   3.139   3.972
  363WAT      O 1607   6.332   3.932   3.664
  363WAT     H1 1608   6.239   3.925   3.687
  363WAT     H2 1609   6.347   4.026   3.653
  364WAT      O 1610   6.331   3.559   3.364
  364WAT     H1 1611   6.237   3.575   3.372
  364WAT     H2 1612   6.362   3.631   3.309
  365WAT      O 1613   5.893   3.984   3.942
  365WAT     H1 1614   5.852   3.913   3.893
  365WAT     H2 1615   5.901   3.950   4.031
  366WAT      O 1616   5.939   4.353   4.159
  366WAT     H1 1617   5.910   4.292   4.091
  366WAT     H2 1618   6.034   4.357   4.148
  367WAT      O 1619   5.764   3.662   4.320
  367WAT     H1 1620   5.819   3.673   4.243
  367WAT     H2 1621   5.815   3.699   4.392
  368WAT      O 1622   5.849   4.327   4.824
  368WAT     H1 1623   5.759   4.349   4.849
  368WAT     H2 1624   5.851   4.339   4.729
  369WAT      O 1625   6.553   4.012   3.415
  369WAT     H1 1626   6.597   3.928   3.401
  369WAT     H2 1627   6.624   4.075   3.424
  370WAT      O 1628   5.731   4.014   4.681
  370WAT     H1 1629   5.717   4.101   4.718
  370WAT     H2 1630   5.643   3.980   4.667
  371WAT      O 1631   6.364   4.506   3.812
  371WAT     H1 1632   6.407   4.580   3.771
  371WAT     H2 1633   6.357   4.530   3.904
  372WAT      O 1634   5.911   4.608   4.902
  372WAT     H1 1635   5.908   4.649   4.816
  372WAT     H2 1636   5.895   4.515   4.886
  373WAT      O 1637   5.563   3.874   3.692
  373WAT     H1 1638   5.551   3.946   3.631
  373WAT     H2 1639   5.532   3.797   3.645
  374WAT      O 1640   5.326   4.191   4.273
  374WAT     H1 1641   5.334   4.204   4.179
  374WAT     H2 1642   5.388   4.120   4.292
  375WAT      O 1643   5.451   4.361   3.914
  375WAT     H1 1644   5.410   4.375   3.829
  375WAT     H2 1645   5.540   4.333   3.894
  376WAT      O 1646   6.433   4.776   4.605
  376WAT     H1 1647   6.484   4.767   4.685
  376WAT     H2 1648   6.348   4.810   4.634
  377WAT      O 1649   5.878   4.782   3.725
  377WAT     H1 1650   5.861   4.691   3.704
  377WAT     H2 1651   5.793   4.818   3.749
  378WAT      O 1652   6.557   4.718   3.811
  378WAT     H1 1653   6.603   4.640   3.843
  378WAT     H2 1654   6.591   4.789   3.866
  379WAT      O 1655   5.332   4.295   4.527
  379WAT     H1 1656   5.348   4.248   4.445
  379WAT     H2 1657   5.379   4.244   4.594
  380WAT      O 1658   5.809   3.208   4.031
  380WAT     H1 1659   5.765   3.286   3.998
  380WAT     H2 1660   5.865   3.240   4.101
  381WAT      O 1661   6.238   3.495   4.591
  381WAT     H1 1662   6.192   3.516   4.672
  381WAT     H2 1663   6.198   3.413   4.561
  382WAT      O 1664   6.447   3.767   4.914
  382WAT     H1 1665   6.480   3.684   4.880
  382WAT     H2 1666   6.526   3.819   4.929
  383WAT      O 1667   6.121   3.170   3.519
  383WAT     H1 1668   6.058   3.170   3.591
  383WAT     H2 1669   6.112   3.084   3.479
  384WAT      O 1670   6.013   3.263   4.217
  384WAT     H1 1671   6.043   3.353   4.209
  384WAT     H2 1672   6.068   3.214   4.155
  385WAT      O 1673   5.788   3.720   3.804
  385WAT     H1 1674   5.766   3.699   3.894
  385WAT     H2 1675   5.710   3.764   3.769
  386WAT      O 1676   6.511   3.721   3.663
  386WAT     H1 1677   6.451   3.793   3.645
  386WAT     H2 1678   6.566   3.715   3.585
  387WAT      O 1679   6.032   3.810   4.870
  387WAT     H1 1680   6.023   3.716   4.855
  387WAT     H2 1681   6.117   3.832   4.831
  388WAT      O 1682   6.372   3.585   3.866
  388WAT     H1 1683   6.411   3.616   3.785
  388WAT     H2 1684   6.408   3.497   3.878
  389WAT      O 1685   5.545   3.451   4.685
  389WAT     H1 1686   5.506   3.536   4.706
  389WAT     H2 1687   5.477   3.388   4.705
  390WAT      O 1688   6.203   3.460   4.992
  390WAT     H1 1689   6.134   3.441   5.056
  390WAT     H2 1690   6.277   3.488   5.046
  391WAT      O 1691   5.276   3.244   4.089
  391WAT     H1 1692   5.247   3.301   4.160
  391WAT     H2 1693   5.350   3.196   4.125
  392WAT      O 1694   5.294   3.638   3.210
  392WAT     H1 1695   5.286   3.732   3.224
  392WAT     H2 1696   5.259   3.624   3.122
  393WAT      O 1697   6.431   3.844   4.276
  393WAT     H1 1698   6.357   3.895   4.311
  393WAT     H2 1699   6.391   3.762   4.246
  394WAT      O 1700   6.074   3.511   4.116
  394WAT     H1 1701   6.075   3.467   4.032
  394WAT     H2 1702   6.164   3.544   4.127
  395WAT      O 1703   5.659   3.500   4.012
  395WAT     H1 1704   5.625   3.547   4.088
  395WAT     H2 1705   5.583   3.454   3.976
  396WAT      O 1706   6.080   3.611   3.416
  396WAT     H1 1707   6.093   3.607   3.510
  396WAT     H2 1708   6.042   3.698   3.400
  397WAT      O 1709   6.477   3.389   4.217
  397WAT     H1 1710   6.479   3.434   4.302
  397WAT     H2 1711   6.452   3.299   4.239
  398WAT      O 1712   5.982   3.842   3.355
  398WAT     H1 1713   5.925   3.798   3.293
  398WAT     H2 1714   6.053   3.878   3.302
  399WAT      O 1715   5.489   4.233   4.743
  399WAT     H1 1716   5.451   4.169   4.803
  399WAT     H2 1717   5.521   4.303   4.800
  400WAT      O 1718   6.104   3.917   4.291
  400WAT     H1 1719   6.141   3.870   4.366
  400WAT     H2 1720   6.085   4.005   4.325
  401WAT      O 1721   5.391   3.392   3.904
  401WAT     H1 1722   5.362   3.355   3.988
  401WAT     H2 1723   5.385   3.319   3.843
  402WAT      O 1724   5.883   3.821   4.523
  402WAT     H1 1725   5.853   3.909   4.545
  402WAT     H2 1726   5.979   3.827   4.527
  403WAT      O 1727   5.736   4.242   3.583
  403WAT     H1 1728   5.659   4.188   3.567
  403WAT     H2 1729   5.809   4.190   3.549
  404WAT      O 1730   6.358   3.281   3.576
  404WAT     H1 1731   6.277   3.231   3.569
  404WAT     H2 1732   6.339   3.365   3.535
  405WAT      O 1733   6.350   4.149   4.751
  405WAT     H1 1734   6.344   4.057   4.725
  405WAT     H2 1735   6.287   4.159   4.822
  406WAT      O 1736   5.741   4.209   3.946
  406WAT     H1 1737   5.792   4.129   3.941
  406WAT     H2 1738   5.695   4.203   4.031
  407WAT      O 1739   6.229   4.336   3.474
  407WAT     H1 1740   6.263   4.410   3.424
  407WAT     H2 1741   6.146   4.367   3.510
  408WAT      O 1742   5.489   3.905   4.638
  408WAT     H1 1743   5.453   3.972   4.696
  408WAT     H2 1744   5.460   3.822   4.675
  409WAT      O 1745   5.809   3.951   4.926
  409WAT     H1 1746   5.779   3.966   4.836
  409WAT     H2 1747   5.886   3.895   4.917
  410WAT      O 1748   6.343   4.431   4.726
  410WAT     H1 1749   6.345   4.338   4.704
  410WAT     H2 1750   6.273   4.440   4.790
  411WAT      O 1751   6.518   4.268   4.010
  411WAT     H1 1752   6.553   4.208   3.944
  411WAT     H2 1753   6.429   4.235   4.027
  412WAT      O 1754   6.126   4.344   3.751
  412WAT     H1 1755   6.195   4.398   3.789
  412WAT     H2 1756   6.047   4.398   3.754
  413WAT      O 1757   5.340   3.905   3.300
  413WAT     H1 1758   5.427   3.934   3.328
  413WAT     H2 1759   5.291   3.987   3.289
  414WAT      O 1760   6.056   4.044   3.712
  414WAT     H1 1761   6.102   4.125   3.735
  414WAT     H2 1762   6.021   4.012   3.795
  415WAT      O 1763   6.287   4.595   4.435
  415WAT     H1 1764   6.351   4.616   4.503
  415WAT     H2 1765   6.323   4.519   4.390
  416WAT      O 1766   5.647   3.079   3.759
  416WAT     H1 1767   5.634   3.078   3.854
  416WAT     H2 1768   5.564   3.112   3.724
  417WAT      O 1769   6.414   4.396   4.307
  417WAT     H1 1770   6.478   4.325   4.318
  417WAT     H2 1771   6.467   4.473   4.289
  418WAT      O 1772   6.591   4.475   4.627
  418WAT     H1 1773   6.625   4.534   4.695
  418WAT     H2 1774   6.499   4.462   4.650
  419WAT      O 1775   5.377   4.827   3.357
  419WAT     H1 1776   5.413   4.887   3.291
  419WAT     H2 1777   5.363   4.881   3.434
  420WAT      O 1778   5.346   3.254   4.705
  420WAT     H1 1779   5.275   3.274   4.766
  420WAT     H2 1780   5.388   3.177   4.743
  421WAT      O 1781   5.375   4.653   4.804
  421WAT     H1 1782   5.386   4.559   4.790
  421WAT     H2 1783   5.310   4.680   4.739
  422WAT      O 1784   6.174   4.480   4.944
  422WAT     H1 1785   6.142   4.408   4.999
  422WAT     H2 1786   6.107   4.548   4.951
  423WAT      O 1787   5.978   4.565   3.438
  423WAT     H1 1788   5.978   4.638   3.377
  423WAT     H2 1789   5.886   4.540   3.448
  424WAT      O 1790   5.539   4.087   3.513
  424WAT     H1 1791   5.478   4.161   3.514
  424WAT     H2 1792   5.586   4.096   3.430
  425WAT      O 1793   6.496   3.504   4.480
  425WAT     H1 1794   6.533   3.422   4.513
  425WAT     H2 1795   6.410   3.510   4.522
  426WAT      O 1796   6.277   4.571   3.305
  426WAT     H1 1797   6.287   4.551   3.212
  426WAT     H2 1798   6.187   4.546   3.325
  427WAT      O 1799   6.029   3.627   3.703
  427WAT     H1 1800   5.958   3.674   3.747
  427WAT     H2 1801   6.058   3.561   3.766
  428WAT      O 1802   6.192   3.769   4.503
  428WAT     H1 1803   6.242   3.816   4.569
  428WAT     H2 1804   6.206   3.677   4.524
  429WAT      O 1805   6.432   3.300   3.847
  429WAT     H1 1806   6.420   3.301   3.752
  429WAT     H2 1807   6.527   3.304   3.859
  430WAT      O 1808   6.141   4.823   3.774
  430WAT     H1 1809   6.167   4.819   3.682
  430WAT     H2 1810   6.046   4.810   3.773
  431WAT      O 1811   5.850   3.458   3.440
  431WAT     H1 1812   5.935   3.502   3.434
  431WAT     H2 1813   5.813   3.489   3.523
  432WAT      O 1814   5.740   4.083   3.288
  432WAT     H1 1815   5.816   4.072   3.344
  432WAT     H2 1816   5.747   4.014   3.223
  433WAT      O 1817   5.609   3.826   3.356
  433WAT     H1 1818   5.617   3.732   3.367
  433WAT     H2 1819   5.698   3.860   3.367
  434WAT      O 1820   5.689   4.841   4.066
  434WAT     H1 1821   5.763   4.787   4.093
  434WAT     H2 1822   5.728   4.928   4.052
  435WAT      O 1823   5.378   4.448   3.654
  435WAT     H1 1824   5.285   4.472   3.653
  435WAT     H2 1825   5.424   4.531   3.642
  436WAT      O 1826   5.590   4.760   4.985
  436WAT     H1 1827   5.670   4.792   5.027
  436WAT     H2 1828   5.538   4.724   5.057
  437WAT      O 1829   6.000   4.759   3.249
  437WAT     H1 1830   6.080   4.788   3.203
  437WAT     H2 1831   5.948   4.716   3.181
  438WAT      O 1832   6.473   4.371   4.980
  438WAT     H1 1833   6.413   4.373   4.906
  438WAT     H2 1834   6.443   4.298   5.034
  439WAT      O 1835   5.362   4.009   4.880
  439WAT     H1 1836   5.412   3.951   4.937
  439WAT     H2 1837   5.288   4.037   4.933
  440WAT      O 1838   6.052   4.281   3.235
  440WAT     H1 1839   6.042   4.219   3.308
  440WAT     H2 1840   6.035   4.228   3.157
  441WAT      O 1841   6.067   4.149   4.833
  441WAT     H1 1842   5.991   4.206   4.825
  441WAT     H2 1843   6.085   4.120   4.744
  442WAT      O 1844   6.376   4.187   3.296
  442WAT     H1 1845   6.321   4.232   3.360
  442WAT     H2 1846   6.438   4.136   3.348
  443WAT      O 1847   5.565   3.823   4.969
  443WAT     H1 1848   5.569   3.793   5.060
  443WAT     H2 1849   5.650   3.863   4.953
  444WAT      O 1850   5.943   4.083   3.485
  444WAT     H1 1851   5.985   4.066   3.569
  444WAT     H2 1852   5.955   4.002   3.436
  445WAT      O 1853   5.759   3.681   4.766
  445WAT     H1 1854   5.706   3.632   4.703
  445WAT     H2 1855   5.826   3.724   4.712
  446WAT      O 1856   6.194   3.985   3.210
  446WAT     H1 1857   6.246   3.914   3.173
  446WAT     H2 1858   6.259   4.049   3.240
  447WAT      O 1859   5.808   3.377   4.774
  447WAT     H1 1860   5.798   3.316   4.701
  447WAT     H2 1861   5.750   3.450   4.751
  448WAT      O 1862   6.084   3.233   4.477
  448WAT     H1 1863   6.040   3.235   4.393
  448WAT     H2 1864   6.021   3.193   4.537
  449WAT      O 1865   6.125   4.123   4.539
  449WAT     H1 1866   6.167   4.207   4.522
  449WAT     H2 1867   6.033   4.136   4.516
  450WAT      O 1868   6.359   3.896   4.678
  450WAT     H1 1869   6.371   3.836   4.752
  450WAT     H2 1870   6.445   3.900   4.636
  451WAT      O 1871   5.832   3.690   3.180
  451WAT     H1 1872   5.812   3.604   3.216
  451WAT     H2 1873   5.815   3.682   3.086
  452WAT      O 1874   5.910   4.753   4.651
  452WAT     H1 1875   5.856   4.826   4.619
  452WAT     H2 1876   5.935   4.706   4.572
  453WAT      O 1877   6.035   3.550   4.803
  453WAT     H1 1878   6.094   3.519   4.872
  453WAT     H2 1879   5.954   3.503   4.819
  454WAT      O 1880   6.517   3.512   4.827
  454WAT     H1 1881   6.448   3.446   4.820
  454WAT     H2 1882   6.589   3.467   4.871
  455WAT      O 1883   6.580   3.171   3.433
  455WAT     H1 1884   6.608   3.087   3.468
  455WAT     H2 1885   6.503   3.195   3.484
  456WAT      O 1886   5.712   3.400   3.179
  456WAT     H1 1887   5.742   3.401   3.088
  456WAT     H2 1888   5.786   3.365   3.228
  457WAT      O 1889   6.196   4.877   4.677
  457WAT     H1 1890   6.188   4.967   4.707
  457WAT     H2 1891   6.105   4.845   4.674
  458WAT      O 1892   6.034   3.295   3.277
  458WAT     H1 1893   5.999   3.227   3.219
  458WAT     H2 1894   6.054   3.248   3.359
  459WAT      O 1895   6.251   4.793   3.439
  459WAT     H1 1896   6.340   4.827   3.441
  459WAT     H2 1897   6.254   4.721   3.376
  460WAT      O 1898   5.615   4.331   3.262
  460WAT     H1 1899   5.658   4.385   3.327
  460WAT     H2 1900   5.663   4.248   3.263
  461WAT      O 1901   5.336   4.610   4.007
  461WAT     H1 1902   5.369   4.523   3.984
  461WAT     H2 1903   5.379   4.630   4.090
  462WAT      O 1904   5.796   4.443   3.773
  462WAT     H1 1905   5.766   4.430   3.863
  462WAT     H2 1906   5.785   4.357   3.732
  463WAT      O 1907   5.385   4.696   4.281
  463WAT     H1 1908   5.341   4.714   4.364
  463WAT     H2 1909   5.442   4.772   4.267
  464WAT      O 1910   5.368   3.947   3.917
  464WAT     H1 1911   5.303   3.921   3.852
  464WAT     H2 1912   5.452   3.936   3.872
  465WAT      O 1913   5.472   3.986   4.371
  465WAT     H1 1914   5.509   3.977   4.459
  465WAT     H2 1915   5.415   3.910   4.361
  466WAT      O 1916   5.427   3.677   4.761
  466WAT     H1 1917   5.338   3.674   4.795
  466WAT     H2 1918   5.481   3.697   4.838
  467WAT      O 1919   5.544   3.574   3.302
  467WAT     H1 1920   5.615   3.532   3.253
  467WAT     H2 1921   5.472   3.581   3.239
  468WAT      O 1922   5.509   3.179   3.206
  468WAT     H1 1923   5.581   3.234   3.238
  468WAT     H2 1924   5.536   3.152   3.118
  469WAT      O 1925   5.477   3.105   4.196
  469WAT     H1 1926   5.542   3.050   4.152
  469WAT     H2 1927   5.519   3.130   4.278
  470WAT      O 1928   5.453   3.120   4.470
  470WAT     H1 1929   5.418   3.166   4.547
  470WAT     H2 1930   5.420   3.031   4.479
  471WAT      O 1931   5.613   4.437   4.887
  471WAT     H1 1932   5.609   4.400   4.975
  471WAT     H2 1933   5.627   4.531   4.901
  472WAT      O 1934   5.983   4.593   4.447
  472WAT     H1 1935   5.959   4.620   4.358
  472WAT     H2 1936   6.077   4.610   4.453
  473WAT      O 1937   6.204   3.239   4.823
  473WAT     H1 1938   6.198   3.298   4.898
  473WAT     H2 1939   6.298   3.228   4.808
  474WAT      O 1940   6.468   3.205   4.787
  474WAT     H1 1941   6.529   3.237   4.720
  474WAT     H2 1942   6.522   3.156   4.849
  475WAT      O 1943   5.520   3.073   4.798
  475WAT     H1 1944   5.575   3.055   4.722
  475WAT     H2 1945   5.527   2.994   4.852
  476WAT      O 1946   5.597   4.732   4.599
  476WAT     H1 1947   5.538   4.719   4.673
  476WAT     H2 1948   5.597   4.648   4.552
  477WAT      O 1949   6.542   3.061   4.419
  477WAT     H1 1950   6.454   3.095   4.399
  477WAT     H2 1951   6.531   3.014   4.502
  478WAT      O 1952   5.560   4.469   4.494
  478WAT     H1 1953   5.488   4.407   4.487
  478WAT     H2 1954   5.566   4.508   4.407
  479WAT      O 1955   5.921   4.690   4.173
  479WAT     H1 1956   5.972   4.629   4.120
  479WAT     H2 1957   5.986   4.740   4.222
  480WAT      O 1958   6.195   4.779   4.255
  480WAT     H1 1959   6.224   4.754   4.168
  480WAT     H2 1960   6.246   4.724   4.314
  481WAT      O 1961   6.317   3.153   4.313
  481WAT     H1 1962   6.238   3.200   4.341
  481WAT     H2 1963   6.287   3.062   4.302
  482WAT      O 1964   5.389   4.800   3.815
  482WAT     H1 1965   5.372   4.737   3.885
  482WAT     H2 1966   5.302   4.821   3.780
  483WAT      O 1967   5.451   3.183   3.565
  483WAT     H1 1968   5.527   3.195   3.508
  483WAT     H2 1969   5.405   3.267   3.561
  484WAT      O 1970   6.105   3.395   3.864
  484WAT     H1 1971   6.024   3.357   3.830
  484WAT     H2 1972   6.156   3.319   3.895
  485WAT      O 1973   6.555   3.061   3.988
  485WAT     H1 1974   6.616   3.118   4.036
  485WAT     H2 1975   6.481   3.118   3.966
  486WAT      O 1976   5.549   4.670   3.559
  486WAT     H1 1977   5.497   4.708   3.489
  486WAT     H2 1978   5.542   4.732   3.632
  487WAT      O 1979   5.688   3.236   3.419
  487WAT     H1 1980   5.741   3.157   3.406
  487WAT     H2 1981   5.752   3.304   3.443
  488WAT      O 1982   5.908   3.210   3.725
  488WAT     H1 1983   5.845   3.140   3.741
  488WAT     H2 1984   5.854   3.286   3.703
  489WAT      O 1985   6.202   4.871   4.992
  489WAT     H1 1986   6.294   4.848   4.996
  489WAT     H2 1987   6.200   4.954   4.944
  490WAT      O 1988   5.920   3.138   4.968
  490WAT     H1 1989   5.892   3.188   4.892
  490WAT     H2 1990   5.958   3.058   4.932
  491WAT      O 1991   5.809   4.864   3.447
  491WAT     H1 1992   5.882   4.836   3.392
  491WAT     H2 1993   5.835   4.841   3.536
  492WAT      O 1994   5.725   4.476   3.447
  492WAT     H1 1995   5.662   4.523   3.502
  492WAT     H2 1996   5.737   4.392   3.491
  493WAT      O 1997   6.471   3.881   2.062
  493WAT     H1 1998   6.463   3.790   2.035
  493WAT     H2 1999   6.430   3.931   1.992
  494WAT      O 2000   6.284   4.059   2.251
  494WAT     H1 2001   6.207   4.011   2.280
  494WAT     H2 2002   6.349   3.991   2.233
  495WAT      O 2003   5.686   4.090   2.338
  495WAT     H1 2004   5.603   4.065   2.378
  495WAT     H2 2005   5.747   4.097   2.412
  496WAT      O 2006   5.684   4.494   2.358
  496WAT     H1 2007   5.714   4.404   2.340
  496WAT     H2 2008   5.758   4.549   2.335
  497WAT      O 2009   5.527   3.586   1.717
  497WAT     H1 2010   5.438   3.620   1.707
  497WAT     H2 2011   5.555   3.566   1.628
  498WAT      O 2012   5.323   3.846   2.305
  498WAT     H1 2013   5.380   3.769   2.305
  498WAT     H2 2014   5.323   3.876   2.214
  499WAT      O 2015   6.309   4.728   2.091
  499WAT     H1 2016   6.247   4.774   2.034
  499WAT     H2 2017   6.394   4.744   2.050
  500WAT      O 2018   6.228   4.326   2.251
  500WAT     H1 2019   6.221   4.232   2.235
  500WAT     H2 2020   6.304   4.335   2.308
  501WAT      O 2021   5.447   3.387   2.484
  501WAT     H1 2022   5.429   3.297   2.512
  501WAT     H2 2023   5.407   3.442   2.551
  502WAT      O 2024   6.331   3.607   2.274
  502WAT     H1 2025   6.369   3.520   2.263
  502WAT     H2 2026   6.321   3.641   2.185
  503WAT      O 2027   5.744   3.444   1.820
  503WAT     H1 2028   5.755   3.534   1.851
  503WAT     H2 2029   5.653   3.440   1.791
  504WAT      O 2030   5.509   3.637   2.345
  504WAT     H1 2031   5.577   3.663   2.407
  504WAT     H2 2032   5.478   3.553   2.378
  505WAT      O 2033   5.928   3.741   2.253
  505WAT     H1 2034   5.979   3.791   2.317
  505WAT     H2 2035   5.981   3.664   2.236
  506WAT      O 2036   5.757   3.205   2.680
  506WAT     H1 2037   5.757   3.257   2.599
  506WAT     H2 2038   5.674   3.158   2.678
  507WAT      O 2039   6.395   4.216   1.830
  507WAT     H1 2040   6.334   4.263   1.774
  507WAT     H2 2041   6.447   4.286   1.872
  508WAT      O 2042   5.882   4.169   2.498
  508WAT     H1 2043   5.848   4.232   2.562
  508WAT     H2 2044   5.899   4.222   2.420
  509WAT      O 2045   5.725   3.376   2.481
  509WAT     H1 2046   5.759   3.461   2.451
  509WAT     H2 2047   5.631   3.391   2.492
  510WAT      O 2048   5.803   4.366   2.679
  510WAT     H1 2049   5.865   4.434   2.651
  510WAT     H2 2050   5.717   4.407   2.670
  511WAT      O 2051   5.332   4.285   1.567
  511WAT     H1 2052   5.295   4.334   1.494
  511WAT     H2 2053   5.358   4.352   1.630
  512WAT      O 2054   6.093   3.125   2.113
  512WAT     H1 2055   6.124   3.070   2.042
  512WAT     H2 2056   6.000   3.139   2.095
  513WAT      O 2057   6.332   3.932   1.787
  513WAT     H1 2058   6.239   3.925   1.810
  513WAT     H2 2059   6.347   4.026   1.775
  514WAT      O 2060   6.331   3.559   1.486
  514WAT     H1 2061   6.237   3.575   1.495
  514WAT     H2 2062   6.362   3.631   1.432
  515WAT      O 2063   5.893   3.984   2.065
  515WAT     H1 2064   5.852   3.913   2.015
  515WAT     H2 2065   5.901   3.950   2.154
  516WAT      O 2066   5.939   4.353   2.281
  516WAT     H1 2067   5.910   4.292   2.213
  516WAT     H2 2068   6.034   4.357   2.270
  517WAT      O 2069   5.764   3.662   2.443
  517WAT     H1 2070   5.819   3.673   2.365
  517WAT     H2 2071   5.815   3.699   2.514
  518WAT      O 2072   5.849   4.327   2.946
  518WAT     H1 2073   5.759   4.349   2.971
  518WAT     H2 2074   5.851   4.339   2.852
  519WAT      O 2075   6.553   4.012   1.538
  519WAT     H1 2076   6.597   3.928   1.523
  519WAT     H2 2077   6.624   4.075   1.546
  520WAT      O 2078   5.731   4.014   2.804
  520WAT     H1 2079   5.717   4.101   2.841
  520WAT     H2 2080   5.643   3.980   2.789
  521WAT      O 2081   6.364   4.506   1.935
  521WAT     H1 2082   6.407   4.580   1.893
  521WAT     H2 2083   6.357   4.530   2.027
  522WAT      O 2084   5.911   4.608   3.025
  522WAT     H1 2085   5.908   4.649   2.938
  522WAT     H2 2086   5.895   4.515   3.009
  523WAT      O 2087   5.563   3.874   1.815
  523WAT     H1 2088   5.551   3.946   1.754
  523WAT     H2 2089   5.532   3.797   1.767
  524WAT      O 2090   5.326   4.191   2.396
  524WAT     H1 2091   5.334   4.204   2.301
  524WAT     H2 2092   5.388   4.120   2.415
  525WAT      O 2093   5.451   4.361   2.037
  525WAT     H1 2094   5.410   4.375   1.951
  525WAT     H2 2095   5.540   4.333   2.016
  526WAT      O 2096   6.433   4.776   2.727
  526WAT     H1 2097   6.484   4.767   2.808
  526WAT     H2 2098   6.348   4.810   2.757
  527WAT      O 2099   5.878   4.782   1.848
  527WAT     H1 2100   5.861   4.691   1.827
  527WAT     H2 2101   5.793   4.818   1.872
  528WAT      O 2102   6.557   4.718   1.934
  528WAT     H1 2103   6.603   4.640   1.965
  528WAT     H2 2104   6.591   4.789   1.988
  529WAT      O 2105   5.332   4.295   2.650
  529WAT     H1 2106   5.348   4.248   2.568
  529WAT     H2 2107   5.379   4.244   2.716
  530WAT      O 2108   5.809   3.208   2.153
  530WAT     H1 2109   5.765   3.286   2.120
  530WAT     H2 2110   5.865   3.240   2.224
  531WAT      O 2111   6.238   3.495   2.714
  531WAT     H1 2112   6.192   3.516   2.795
  531WAT     H2 2113   6.198   3.413   2.683
  532WAT      O 2114   6.447   3.767   3.037
  532WAT     H1 2115   6.480   3.684   3.003
  532WAT     H2 2116   6.526   3.819   3.051
  533WAT      O 2117   6.121   3.170   1.641
  533WAT     H1 2118   6.058   3.170   1.714
  533WAT     H2 2119   6.112   3.084   1.602
  534WAT      O 2120   6.013   3.263   2.339
  534WAT     H1 2121   6.043   3.353   2.331
  534WAT     H2 2122   6.068   3.214   2.278
  535WAT      O 2123   5.788   3.720   1.926
  535WAT     H1 2124   5.766   3.699   2.017
  535WAT     H2 2125   5.710   3.764   1.892
  536WAT      O 2126   6.511   3.721   1.786
  536WAT     H1 2127   6.451   3.793   1.768
  536WAT     H2 2128   6.566   3.715   1.708
  537WAT      O 2129   6.032   3.810   2.993
  537WAT     H1 2130   6.023   3.716   2.978
  537WAT     H2 2131   6.117   3.832   2.953
  538WAT      O 2132   6.372   3.585   1.989
  538WAT     H1 2133   6.411   3.616   1.908
  538WAT     H2 2134   6.408   3.497   2.000
  539WAT      O 2135   5.545   3.451   2.808
  539WAT     H1 2136   5.506   3.536   2.829
  539WAT     H2 2137   5.477   3.388   2.827
  540WAT      O 2138   6.203   3.460   3.115
  540WAT     H1 2139   6.134   3.441   3.178
  540WAT     H2 2140   6.277   3.488   3.168
  541WAT      O 2141   5.276   3.244   2.211
  541WAT     H1 2142   5.247   3.301   2.283
  541WAT     H2 2143   5.350   3.196   2.248
  542WAT      O 2144   5.294   3.638   1.332
  542WAT     H1 2145   5.286   3.732   1.346
  542WAT     H2 2146   5.259   3.624   1.244
  543WAT      O 2147   6.431   3.844   2.399
  543WAT     H1 2148   6.357   3.895   2.433
  543WAT     H2 2149   6.391   3.762   2.368
  544WAT      O 2150   6.074   3.511   2.239
  544WAT     H1 2151   6.075   3.467   2.154
  544WAT     H2 2152   6.164   3.544   2.250
  545WAT      O 2153   5.659   3.500   2.135
  545WAT     H1 2154   5.625   3.547   2.211
  545WAT     H2 2155   5.583   3.454   2.099
  546WAT      O 2156   6.080   3.611   1.538
  546WAT     H1 2157   6.093   3.607   1.633
  546WAT     H2 2158   6.042   3.698   1.523
  547WAT      O 2159   6.477   3.389   2.340
  547WAT     H1 2160   6.479   3.434   2.424
  547WAT     H2 2161   6.452   3.299   2.361
  548WAT      O 2162   5.982   3.842   1.478
  548WAT     H1 2163   5.925   3.798   1.415
  548WAT     H2 2164   6.053   3.878   1.425
  549WAT      O 2165   5.489   4.233   2.866
  549WAT     H1 2166   5.451   4.169   2.925
  549WAT     H2 2167   5.521   4.303   2.923
  550WAT      O 2168   6.104   3.917   2.414
  550WAT     H1 2169   6.141   3.870   2.488
  550WAT     H2 2170   6.085   4.005   2.448
  551WAT      O 2171   5.391   3.392   2.027
  551WAT     H1 2172   5.362   3.355   2.110
  551WAT     H2 2173   5.385   3.319   1.965
  552WAT      O 2174   5.883   3.821   2.646
  552WAT     H1 2175   5.853   3.909   2.668
  552WAT     H2 2176   5.979   3.827   2.649
  553WAT      O 2177   5.736   4.242   1.705
  553WAT     H1 2178   5.659   4.188   1.689
  553WAT     H2 2179   5.809   4.190   1.671
  554WAT      O 2180   6.358   3.281   1.699
  554WAT     H1 2181   6.277   3.231   1.691
  554WAT     H2 2182   6.339   3.365   1.657
  555WAT      O 2183   6.350   4.149   2.873
  555WAT     H1 2184   6.344   4.057   2.848
  555WAT     H2 2185   6.287   4.159   2.945
  556WAT      O 2186   5.741   4.209   2.069
  556WAT     H1 2187   5.792   4.129   2.064
  556WAT     H2 2188   5.695   4.203   2.153
  557WAT      O 2189   6.229   4.336   1.596
  557WAT     H1 2190   6.263   4.410   1.547
  557WAT     H2 2191   6.146   4.367   1.633
  558WAT      O 2192   5.489   3.905   2.760
  558WAT     H1 2193   5.453   3.972   2.819
  558WAT     H2 2194   5.460   3.822   2.797
  559WAT      O 2195   5.809   3.951   3.049
  559WAT     H1 2196   5.779   3.966   2.959
  559WAT     H2 2197   5.886   3.895   3.039
  560WAT      O 2198   6.343   4.431   2.848
  560WAT     H1 2199   6.345   4.338   2.826
  560WAT     H2 2200   6.273   4.440   2.912
  561WAT      O 2201   6.518   4.268   2.133
  561WAT     H1 2202   6.553   4.208   2.067
  561WAT     H2 2203   6.429   4.235   2.150
  562WAT      O 2204   6.126   4.344   1.873
  562WAT     H1 2205   6.195   4.398   1.912
  562WAT     H2 2206   6.047   4.398   1.877
  563WAT      O 2207   5.340   3.905   1.423
  563WAT     H1 2208   5.427   3.934   1.451
  563WAT     H2 2209   5.291   3.987   1.411
  564WAT      O 2210   6.056   4.044   1.835
  564WAT     H1 2211   6.102   4.125   1.857
  564WAT     H2 2212   6.021   4.012   1.918
  565WAT      O 2213   6.287   4.595   2.558
  565WAT     H1 2214   6.351   4.616   2.625
  565WAT     H2 2215   6.323   4.519   2.512
  566WAT      O 2216   5.647   3.079   1.882
  566WAT     H1 2217   5.634   3.078   1.977
  566WAT     H2 2218   5.564   3.112   1.847
  567WAT      O 2219   6.414   4.396   2.429
  567WAT     H1 2220   6.478   4.325   2.441
  567WAT     H2 2221   6.467   4.473   2.411
  568WAT      O 2222   6.591   4.475   2.750
  568WAT     H1 2223   6.625   4.534   2.818
  568WAT     H2 2224   6.499   4.462   2.773
  569WAT      O 2225   5.377   4.827   1.479
  569WAT     H1 2226   5.413   4.887   1.414
  569WAT     H2 2227   5.363   4.881   1.557
  570WAT      O 2228   5.346   3.254   2.828
  570WAT     H1 2229   5.275   3.274   2.888
  570WAT     H2 2230   5.388   3.177   2.865
  571WAT      O 2231   5.375   4.653   2.927
  571WAT     H1 2232   5.386   4.559   2.913
  571WAT     H2 2233   5.310   4.680   2.862
  572WAT      O 2234   6.174   4.480   3.067
  572WAT     H1 2235   6.142   4.408   3.121
  572WAT     H2 2236   6.107   4.548   3.074
  573WAT      O 2237   5.978   4.565   1.561
  573WAT     H1 2238   5.978   4.638   1.499
  573WAT     H2 2239   5.886   4.540   1.570
  574WAT      O 2240   5.539   4.087   1.635
  574WAT     H1 2241   5.478   4.161   1.636
  574WAT     H2 2242   5.586   4.096   1.553
  575WAT      O 2243   6.496   3.504   2.603
  575WAT     H1 2244   6.533   3.422   2.636
  575WAT     H2 2245   6.410   3.510   2.645
  576WAT      O 2246   6.277   4.571   1.427
  576WAT     H1 2247   6.287   4.551   1.334
  576WAT     H2 2248   6.187   4.546   1.448
  577WAT      O 2249   6.029   3.627   1.825
  577WAT     H1 2250   5.958   3.674   1.870
  577WAT     H2 2251   6.058   3.561   1.889
  578WAT      O 2252   6.192   3.769   2.625
  578WAT     H1 2253   6.242   3.816   2.692
  578WAT     H2 2254   6.206   3.677   2.646
  579WAT      O 2255   6.432   3.300   1.969
  579WAT     H1 2256   6.420   3.301   1.874
  579WAT     H2 2257   6.527   3.304   1.981
  580WAT      O 2258   6.141   4.823   1.897
  580WAT     H1 2259   6.167   4.819   1.804
  580WAT     H2 2260   6.046   4.810   1.896
  581WAT      O 2261   5.850   3.458   1.563
  581WAT     H1 2262   5.935   3.502   1.556
  581WAT     H2 2263   5.813   3.489   1.646
  582WAT      O 2264   5.740   4.083   1.410
  582WAT     H1 2265   5.816   4.072   1.467
  582WAT     H2 2266   5.747   4.014   1.345
  583WAT      O 2267   5.609   3.826   1.479
  583WAT     H1 2268   5.617   3.732   1.490
  583WAT     H2 2269   5.698   3.860   1.489
  584WAT      O 2270   5.689   4.841   2.189
  584WAT     H1 2271   5.763   4.787   2.216
  584WAT     H2 2272   5.728   4.928   2.175
  585WAT      O 2273   5.378   4.448   1.776
  585WAT     H1 2274   5.285   4.472   1.775
  585WAT     H2 2275   5.424   4.531   1.764
  586WAT      O 2276   5.590   4.760   3.108
  586WAT     H1 2277   5.670   4.792   3.149
  586WAT     H2 2278   5.538   4.724   3.180
  587WAT      O 2279   6.000   4.759   1.371
  587WAT     H1 2280   6.080   4.788   1.326
  587WAT     H2 2281   5.948   4.716   1.303
  588WAT      O 2282   6.473   4.371   3.103
  588WAT     H1 2283   6.413   4.373   3.029
  588WAT     H2 2284   6.443   4.298   3.156
  589WAT      O 2285   5.362   4.009   3.002
  589WAT     H1 2286   5.412   3.951   3.059
  589WAT     H2 2287   5.288   4.037   3.056
  590WAT      O 2288   6.052   4.281   1.358
  590WAT     H1 2289   6.042   4.219   1.430
  590WAT     H2 2290   6.035   4.228   1.279
  591WAT      O 2291   6.067   4.149   2.956
  591WAT     H1 2292   5.991   4.206   2.947
  591WAT     H2 2293   6.085   4.120   2.866
  592WAT      O 2294   6.376   4.187   1.418
  592WAT     H1 2295   6.321   4.232   1.483
  592WAT     H2 2296   6.438   4.136   1.470
  593WAT      O 2297   5.565   3.823   3.092
  593WAT     H1 2298   5.569   3.793   3.183
  593WAT     H2 2299   5.650   3.863   3.076
  594WAT      O 2300   5.943   4.083   1.608
  594WAT     H1 2301   5.985   4.066   1.692
  594WAT     H2 2302   5.955   4.002   1.558
  595WAT      O 2303   5.759   3.681   2.888
  595WAT     H1 2304   5.706   3.632   2.826
  595WAT     H2 2305   5.826   3.724   2.835
  596WAT      O 2306   6.194   3.985   1.333
  596WAT     H1 2307   6.246   3.914   1.296
  596WAT     H2 2308   6.259   4.049   1.363
  597WAT      O 2309   5.808   3.377   2.896
  597WAT     H1 2310   5.798   3.316   2.824
  597WAT     H2 2311   5.750   3.450   2.874
  598WAT      O 2312   6.084   3.233   2.600
  598WAT     H1 2313   6.040   3.235   2.515
  598WAT     H2 2314   6.021   3.193   2.659
  599WAT      O 2315   6.125   4.123   2.662
  599WAT     H1 2316   6.167   4.207   2.645
  599WAT     H2 2317   6.033   4.136   2.639
  600WAT      O 2318   6.359   3.896   2.800
  600WAT     H1 2319   6.371   3.836   2.874
  600WAT     H2 2320   6.445   3.900   2.758
  601WAT      O 2321   5.832   3.690   1.302
  601WAT     H1 2322   5.812   3.604   1.338
  601WAT     H2 2323   5.815   3.682   1.209
  602WAT      O 2324   5.910   4.753   2.773
  602WAT     H1 2325   5.856   4.826   2.741
  602WAT     H2 2326   5.935   4.706   2.694
  603WAT      O 2327   6.035   3.550   2.926
  603WAT     H1 2328   6.094   3.519   2.995
  603WAT     H2 2329   5.954   3.503   2.942
  604WAT      O 2330   6.517   3.512   2.949
  604WAT     H1 2331   6.448   3.446   2.943
  604WAT     H2 2332   6.589   3.467   2.994
  605WAT      O 2333   6.580   3.171   1.555
  605WAT     H1 2334   6.608   3.087   1.591
  605WAT     H2 2335   6.503   3.195   1.607
  606WAT      O 2336   5.712   3.400   1.301
  606WAT     H1 2337   5.742   3.401   1.210
  606WAT     H2 2338   5.786   3.365   1.351
  607WAT      O 2339   6.196   4.877   2.799
  607WAT     H1 2340   6.188   4.967   2.830
  607WAT     H2 2341   6.105   4.845   2.796
  608WAT      O 2342   6.034   3.295   1.400
  608WAT     H1 2343   5.999   3.227   1.342
  608WAT     H2 2344   6.054   3.248   1.481
  609WAT      O 2345   6.251   4.793   1.562
  609WAT     H1 2346   6.340   4.827   1.564
  609WAT     H2 2347   6.254   4.721   1.499
  610WAT      O 2348   5.615   4.331   1.384
  610WAT     H1 2349   5.658   4.385   1.450
  610WAT     H2 2350   5.663   4.248   1.385
  611WAT      O 2351   5.336   4.610   2.130
  611WAT     H1 2352   5.369   4.523   2.106
  611WAT     H2 2353   5.379   4.630   2.213
  612WAT      O 2354   5.796   4.443   1.896
  612WAT     H1 2355   5.766   4.430   1.986
  612WAT     H2 2356   5.785   4.357   1.855
  613WAT      O 2357   5.385   4.696   2.403
  613WAT     H1 2358   5.341   4.714   2.487
  613WAT     H2 2359   5.442   4.772   2.389
  614WAT      O 2360   5.368   3.947   2.039
  614WAT     H1 2361   5.303   3.921   1.975
  614WAT     H2 2362   5.452   3.936   1.994
  615WAT      O 2363   5.472   3.986   2.493
  615WAT     H1 2364   5.509   3.977   2.581
  615WAT     H2 2365   5.415   3.910   2.483
  616WAT      O 2366   5.427   3.677   2.884
  616WAT     H1 2367   5.338   3.674   2.918
  616WAT     H2 2368   5.481   3.697   2.960
  617WAT      O 2369   5.289   3.668   1.634
  617WAT     H1 2370   5.199   3.695   1.616
  617WAT     H2 2371   5.338   3.696   1.556
  618WAT      O 2372   5.544   3.574   1.424
  618WAT     H1 2373   5.615   3.532   1.376
  618WAT     H2 2374   5.472   3.581   1.361
  619WAT      O 2375   5.509   3.179   1.329
  619WAT     H1 2376   5.581   3.234   1.360
  619WAT     H2 2377   5.536   3.152   1.241
  620WAT      O 2378   5.477   3.105   2.319
  620WAT     H1 2379   5.542   3.050   2.275
  620WAT     H2 2380   5.519   3.130   2.401
  621WAT      O 2381   5.453   3.120   2.593
  621WAT     H1 2382   5.418   3.166   2.670
  621WAT     H2 2383   5.420   3.031   2.601
  622WAT      O 2384   5.613   4.437   3.010
  622WAT     H1 2385   5.609   4.400   3.098
  622WAT     H2 2386   5.627   4.531   3.024
  623WAT      O 2387   5.983   4.593   2.570
  623WAT     H1 2388   5.959   4.620   2.481
  623WAT     H2 2389   6.077   4.610   2.575
  624WAT      O 2390   6.204   3.239   2.945
  624WAT     H1 2391   6.198   3.298   3.020
  624WAT     H2 2392   6.298   3.228   2.931
  625WAT      O 2393   6.468   3.205   2.909
  625WAT     H1 2394   6.529   3.237   2.843
  625WAT     H2 2395   6.522   3.156   2.971
  626WAT      O 2396   5.520   3.073   2.921
  626WAT     H1 2397   5.575   3.055   2.844
  626WAT     H2 2398   5.527   2.994   2.974
  627WAT      O 2399   5.597   4.732   2.722
  627WAT     H1 2400   5.538   4.719   2.795
  627WAT     H2 2401   5.597   4.648   2.675
  628WAT      O 2402   6.542   3.061   2.542
  628WAT     H1 2403   6.454   3.095   2.522
  628WAT     H2 2404   6.531   3.014   2.624
  629WAT      O 2405   5.560   4.469   2.617
  629WAT     H1 2406   5.488   4.407   2.610
  629WAT     H2 2407   5.566   4.508   2.530
  630WAT      O 2408   5.921   4.690   2.295
  630WAT     H1 2409   5.972   4.629   2.243
  630WAT     H2 2410   5.986   4.740   2.344
  631WAT      O 2411   6.195   4.779   2.378
  631WAT     H1 2412   6.224   4.754   2.290
  631WAT     H2 2413   6.246   4.724   2.437
  632WAT      O 2414   6.317   3.153   2.436
  632WAT     H1 2415   6.238   3.200   2.464
  632WAT     H2 2416   6.287   3.062   2.425
  633WAT      O 2417   5.389   4.800   1.938
  633WAT     H1 2418   5.372   4.737   2.007
  633WAT     H2 2419   5.302   4.821   1.902
  634WAT      O 2420   5.451   3.183   1.688
  634WAT     H1 2421   5.527   3.195   1.631
  634WAT     H2 2422   5.405   3.267   1.683
  635WAT      O 2423   6.105   3.395   1.987
  635WAT     H1 2424   6.024   3.357   1.953
  635WAT     H2 2425   6.156   3.319   2.017
  636WAT      O 2426   6.555   3.061   2.111
  636WAT     H1 2427   6.616   3.118   2.158
  636WAT     H2 2428   6.481   3.118   2.088
  637WAT      O 2429   5.549   4.670   1.682
  637WAT     H1 2430   5.497   4.708   1.612
  637WAT     H2 2431   5.542   4.732   1.754
  638WAT      O 2432   5.688   3.236   1.542
  638WAT     H1 2433   5.741   3.157   1.529
  638WAT     H2 2434   5.752   3.304   1.565
  639WAT      O 2435   5.908   3.210   1.847
  639WAT     H1 2436   5.845   3.140   1.864
  639WAT     H2 2437   5.854   3.286   1.826
  640WAT      O 2438   6.202   4.871   3.114
  640WAT     H1 2439   6.294   4.848   3.119
  640WAT     H2 2440   6.200   4.954   3.066
  641WAT      O 2441   5.920   3.138   3.091
  641WAT     H1 2442   5.892   3.188   3.014
  641WAT     H2 2443   5.958   3.058   3.054
  642WAT      O 2444   5.809   4.864   1.570
  642WAT     H1 2445   5.882   4.836   1.515
  642WAT     H2 2446   5.835   4.841   1.659
  643WAT      O 2447   5.725   4.476   1.570
  643WAT     H1 2448   5.662   4.523   1.625
  643WAT     H2 2449   5.737   4.392   1.613
  644WAT      O 2450   6.284   4.059   0.373
  644WAT     H1 2451   6.207   4.011   0.402
  644WAT     H2 2452   6.349   3.991   0.356
  645WAT      O 2453   5.686   4.090   0.461
  645WAT     H1 2454   5.603   4.065   0.501
  645WAT     H2 2455   5.747   4.097   0.534
  646WAT      O 2456   5.684   4.494   0.480
  646WAT     H1 2457   5.714   4.404   0.463
  646WAT     H2 2458   5.758   4.549   0.458
  647WAT      O 2459   5.323   3.846   0.428
  647WAT     H1 2460   5.380   3.769   0.428
  647WAT     H2 2461   5.323   3.876   0.337
  648WAT      O 2462   6.228   4.326   0.374
  648WAT     H1 2463   6.221   4.232   0.358
  648WAT     H2 2464   6.304   4.335   0.431
  649WAT      O 2465   5.447   3.387   0.606
  649WAT     H1 2466   5.429   3.297   0.634
  649WAT     H2 2467   5.407   3.442   0.674
  650WAT      O 2468   6.331   3.607   0.397
  650WAT     H1 2469   6.369   3.520   0.385
  650WAT     H2 2470   6.321   3.641   0.307
  651WAT      O 2471   5.509   3.637   0.467
  651WAT     H1 2472   5.577   3.663   0.529
  651WAT     H2 2473   5.478   3.553   0.501
  652WAT      O 2474   5.928   3.741   0.376
  652WAT     H1 2475   5.979   3.791   0.440
  652WAT     H2 2476   5.981   3.664   0.358
  653WAT      O 2477   5.757   3.205   0.803
  653WAT     H1 2478   5.757   3.257   0.722
  653WAT     H2 2479   5.674   3.158   0.800
  654WAT      O 2480   5.882   4.169   0.620
  654WAT     H1 2481   5.848   4.232   0.685
  654WAT     H2 2482   5.899   4.222   0.542
  655WAT      O 2483   5.725   3.376   0.603
  655WAT     H1 2484   5.759   3.461   0.574
  655WAT     H2 2485   5.631   3.391   0.615
  656WAT      O 2486   5.803   4.366   0.802
  656WAT     H1 2487   5.865   4.434   0.774
  656WAT     H2 2488   5.717   4.407   0.793
  657WAT      O 2489   5.939   4.353   0.404
  657WAT     H1 2490   5.910   4.292   0.336
  657WAT     H2 2491   6.034   4.357   0.393
  658WAT      O 2492   5.764   3.662   0.566
  658WAT     H1 2493   5.819   3.673   0.488
  658WAT     H2 2494   5.815   3.699   0.637
  659WAT      O 2495   5.849   4.327   1.069
  659WAT     H1 2496   5.759   4.349   1.094
  659WAT     H2 2497   5.851   4.339   0.974
  660WAT      O 2498   5.731   4.014   0.927
  660WAT     H1 2499   5.717   4.101   0.963
  660WAT     H2 2500   5.643   3.980   0.912
  661WAT      O 2501   5.911   4.608   1.147
  661WAT     H1 2502   5.908   4.649   1.061
  661WAT     H2 2503   5.895   4.515   1.131
  662WAT      O 2504   5.326   4.191   0.518
  662WAT     H1 2505   5.334   4.204   0.424
  662WAT     H2 2506   5.388   4.120   0.538
  663WAT      O 2507   6.433   4.776   0.850
  663WAT     H1 2508   6.484   4.767   0.930
  663WAT     H2 2509   6.348   4.810   0.879
  664WAT      O 2510   5.332   4.295   0.772
  664WAT     H1 2511   5.348   4.248   0.690
  664WAT     H2 2512   5.379   4.244   0.839
  665WAT      O 2513   5.809   3.208   0.276
  665WAT     H1 2514   5.765   3.286   0.243
  665WAT     H2 2515   5.865   3.240   0.347
  666WAT      O 2516   6.238   3.495   0.836
  666WAT     H1 2517   6.192   3.516   0.917
  666WAT     H2 2518   6.198   3.413   0.806
  667WAT      O 2519   6.447   3.767   1.159
  667WAT     H1 2520   6.480   3.684   1.125
  667WAT     H2 2521   6.526   3.819   1.174
  668WAT      O 2522   6.013   3.263   0.462
  668WAT     H1 2523   6.043   3.353   0.454
  668WAT     H2 2524   6.068   3.214   0.400
  669WAT      O 2525   6.032   3.810   1.115
  669WAT     H1 2526   6.023   3.716   1.100
  669WAT     H2 2527   6.117   3.832   1.076
  670WAT      O 2528   5.545   3.451   0.931
  670WAT     H1 2529   5.506   3.536   0.951
  670WAT     H2 2530   5.477   3.388   0.950
  671WAT      O 2531   6.203   3.460   1.238
  671WAT     H1 2532   6.134   3.441   1.301
  671WAT     H2 2533   6.277   3.488   1.291
  672WAT      O 2534   5.276   3.244   0.334
  672WAT     H1 2535   5.247   3.301   0.405
  672WAT     H2 2536   5.350   3.196   0.370
  673WAT      O 2537   6.431   3.844   0.521
  673WAT     H1 2538   6.357   3.895   0.556
  673WAT     H2 2539   6.391   3.762   0.491
  674WAT      O 2540   6.074   3.511   0.362
  674WAT     H1 2541   6.075   3.467   0.277
  674WAT     H2 2542   6.164   3.544   0.372
  675WAT      O 2543   5.659   3.500   0.258
  675WAT     H1 2544   5.625   3.547   0.333
  675WAT     H2 2545   5.583   3.454   0.222
  676WAT      O 2546   6.477   3.389   0.462
  676WAT     H1 2547   6.479   3.434   0.547
  676WAT     H2 2548   6.452   3.299   0.484
  677WAT      O 2549   5.489   4.233   0.988
  677WAT     H1 2550   5.451   4.169   1.048
  677WAT     H2 2551   5.521   4.303   1.045
  678WAT      O 2552   6.104   3.917   0.536
  678WAT     H1 2553   6.141   3.870   0.611
  678WAT     H2 2554   6.085   4.005   0.570
  679WAT      O 2555   5.883   3.821   0.768
  679WAT     H1 2556   5.853   3.909   0.791
  679WAT     H2 2557   5.979   3.827   0.772
  680WAT      O 2558   6.350   4.149   0.996
  680WAT     H1 2559   6.344   4.057   0.970
  680WAT     H2 2560   6.287   4.159   1.067
  681WAT      O 2561   5.741   4.209   0.192
  681WAT     H1 2562   5.792   4.129   0.186
  681WAT     H2 2563   5.695   4.203   0.276
  682WAT      O 2564   5.489   3.905   0.883
  682WAT     H1 2565   5.453   3.972   0.942
  682WAT     H2 2566   5.460   3.822   0.920
  683WAT      O 2567   5.809   3.951   1.171
  683WAT     H1 2568   5.779   3.966   1.081
  683WAT     H2 2569   5.886   3.895   1.162
  684WAT      O 2570   6.343   4.431   0.971
  684WAT     H1 2571   6.345   4.338   0.949
  684WAT     H2 2572   6.273   4.440   1.035
  685WAT      O 2573   6.518   4.268   0.255
  685WAT     H1 2574   6.553   4.208   0.189
  685WAT     H2 2575   6.429   4.235   0.272
  686WAT      O 2576   6.287   4.595   0.680
  686WAT     H1 2577   6.351   4.616   0.748
  686WAT     H2 2578   6.323   4.519   0.635
  687WAT      O 2579   6.414   4.396   0.552
  687WAT     H1 2580   6.478   4.325   0.563
  687WAT     H2 2581   6.467   4.473   0.534
  688WAT      O 2582   6.591   4.475   0.872
  688WAT     H1 2583   6.625   4.534   0.940
  688WAT     H2 2584   6.499   4.462   0.895
  689WAT      O 2585   5.346   3.254   0.951
  689WAT     H1 2586   5.275   3.274   1.011
  689WAT     H2 2587   5.388   3.177   0.988
  690WAT      O 2588   5.375   4.653   1.049
  690WAT     H1 2589   5.386   4.559   1.035
  690WAT     H2 2590   5.310   4.680   0.984
  691WAT      O 2591   6.174   4.480   1.189
  691WAT     H1 2592   6.142   4.408   1.244
  691WAT     H2 2593   6.107   4.548   1.197
  692WAT      O 2594   6.496   3.504   0.726
  692WAT     H1 2595   6.533   3.422   0.758
  692WAT     H2 2596   6.410   3.510   0.767
  693WAT      O 2597   6.192   3.769   0.748
  693WAT     H1 2598   6.242   3.816   0.814
  693WAT     H2 2599   6.206   3.677   0.769
  694WAT      O 2600   5.689   4.841   0.312
  694WAT     H1 2601   5.763   4.787   0.339
  694WAT     H2 2602   5.728   4.928   0.298
  695WAT      O 2603   5.590   4.760   1.230
  695WAT     H1 2604   5.670   4.792   1.272
  695WAT     H2 2605   5.538   4.724   1.303
  696WAT      O 2606   6.473   4.371   1.225
  696WAT     H1 2607   6.413   4.373   1.151
  696WAT     H2 2608   6.443   4.298   1.279
  697WAT      O 2609   5.362   4.009   1.125
  697WAT     H1 2610   5.412   3.951   1.182
  697WAT     H2 2611   5.288   4.037   1.179
  698WAT      O 2612   6.067   4.149   1.078
  698WAT     H1 2613   5.991   4.206   1.070
  698WAT     H2 2614   6.085   4.120   0.989
  699WAT      O 2615   5.565   3.823   1.214
  699WAT     H1 2616   5.569   3.793   1.305
  699WAT     H2 2617   5.650   3.863   1.198
  700WAT      O 2618   5.759   3.681   1.011
  700WAT     H1 2619   5.706   3.632   0.948
  700WAT     H2 2620   5.826   3.724   0.958
  701WAT      O 2621   5.808   3.377   1.019
  701WAT     H1 2622   5.798   3.316   0.946
  701WAT     H2 2623   5.750   3.450   0.996
  702WAT      O 2624   6.084   3.233   0.722
  702WAT     H1 2625   6.040   3.235   0.638
  702WAT     H2 2626   6.021   3.193   0.782
  703WAT      O 2627   6.125   4.123   0.784
  703WAT     H1 2628   6.167   4.207   0.767
  703WAT     H2 2629   6.033   4.136   0.761
  704WAT      O 2630   6.359   3.896   0.923
  704WAT     H1 2631   6.371   3.836   0.997
  704WAT     H2 2632   6.445   3.900   0.881
  705WAT      O 2633   5.910   4.753   0.896
  705WAT     H1 2634   5.856   4.826   0.864
  705WAT     H2 2635   5.935   4.706   0.817
  706WAT      O 2636   6.035   3.550   1.049
  706WAT     H1 2637   6.094   3.519   1.117
  706WAT     H2 2638   5.954   3.503   1.064
  707WAT      O 2639   6.517   3.512   1.072
  707WAT     H1 2640   6.448   3.446   1.065
  707WAT     H2 2641   6.589   3.467   1.116
  708WAT      O 2642   6.196   4.877   0.922
  708WAT     H1 2643   6.188   4.967   0.953
  708WAT     H2 2644   6.105   4.845   0.919
  709WAT      O 2645   5.336   4.610   0.252
  709WAT     H1 2646   5.369   4.523   0.229
  709WAT     H2 2647   5.379   4.630   0.335
  710WAT      O 2648   5.385   4.696   0.526
  710WAT     H1 2649   5.341   4.714   0.609
  710WAT     H2 2650   5.442   4.772   0.512
  711WAT      O 2651   5.472   3.986   0.616
  711WAT     H1 2652   5.509   3.977   0.704
  711WAT     H2 2653   5.415   3.910   0.606
  712WAT      O 2654   5.427   3.677   1.006
  712WAT     H1 2655   5.338   3.674   1.040
  712WAT     H2 2656   5.481   3.697   1.083
  713WAT      O 2657   5.477   3.105   0.441
  713WAT     H1 2658   5.542   3.050   0.397
  713WAT     H2 2659   5.519   3.130   0.523
  714WAT      O 2660   5.453   3.120   0.716
  714WAT     H1 2661   5.418   3.166   0.792
  714WAT     H2 2662   5.420   3.031   0.724
  715WAT      O 2663   5.613   4.437   1.132
  715WAT     H1 2664   5.609   4.400   1.220
  715WAT     H2 2665   5.627   4.531   1.146
  716WAT      O 2666   5.983   4.593   0.692
  716WAT     H1 2667   5.959   4.620   0.603
  716WAT     H2 2668   6.077   4.610   0.698
  717WAT      O 2669   6.204   3.239   1.068
  717WAT     H1 2670   6.198   3.298   1.143
  717WAT     H2 2671   6.298   3.228   1.053
  718WAT      O 2672   6.468   3.205   1.032
  718WAT     H1 2673   6.529   3.237   0.965
  718WAT     H2 2674   6.522   3.156   1.094
  719WAT      O 2675   5.520   3.073   1.043
  719WAT     H1 2676   5.575   3.055   0.967
  719WAT     H2 2677   5.527   2.994   1.097
  720WAT      O 2678   5.597   4.732   0.844
  720WAT     H1 2679   5.538   4.719   0.918
  720WAT     H2 2680   5.597   4.648   0.797
  721WAT      O 2681   6.542   3.061   0.664
  721WAT     H1 2682   6.454   3.095   0.644
  721WAT     H2 2683   6.531   3.014   0.747
  722WAT      O 2684   5.560   4.469   0.739
  722WAT     H1 2685   5.488   4.407   0.732
  722WAT     H2 2686   5.566   4.508   0.652
  723WAT      O 2687   5.921   4.690   0.418
  723WAT     H1 2688   5.972   4.629   0.365
  723WAT     H2 2689   5.986   4.740   0.467
  724WAT      O 2690   6.195   4.779   0.500
  724WAT     H1 2691   6.224   4.754   0.413
  724WAT     H2 2692   6.246   4.724   0.559
  725WAT      O 2693   6.317   3.153   0.558
  725WAT     H1 2694   6.238   3.200   0.586
  725WAT     H2 2695   6.287   3.062   0.547
  726WAT      O 2696   6.555   3.061   0.233
  726WAT     H1 2697   6.616   3.118   0.281
  726WAT     H2 2698   6.481   3.118   0.211
  727WAT      O 2699   6.202   4.871   1.237
  727WAT     H1 2700   6.294   4.848   1.241
  727WAT     H2 2701   6.200   4.954   1.189
  728WAT      O 2702   5.920   3.138   1.213
  728WAT     H1 2703   5.892   3.188   1.137
  728WAT     H2 2704   5.958   3.058   1.177
  729WAT      O 2705   6.471   2.004   5.817
  729WAT     H1 2706   6.463   1.912   5.790
  729WAT     H2 2707   6.430   2.053   5.747
  730WAT      O 2708   6.284   2.181   6.005
  730WAT     H1 2709   6.207   2.133   6.034
  730WAT     H2 2710   6.349   2.114   5.988
  731WAT      O 2711   5.684   2.616   6.113
  731WAT     H1 2712   5.714   2.527   6.095
  731WAT     H2 2713   5.758   2.672   6.090
  732WAT      O 2714   5.527   1.709   5.472
  732WAT     H1 2715   5.438   1.743   5.461
  732WAT     H2 2716   5.555   1.689   5.382
  733WAT      O 2717   5.323   1.969   6.060
  733WAT     H1 2718   5.380   1.892   6.060
  733WAT     H2 2719   5.323   1.999   5.969
  734WAT      O 2720   6.309   2.851   5.845
  734WAT     H1 2721   6.247   2.896   5.788
  734WAT     H2 2722   6.394   2.866   5.805
  735WAT      O 2723   6.228   2.449   6.006
  735WAT     H1 2724   6.221   2.355   5.990
  735WAT     H2 2725   6.304   2.458   6.063
  736WAT      O 2726   6.331   1.730   6.029
  736WAT     H1 2727   6.369   1.642   6.018
  736WAT     H2 2728   6.321   1.763   5.940
  737WAT      O 2729   5.744   1.567   5.575
  737WAT     H1 2730   5.755   1.657   5.606
  737WAT     H2 2731   5.653   1.562   5.546
  738WAT      O 2732   5.928   1.864   6.008
  738WAT     H1 2733   5.979   1.914   6.072
  738WAT     H2 2734   5.981   1.786   5.991
  739WAT      O 2735   6.395   2.339   5.585
  739WAT     H1 2736   6.334   2.386   5.528
  739WAT     H2 2737   6.447   2.408   5.626
  740WAT      O 2738   5.332   2.408   5.322
  740WAT     H1 2739   5.295   2.456   5.249
  740WAT     H2 2740   5.358   2.475   5.385
  741WAT      O 2741   6.093   1.248   5.868
  741WAT     H1 2742   6.124   1.192   5.796
  741WAT     H2 2743   6.000   1.261   5.850
  742WAT      O 2744   6.332   2.054   5.542
  742WAT     H1 2745   6.239   2.048   5.565
  742WAT     H2 2746   6.347   2.148   5.530
  743WAT      O 2747   6.331   1.681   5.241
  743WAT     H1 2748   6.237   1.698   5.250
  743WAT     H2 2749   6.362   1.753   5.187
  744WAT      O 2750   5.893   2.107   5.820
  744WAT     H1 2751   5.852   2.036   5.770
  744WAT     H2 2752   5.901   2.072   5.909
  745WAT      O 2753   5.939   2.476   6.036
  745WAT     H1 2754   5.910   2.415   5.968
  745WAT     H2 2755   6.034   2.479   6.025
  746WAT      O 2756   6.553   2.134   5.293
  746WAT     H1 2757   6.597   2.051   5.278
  746WAT     H2 2758   6.624   2.198   5.301
  747WAT      O 2759   6.364   2.628   5.690
  747WAT     H1 2760   6.407   2.703   5.648
  747WAT     H2 2761   6.357   2.653   5.782
  748WAT      O 2762   5.563   1.996   5.570
  748WAT     H1 2763   5.551   2.069   5.509
  748WAT     H2 2764   5.532   1.919   5.522
  749WAT      O 2765   5.451   2.484   5.792
  749WAT     H1 2766   5.410   2.498   5.706
  749WAT     H2 2767   5.540   2.455   5.771
  750WAT      O 2768   5.878   2.905   5.603
  750WAT     H1 2769   5.861   2.813   5.582
  750WAT     H2 2770   5.793   2.941   5.627
  751WAT      O 2771   6.557   2.840   5.689
  751WAT     H1 2772   6.603   2.762   5.720
  751WAT     H2 2773   6.591   2.912   5.743
  752WAT      O 2774   5.809   1.331   5.908
  752WAT     H1 2775   5.765   1.409   5.875
  752WAT     H2 2776   5.865   1.363   5.979
  753WAT      O 2777   6.121   1.293   5.396
  753WAT     H1 2778   6.058   1.292   5.469
  753WAT     H2 2779   6.112   1.206   5.357
  754WAT      O 2780   6.013   1.385   6.094
  754WAT     H1 2781   6.043   1.476   6.086
  754WAT     H2 2782   6.068   1.336   6.033
  755WAT      O 2783   5.788   1.843   5.681
  755WAT     H1 2784   5.766   1.821   5.771
  755WAT     H2 2785   5.710   1.886   5.646
  756WAT      O 2786   6.511   1.844   5.541
  756WAT     H1 2787   6.451   1.916   5.522
  756WAT     H2 2788   6.566   1.837   5.463
  757WAT      O 2789   6.372   1.707   5.744
  757WAT     H1 2790   6.411   1.739   5.663
  757WAT     H2 2791   6.408   1.619   5.755
  758WAT      O 2792   5.276   1.366   5.966
  758WAT     H1 2793   5.247   1.423   6.037
  758WAT     H2 2794   5.350   1.318   6.002
  759WAT      O 2795   5.294   1.761   5.087
  759WAT     H1 2796   5.286   1.855   5.101
  759WAT     H2 2797   5.259   1.746   4.999
  760WAT      O 2798   6.074   1.634   5.994
  760WAT     H1 2799   6.075   1.590   5.909
  760WAT     H2 2800   6.164   1.666   6.005
  761WAT      O 2801   5.659   1.622   5.890
  761WAT     H1 2802   5.625   1.670   5.966
  761WAT     H2 2803   5.583   1.577   5.854
  762WAT      O 2804   6.080   1.734   5.293
  762WAT     H1 2805   6.093   1.730   5.388
  762WAT     H2 2806   6.042   1.820   5.277
  763WAT      O 2807   5.982   1.965   5.233
  763WAT     H1 2808   5.925   1.920   5.170
  763WAT     H2 2809   6.053   2.001   5.179
  764WAT      O 2810   5.391   1.514   5.782
  764WAT     H1 2811   5.362   1.478   5.865
  764WAT     H2 2812   5.385   1.441   5.720
  765WAT      O 2813   5.736   2.365   5.460
  765WAT     H1 2814   5.659   2.311   5.444
  765WAT     H2 2815   5.809   2.313   5.426
  766WAT      O 2816   6.358   1.404   5.454
  766WAT     H1 2817   6.277   1.354   5.446
  766WAT     H2 2818   6.339   1.488   5.412
  767WAT      O 2819   5.741   2.331   5.824
  767WAT     H1 2820   5.792   2.251   5.818
  767WAT     H2 2821   5.695   2.325   5.908
  768WAT      O 2822   6.229   2.458   5.351
  768WAT     H1 2823   6.263   2.533   5.302
  768WAT     H2 2824   6.146   2.489   5.387
  769WAT      O 2825   6.518   2.390   5.888
  769WAT     H1 2826   6.553   2.331   5.822
  769WAT     H2 2827   6.429   2.358   5.905
  770WAT      O 2828   6.126   2.466   5.628
  770WAT     H1 2829   6.195   2.521   5.666
  770WAT     H2 2830   6.047   2.521   5.632
  771WAT      O 2831   5.340   2.028   5.177
  771WAT     H1 2832   5.427   2.056   5.206
  771WAT     H2 2833   5.291   2.109   5.166
  772WAT      O 2834   6.056   2.167   5.590
  772WAT     H1 2835   6.102   2.248   5.612
  772WAT     H2 2836   6.021   2.135   5.673
  773WAT      O 2837   5.647   1.201   5.637
  773WAT     H1 2838   5.634   1.200   5.732
  773WAT     H2 2839   5.564   1.235   5.602
  774WAT      O 2840   5.377   2.949   5.234
  774WAT     H1 2841   5.413   3.009   5.169
  774WAT     H2 2842   5.363   3.004   5.311
  775WAT      O 2843   5.978   2.688   5.316
  775WAT     H1 2844   5.978   2.761   5.254
  775WAT     H2 2845   5.886   2.663   5.325
  776WAT      O 2846   5.539   2.210   5.390
  776WAT     H1 2847   5.478   2.284   5.391
  776WAT     H2 2848   5.586   2.219   5.308
  777WAT      O 2849   6.277   2.694   5.182
  777WAT     H1 2850   6.287   2.673   5.089
  777WAT     H2 2851   6.187   2.668   5.203
  778WAT      O 2852   6.029   1.750   5.580
  778WAT     H1 2853   5.958   1.796   5.624
  778WAT     H2 2854   6.058   1.684   5.644
  779WAT      O 2855   6.432   1.422   5.724
  779WAT     H1 2856   6.420   1.424   5.629
  779WAT     H2 2857   6.527   1.427   5.736
  780WAT      O 2858   6.141   2.946   5.652
  780WAT     H1 2859   6.167   2.942   5.559
  780WAT     H2 2860   6.046   2.933   5.651
  781WAT      O 2861   5.850   1.580   5.318
  781WAT     H1 2862   5.935   1.624   5.311
  781WAT     H2 2863   5.813   1.612   5.401
  782WAT      O 2864   5.740   2.206   5.165
  782WAT     H1 2865   5.816   2.195   5.221
  782WAT     H2 2866   5.747   2.136   5.100
  783WAT      O 2867   5.609   1.949   5.234
  783WAT     H1 2868   5.617   1.854   5.245
  783WAT     H2 2869   5.698   1.982   5.244
  784WAT      O 2870   5.689   2.964   5.944
  784WAT     H1 2871   5.763   2.909   5.971
  784WAT     H2 2872   5.728   3.051   5.930
  785WAT      O 2873   5.378   2.571   5.531
  785WAT     H1 2874   5.285   2.595   5.530
  785WAT     H2 2875   5.424   2.653   5.519
  786WAT      O 2876   6.000   2.881   5.126
  786WAT     H1 2877   6.080   2.910   5.081
  786WAT     H2 2878   5.948   2.838   5.058
  787WAT      O 2879   6.052   2.403   5.113
  787WAT     H1 2880   6.042   2.342   5.185
  787WAT     H2 2881   6.035   2.351   5.034
  788WAT      O 2882   6.376   2.310   5.173
  788WAT     H1 2883   6.321   2.354   5.237
  788WAT     H2 2884   6.438   2.259   5.225
  789WAT      O 2885   5.943   2.205   5.363
  789WAT     H1 2886   5.985   2.189   5.447
  789WAT     H2 2887   5.955   2.124   5.313
  790WAT      O 2888   6.194   2.108   5.087
  790WAT     H1 2889   6.246   2.036   5.051
  790WAT     H2 2890   6.259   2.172   5.117
  791WAT      O 2891   5.832   1.813   5.057
  791WAT     H1 2892   5.812   1.726   5.093
  791WAT     H2 2893   5.815   1.804   4.963
  792WAT      O 2894   6.580   1.294   5.310
  792WAT     H1 2895   6.608   1.210   5.346
  792WAT     H2 2896   6.503   1.317   5.361
  793WAT      O 2897   5.712   1.523   5.056
  793WAT     H1 2898   5.742   1.523   4.965
  793WAT     H2 2899   5.786   1.488   5.106
  794WAT      O 2900   6.034   1.417   5.155
  794WAT     H1 2901   5.999   1.349   5.097
  794WAT     H2 2902   6.054   1.371   5.236
  795WAT      O 2903   6.251   2.916   5.316
  795WAT     H1 2904   6.340   2.950   5.319
  795WAT     H2 2905   6.254   2.844   5.254
  796WAT      O 2906   5.615   2.453   5.139
  796WAT     H1 2907   5.658   2.508   5.205
  796WAT     H2 2908   5.663   2.371   5.140
  797WAT      O 2909   5.336   2.732   5.884
  797WAT     H1 2910   5.369   2.645   5.861
  797WAT     H2 2911   5.379   2.753   5.968
  798WAT      O 2912   5.796   2.565   5.650
  798WAT     H1 2913   5.766   2.553   5.741
  798WAT     H2 2914   5.785   2.479   5.610
  799WAT      O 2915   5.368   2.070   5.794
  799WAT     H1 2916   5.303   2.043   5.730
  799WAT     H2 2917   5.452   2.059   5.749
  800WAT      O 2918   5.289   1.791   5.388
  800WAT     H1 2919   5.199   1.817   5.371
  800WAT     H2 2920   5.338   1.818   5.310
  801WAT      O 2921   5.544   1.697   5.179
  801WAT     H1 2922   5.615   1.654   5.131
  801WAT     H2 2923   5.472   1.703   5.116
  802WAT      O 2924   5.509   1.302   5.083
  802WAT     H1 2925   5.581   1.356   5.115
  802WAT     H2 2926   5.536   1.275   4.996
  803WAT      O 2927   5.921   2.813   6.050
  803WAT     H1 2928   5.972   2.751   5.997
  803WAT     H2 2929   5.986   2.863   6.099
  804WAT      O 2930   5.389   2.923   5.692
  804WAT     H1 2931   5.372   2.860   5.762
  804WAT     H2 2932   5.302   2.943   5.657
  805WAT      O 2933   5.451   1.306   5.443
  805WAT     H1 2934   5.527   1.317   5.385
  805WAT     H2 2935   5.405   1.390   5.438
  806WAT      O 2936   6.105   1.517   5.742
  806WAT     H1 2937   6.024   1.480   5.708
  806WAT     H2 2938   6.156   1.442   5.772
  807WAT      O 2939   6.555   1.184   5.866
  807WAT     H1 2940   6.616   1.241   5.913
  807WAT     H2 2941   6.481   1.240   5.843
  808WAT      O 2942   5.549   2.792   5.437
  808WAT     H1 2943   5.497   2.830   5.367
  808WAT     H2 2944   5.542   2.855   5.509
  809WAT      O 2945   5.688   1.359   5.297
  809WAT     H1 2946   5.741   1.280   5.284
  809WAT     H2 2947   5.752   1.427   5.320
  810WAT      O 2948   5.908   1.332   5.602
  810WAT     H1 2949   5.845   1.262   5.619
  810WAT     H2 2950   5.854   1.408   5.581
  811WAT      O 2951   5.809   2.987   5.324
  811WAT     H1 2952   5.882   2.959   5.270
  811WAT     H2 2953   5.835   2.963   5.413
  812WAT      O 2954   5.725   2.599   5.325
  812WAT     H1 2955   5.662   2.645   5.380
  812WAT     H2 2956   5.737   2.514   5.368
  813WAT      O 2957   6.471   2.004   3.940
  813WAT     H1 2958   6.463   1.912   3.913
  813WAT     H2 2959   6.430   2.053   3.869
  814WAT      O 2960   6.284   2.181   4.128
  814WAT     H1 2961   6.207   2.133   4.157
  814WAT     H2 2962   6.349   2.114   4.111
  815WAT      O 2963   5.686   2.213   4.216
  815WAT     H1 2964   5.603   2.187   4.256
  815WAT     H2 2965   5.747   2.220   4.289
  816WAT      O 2966   5.684   2.616   4.235
  816WAT     H1 2967   5.714   2.527   4.217
  816WAT     H2 2968   5.758   2.672   4.213
  817WAT      O 2969   5.527   1.709   3.594
  817WAT     H1 2970   5.438   1.743   3.584
  817WAT     H2 2971   5.555   1.689   3.505
  818WAT      O 2972   5.323   1.969   4.183
  818WAT     H1 2973   5.380   1.892   4.183
  818WAT     H2 2974   5.323   1.999   4.092
  819WAT      O 2975   6.309   2.851   3.968
  819WAT     H1 2976   6.247   2.896   3.911
  819WAT     H2 2977   6.394   2.866   3.928
  820WAT      O 2978   6.228   2.449   4.129
  820WAT     H1 2979   6.221   2.355   4.113
  820WAT     H2 2980   6.304   2.458   4.186
  821WAT      O 2981   5.447   1.510   4.361
  821WAT     H1 2982   5.429   1.420   4.389
  821WAT     H2 2983   5.407   1.564   4.429
  822WAT      O 2984   6.331   1.730   4.151
  822WAT     H1 2985   6.369   1.642   4.140
  822WAT     H2 2986   6.321   1.763   4.062
  823WAT      O 2987   5.744   1.567   3.698
  823WAT     H1 2988   5.755   1.657   3.728
  823WAT     H2 2989   5.653   1.562   3.669
  824WAT      O 2990   5.509   1.759   4.222
  824WAT     H1 2991   5.577   1.786   4.284
  824WAT     H2 2992   5.478   1.675   4.255
  825WAT      O 2993   5.928   1.864   4.131
  825WAT     H1 2994   5.979   1.914   4.195
  825WAT     H2 2995   5.981   1.786   4.113
  826WAT      O 2996   5.757   1.328   4.557
  826WAT     H1 2997   5.757   1.380   4.477
  826WAT     H2 2998   5.674   1.280   4.555
  827WAT      O 2999   6.395   2.339   3.707
  827WAT     H1 3000   6.334   2.386   3.651
  827WAT     H2 3001   6.447   2.408   3.749
  828WAT      O 3002   5.882   2.292   4.375
  828WAT     H1 3003   5.848   2.354   4.439
  828WAT     H2 3004   5.899   2.344   4.297
  829WAT      O 3005   5.725   1.499   4.358
  829WAT     H1 3006   5.759   1.583   4.329
  829WAT     H2 3007   5.631   1.514   4.370
  830WAT      O 3008   5.803   2.489   4.557
  830WAT     H1 3009   5.865   2.556   4.529
  830WAT     H2 3010   5.717   2.529   4.548
  831WAT      O 3011   5.332   2.408   3.445
  831WAT     H1 3012   5.295   2.456   3.372
  831WAT     H2 3013   5.358   2.475   3.508
  832WAT      O 3014   6.093   1.248   3.991
  832WAT     H1 3015   6.124   1.192   3.919
  832WAT     H2 3016   6.000   1.261   3.972
  833WAT      O 3017   6.332   2.054   3.664
  833WAT     H1 3018   6.239   2.048   3.687
  833WAT     H2 3019   6.347   2.148   3.653
  834WAT      O 3020   6.331   1.681   3.364
  834WAT     H1 3021   6.237   1.698   3.372
  834WAT     H2 3022   6.362   1.753   3.309
  835WAT      O 3023   5.893   2.107   3.942
  835WAT     H1 3024   5.852   2.036   3.893
  835WAT     H2 3025   5.901   2.072   4.031
  836WAT      O 3026   5.939   2.476   4.159
  836WAT     H1 3027   5.910   2.415   4.091
  836WAT     H2 3028   6.034   2.479   4.148
  837WAT      O 3029   5.764   1.784   4.320
  837WAT     H1 3030   5.819   1.795   4.243
  837WAT     H2 3031   5.815   1.822   4.392
  838WAT      O 3032   5.849   2.449   4.824
  838WAT     H1 3033   5.759   2.472   4.849
  838WAT     H2 3034   5.851   2.462   4.729
  839WAT      O 3035   6.553   2.134   3.415
  839WAT     H1 3036   6.597   2.051   3.401
  839WAT     H2 3037   6.624   2.198   3.424
  840WAT      O 3038   5.731   2.137   4.681
  840WAT     H1 3039   5.717   2.224   4.718
  840WAT     H2 3040   5.643   2.102   4.667
  841WAT      O 3041   6.364   2.628   3.812
  841WAT     H1 3042   6.407   2.703   3.771
  841WAT     H2 3043   6.357   2.653   3.904
  842WAT      O 3044   5.911   2.731   4.902
  842WAT     H1 3045   5.908   2.771   4.816
  842WAT     H2 3046   5.895   2.638   4.886
  843WAT      O 3047   5.563   1.996   3.692
  843WAT     H1 3048   5.551   2.069   3.631
  843WAT     H2 3049   5.532   1.919   3.645
  844WAT      O 3050   5.326   2.314   4.273
  844WAT     H1 3051   5.334   2.327   4.179
  844WAT     H2 3052   5.388   2.243   4.292
  845WAT      O 3053   5.451   2.484   3.914
  845WAT     H1 3054   5.410   2.498   3.829
  845WAT     H2 3055   5.540   2.455   3.894
  846WAT      O 3056   6.433   2.898   4.605
  846WAT     H1 3057   6.484   2.890   4.685
  846WAT     H2 3058   6.348   2.933   4.634
  847WAT      O 3059   5.878   2.905   3.725
  847WAT     H1 3060   5.861   2.813   3.704
  847WAT     H2 3061   5.793   2.941   3.749
  848WAT      O 3062   6.557   2.840   3.811
  848WAT     H1 3063   6.603   2.762   3.843
  848WAT     H2 3064   6.591   2.912   3.866
  849WAT      O 3065   5.332   2.418   4.527
  849WAT     H1 3066   5.348   2.371   4.445
  849WAT     H2 3067   5.379   2.367   4.594
  850WAT      O 3068   5.809   1.331   4.031
  850WAT     H1 3069   5.765   1.409   3.998
  850WAT     H2 3070   5.865   1.363   4.101
  851WAT      O 3071   6.238   1.617   4.591
  851WAT     H1 3072   6.192   1.638   4.672
  851WAT     H2 3073   6.198   1.536   4.561
  852WAT      O 3074   6.447   1.890   4.914
  852WAT     H1 3075   6.480   1.806   4.880
  852WAT     H2 3076   6.526   1.942   4.929
  853WAT      O 3077   6.121   1.293   3.519
  853WAT     H1 3078   6.058   1.292   3.591
  853WAT     H2 3079   6.112   1.206   3.479
  854WAT      O 3080   6.013   1.385   4.217
  854WAT     H1 3081   6.043   1.476   4.209
  854WAT     H2 3082   6.068   1.336   4.155
  855WAT      O 3083   5.788   1.843   3.804
  855WAT     H1 3084   5.766   1.821   3.894
  855WAT     H2 3085   5.710   1.886   3.769
  856WAT      O 3086   6.511   1.844   3.663
  856WAT     H1 3087   6.451   1.916   3.645
  856WAT     H2 3088   6.566   1.837   3.585
  857WAT      O 3089   6.032   1.933   4.870
  857WAT     H1 3090   6.023   1.839   4.855
  857WAT     H2 3091   6.117   1.955   4.831
  858WAT      O 3092   6.372   1.707   3.866
  858WAT     H1 3093   6.411   1.739   3.785
  858WAT     H2 3094   6.408   1.619   3.878
  859WAT      O 3095   5.545   1.574   4.685
  859WAT     H1 3096   5.506   1.659   4.706
  859WAT     H2 3097   5.477   1.510   4.705
  860WAT      O 3098   6.203   1.582   4.992
  860WAT     H1 3099   6.134   1.563   5.056
  860WAT     H2 3100   6.277   1.611   5.046
  861WAT      O 3101   5.276   1.366   4.089
  861WAT     H1 3102   5.247   1.423   4.160
  861WAT     H2 3103   5.350   1.318   4.125
  862WAT      O 3104   5.294   1.761   3.210
  862WAT     H1 3105   5.286   1.855   3.224
  862WAT     H2 3106   5.259   1.746   3.122
  863WAT      O 3107   6.431   1.966   4.276
  863WAT     H1 3108   6.357   2.017   4.311
  863WAT     H2 3109   6.391   1.885   4.246
  864WAT      O 3110   6.074   1.634   4.116
  864WAT     H1 3111   6.075   1.590   4.032
  864WAT     H2 3112   6.164   1.666   4.127
  865WAT      O 3113   5.659   1.622   4.012
  865WAT     H1 3114   5.625   1.670   4.088
  865WAT     H2 3115   5.583   1.577   3.976
  866WAT      O 3116   6.080   1.734   3.416
  866WAT     H1 3117   6.093   1.730   3.510
  866WAT     H2 3118   6.042   1.820   3.400
  867WAT      O 3119   6.477   1.512   4.217
  867WAT     H1 3120   6.479   1.557   4.302
  867WAT     H2 3121   6.452   1.422   4.239
  868WAT      O 3122   5.982   1.965   3.355
  868WAT     H1 3123   5.925   1.920   3.293
  868WAT     H2 3124   6.053   2.001   3.302
  869WAT      O 3125   5.489   2.355   4.743
  869WAT     H1 3126   5.451   2.291   4.803
  869WAT     H2 3127   5.521   2.426   4.800
  870WAT      O 3128   6.104   2.040   4.291
  870WAT     H1 3129   6.141   1.993   4.366
  870WAT     H2 3130   6.085   2.127   4.325
  871WAT      O 3131   5.391   1.514   3.904
  871WAT     H1 3132   5.362   1.478   3.988
  871WAT     H2 3133   5.385   1.441   3.843
  872WAT      O 3134   5.883   1.944   4.523
  872WAT     H1 3135   5.853   2.032   4.545
  872WAT     H2 3136   5.979   1.950   4.527
  873WAT      O 3137   5.736   2.365   3.583
  873WAT     H1 3138   5.659   2.311   3.567
  873WAT     H2 3139   5.809   2.313   3.549
  874WAT      O 3140   6.358   1.404   3.576
  874WAT     H1 3141   6.277   1.354   3.569
  874WAT     H2 3142   6.339   1.488   3.535
  875WAT      O 3143   6.350   2.271   4.751
  875WAT     H1 3144   6.344   2.179   4.725
  875WAT     H2 3145   6.287   2.281   4.822
  876WAT      O 3146   5.741   2.331   3.946
  876WAT     H1 3147   5.792   2.251   3.941
  876WAT     H2 3148   5.695   2.325   4.031
  877WAT      O 3149   6.229   2.458   3.474
  877WAT     H1 3150   6.263   2.533   3.424
  877WAT     H2 3151   6.146   2.489   3.510
  878WAT      O 3152   5.489   2.028   4.638
  878WAT     H1 3153   5.453   2.095   4.696
  878WAT     H2 3154   5.460   1.945   4.675
  879WAT      O 3155   5.809   2.074   4.926
  879WAT     H1 3156   5.779   2.088   4.836
  879WAT     H2 3157   5.886   2.018   4.917
  880WAT      O 3158   6.343   2.554   4.726
  880WAT     H1 3159   6.345   2.460   4.704
  880WAT     H2 3160   6.273   2.562   4.790
  881WAT      O 3161   6.518   2.390   4.010
  881WAT     H1 3162   6.553   2.331   3.944
  881WAT     H2 3163   6.429   2.358   4.027
  882WAT      O 3164   6.126   2.466   3.751
  882WAT     H1 3165   6.195   2.521   3.789
  882WAT     H2 3166   6.047   2.521   3.754
  883WAT      O 3167   5.340   2.028   3.300
  883WAT     H1 3168   5.427   2.056   3.328
  883WAT     H2 3169   5.291   2.109   3.289
  884WAT      O 3170   6.056   2.167   3.712
  884WAT     H1 3171   6.102   2.248   3.735
  884WAT     H2 3172   6.021   2.135   3.795
  885WAT      O 3173   6.287   2.718   4.435
  885WAT     H1 3174   6.351   2.738   4.503
  885WAT     H2 3175   6.323   2.642   4.390
  886WAT      O 3176   5.647   1.201   3.759
  886WAT     H1 3177   5.634   1.200   3.854
  886WAT     H2 3178   5.564   1.235   3.724
  887WAT      O 3179   6.414   2.518   4.307
  887WAT     H1 3180   6.478   2.448   4.318
  887WAT     H2 3181   6.467   2.596   4.289
  888WAT      O 3182   6.591   2.598   4.627
  888WAT     H1 3183   6.625   2.657   4.695
  888WAT     H2 3184   6.499   2.585   4.650
  889WAT      O 3185   5.377   2.949   3.357
  889WAT     H1 3186   5.413   3.009   3.291
  889WAT     H2 3187   5.363   3.004   3.434
  890WAT      O 3188   5.346   1.377   4.705
  890WAT     H1 3189   5.275   1.397   4.766
  890WAT     H2 3190   5.388   1.299   4.743
  891WAT      O 3191   5.375   2.776   4.804
  891WAT     H1 3192   5.386   2.682   4.790
  891WAT     H2 3193   5.310   2.802   4.739
  892WAT      O 3194   6.174   2.603   4.944
  892WAT     H1 3195   6.142   2.531   4.999
  892WAT     H2 3196   6.107   2.670   4.951
  893WAT      O 3197   5.978   2.688   3.438
  893WAT     H1 3198   5.978   2.761   3.377
  893WAT     H2 3199   5.886   2.663   3.448
  894WAT      O 3200   5.539   2.210   3.513
  894WAT     H1 3201   5.478   2.284   3.514
  894WAT     H2 3202   5.586   2.219   3.430
  895WAT      O 3203   6.496   1.626   4.480
  895WAT     H1 3204   6.533   1.544   4.513
  895WAT     H2 3205   6.410   1.632   4.522
  896WAT      O 3206   6.277   2.694   3.305
  896WAT     H1 3207   6.287   2.673   3.212
  896WAT     H2 3208   6.187   2.668   3.325
  897WAT      O 3209   6.029   1.750   3.703
  897WAT     H1 3210   5.958   1.796   3.747
  897WAT     H2 3211   6.058   1.684   3.766
  898WAT      O 3212   6.192   1.892   4.503
  898WAT     H1 3213   6.242   1.939   4.569
  898WAT     H2 3214   6.206   1.799   4.524
  899WAT      O 3215   6.432   1.422   3.847
  899WAT     H1 3216   6.420   1.424   3.752
  899WAT     H2 3217   6.527   1.427   3.859
  900WAT      O 3218   6.141   2.946   3.774
  900WAT     H1 3219   6.167   2.942   3.682
  900WAT     H2 3220   6.046   2.933   3.773
  901WAT      O 3221   5.850   1.580   3.440
  901WAT     H1 3222   5.935   1.624   3.434
  901WAT     H2 3223   5.813   1.612   3.523
  902WAT      O 3224   5.740   2.206   3.288
  902WAT     H1 3225   5.816   2.195   3.344
  902WAT     H2 3226   5.747   2.136   3.223
  903WAT      O 3227   5.609   1.949   3.356
  903WAT     H1 3228   5.617   1.854   3.367
  903WAT     H2 3229   5.698   1.982   3.367
  904WAT      O 3230   5.689   2.964   4.066
  904WAT     H1 3231   5.763   2.909   4.093
  904WAT     H2 3232   5.728   3.051   4.052
  905WAT      O 3233   5.378   2.571   3.654
  905WAT     H1 3234   5.285   2.595   3.653
  905WAT     H2 3235   5.424   2.653   3.642
  906WAT      O 3236   5.590   2.882   4.985
  906WAT     H1 3237   5.670   2.915   5.027
  906WAT     H2 3238   5.538   2.846   5.057
  907WAT      O 3239   6.000   2.881   3.249
  907WAT     H1 3240   6.080   2.910   3.203
  907WAT     H2 3241   5.948   2.838   3.181
  908WAT      O 3242   6.473   2.493   4.980
  908WAT     H1 3243   6.413   2.496   4.906
  908WAT     H2 3244   6.443   2.420   5.034
  909WAT      O 3245   5.362   2.131   4.880
  909WAT     H1 3246   5.412   2.073   4.937
  909WAT     H2 3247   5.288   2.160   4.933
  910WAT      O 3248   6.052   2.403   3.235
  910WAT     H1 3249   6.042   2.342   3.308
  910WAT     H2 3250   6.035   2.351   3.157
  911WAT      O 3251   6.067   2.272   4.833
  911WAT     H1 3252   5.991   2.329   4.825
  911WAT     H2 3253   6.085   2.243   4.744
  912WAT      O 3254   6.376   2.310   3.296
  912WAT     H1 3255   6.321   2.354   3.360
  912WAT     H2 3256   6.438   2.259   3.348
  913WAT      O 3257   5.565   1.946   4.969
  913WAT     H1 3258   5.569   1.916   5.060
  913WAT     H2 3259   5.650   1.986   4.953
  914WAT      O 3260   5.943   2.205   3.485
  914WAT     H1 3261   5.985   2.189   3.569
  914WAT     H2 3262   5.955   2.124   3.436
  915WAT      O 3263   5.759   1.803   4.766
  915WAT     H1 3264   5.706   1.754   4.703
  915WAT     H2 3265   5.826   1.846   4.712
  916WAT      O 3266   6.194   2.108   3.210
  916WAT     H1 3267   6.246   2.036   3.173
  916WAT     H2 3268   6.259   2.172   3.240
  917WAT      O 3269   5.808   1.500   4.774
  917WAT     H1 3270   5.798   1.438   4.701
  917WAT     H2 3271   5.750   1.573   4.751
  918WAT      O 3272   6.084   1.356   4.477
  918WAT     H1 3273   6.040   1.358   4.393
  918WAT     H2 3274   6.021   1.316   4.537
  919WAT      O 3275   6.125   2.245   4.539
  919WAT     H1 3276   6.167   2.330   4.522
  919WAT     H2 3277   6.033   2.259   4.516
  920WAT      O 3278   6.359   2.018   4.678
  920WAT     H1 3279   6.371   1.959   4.752
  920WAT     H2 3280   6.445   2.022   4.636
  921WAT      O 3281   5.832   1.813   3.180
  921WAT     H1 3282   5.812   1.726   3.216
  921WAT     H2 3283   5.815   1.804   3.086
  922WAT      O 3284   5.910   2.876   4.651
  922WAT     H1 3285   5.856   2.948   4.619
  922WAT     H2 3286   5.935   2.828   4.572
  923WAT      O 3287   6.035   1.673   4.803
  923WAT     H1 3288   6.094   1.642   4.872
  923WAT     H2 3289   5.954   1.625   4.819
  924WAT      O 3290   6.517   1.634   4.827
  924WAT     H1 3291   6.448   1.568   4.820
  924WAT     H2 3292   6.589   1.590   4.871
  925WAT      O 3293   6.580   1.294   3.433
  925WAT     H1 3294   6.608   1.210   3.468
  925WAT     H2 3295   6.503   1.317   3.484
  926WAT      O 3296   5.712   1.523   3.179
  926WAT     H1 3297   5.742   1.523   3.088
  926WAT     H2 3298   5.786   1.488   3.228
  927WAT      O 3299   6.196   2.999   4.677
  927WAT     H1 3300   6.188   3.090   4.707
  927WAT     H2 3301   6.105   2.967   4.674
  928WAT      O 3302   6.034   1.417   3.277
  928WAT     H1 3303   5.999   1.349   3.219
  928WAT     H2 3304   6.054   1.371   3.359
  929WAT      O 3305   6.251   2.916   3.439
  929WAT     H1 3306   6.340   2.950   3.441
  929WAT     H2 3307   6.254   2.844   3.376
  930WAT      O 3308   5.615   2.453   3.262
  930WAT     H1 3309   5.658   2.508   3.327
  930WAT     H2 3310   5.663   2.371   3.263
  931WAT      O 3311   5.336   2.732   4.007
  931WAT     H1 3312   5.369   2.645   3.984
  931WAT     H2 3313   5.379   2.753   4.090
  932WAT      O 3314   5.796   2.565   3.773
  932WAT     H1 3315   5.766   2.553   3.863
  932WAT     H2 3316   5.785   2.479   3.732
  933WAT      O 3317   5.385   2.819   4.281
  933WAT     H1 3318   5.341   2.837   4.364
  933WAT     H2 3319   5.442   2.895   4.267
  934WAT      O 3320   5.368   2.070   3.917
  934WAT     H1 3321   5.303   2.043   3.852
  934WAT     H2 3322   5.452   2.059   3.872
  935WAT      O 3323   5.472   2.109   4.371
  935WAT     H1 3324   5.509   2.100   4.459
  935WAT     H2 3325   5.415   2.032   4.361
  936WAT      O 3326   5.427   1.800   4.761
  936WAT     H1 3327   5.338   1.796   4.795
  936WAT     H2 3328   5.481   1.820   4.838
  937WAT      O 3329   5.289   1.791   3.511
  937WAT     H1 3330   5.199   1.817   3.494
  937WAT     H2 3331   5.338   1.818   3.433
  938WAT      O 3332   5.544   1.697   3.302
  938WAT     H1 3333   5.615   1.654   3.253
  938WAT     H2 3334   5.472   1.703   3.239
  939WAT      O 3335   5.509   1.302   3.206
  939WAT     H1 3336   5.581   1.356   3.238
  939WAT     H2 3337   5.536   1.275   3.118
  940WAT      O 3338   5.477   1.227   4.196
  940WAT     H1 3339   5.542   1.172   4.152
  940WAT     H2 3340   5.519   1.253   4.278
  941WAT      O 3341   5.453   1.243   4.470
  941WAT     H1 3342   5.418   1.288   4.547
  941WAT     H2 3343   5.420   1.153   4.479
  942WAT      O 3344   5.613   2.560   4.887
  942WAT     H1 3345   5.609   2.523   4.975
  942WAT     H2 3346   5.627   2.654   4.901
  943WAT      O 3347   5.983   2.715   4.447
  943WAT     H1 3348   5.959   2.742   4.358
  943WAT     H2 3349   6.077   2.733   4.453
  944WAT      O 3350   6.204   1.362   4.823
  944WAT     H1 3351   6.198   1.421   4.898
  944WAT     H2 3352   6.298   1.351   4.808
  945WAT      O 3353   6.468   1.327   4.787
  945WAT     H1 3354   6.529   1.359   4.720
  945WAT     H2 3355   6.522   1.279   4.849
  946WAT      O 3356   5.520   1.195   4.798
  946WAT     H1 3357   5.575   1.177   4.722
  946WAT     H2 3358   5.527   1.116   4.852
  947WAT      O 3359   5.597   2.854   4.599
  947WAT     H1 3360   5.538   2.841   4.673
  947WAT     H2 3361   5.597   2.771   4.552
  948WAT      O 3362   6.542   1.184   4.419
  948WAT     H1 3363   6.454   1.217   4.399
  948WAT     H2 3364   6.531   1.137   4.502
  949WAT      O 3365   5.560   2.591   4.494
  949WAT     H1 3366   5.488   2.529   4.487
  949WAT     H2 3367   5.566   2.630   4.407
  950WAT      O 3368   5.921   2.813   4.173
  950WAT     H1 3369   5.972   2.751   4.120
  950WAT     H2 3370   5.986   2.863   4.222
  951WAT      O 3371   6.195   2.902   4.255
  951WAT     H1 3372   6.224   2.876   4.168
  951WAT     H2 3373   6.246   2.846   4.314
  952WAT      O 3374   6.317   1.276   4.313
  952WAT     H1 3375   6.238   1.323   4.341
  952WAT     H2 3376   6.287   1.185   4.302
  953WAT      O 3377   5.389   2.923   3.815
  953WAT     H1 3378   5.372   2.860   3.885
  953WAT     H2 3379   5.302   2.943   3.780
  954WAT      O 3380   5.451   1.306   3.565
  954WAT     H1 3381   5.527   1.317   3.508
  954WAT     H2 3382   5.405   1.390   3.561
  955WAT      O 3383   6.105   1.517   3.864
  955WAT     H1 3384   6.024   1.480   3.830
  955WAT     H2 3385   6.156   1.442   3.895
  956WAT      O 3386   6.555   1.184   3.988
  956WAT     H1 3387   6.616   1.241   4.036
  956WAT     H2 3388   6.481   1.240   3.966
  957WAT      O 3389   5.549   2.792   3.559
  957WAT     H1 3390   5.497   2.830   3.489
  957WAT     H2 3391   5.542   2.855   3.632
  958WAT      O 3392   5.688   1.359   3.419
  958WAT     H1 3393   5.741   1.280   3.406
  958WAT     H2 3394   5.752   1.427   3.443
  959WAT      O 3395   5.908   1.332   3.725
  959WAT     H1 3396   5.845   1.262   3.741
  959WAT     H2 3397   5.854   1.408   3.703
  960WAT      O 3398   6.202   2.994   4.992
  960WAT     H1 3399   6.294   2.970   4.996
  960WAT     H2 3400   6.200   3.076   4.944
  961WAT      O 3401   5.920   1.260   4.968
  961WAT     H1 3402   5.892   1.311   4.892
  961WAT     H2 3403   5.958   1.180   4.932
  962WAT      O 3404   5.809   2.987   3.447
  962WAT     H1 3405   5.882   2.959   3.392
  962WAT     H2 3406   5.835   2.963   3.536
  963WAT      O 3407   5.725   2.599   3.447
  963WAT     H1 3408   5.662   2.645   3.502
  963WAT     H2 3409   5.737   2.514   3.491
  964WAT      O 3410   6.471   2.004   2.062
  964WAT     H1 3411   6.463   1.912   2.035
  964WAT     H2 3412   6.430   2.053   1.992
  965WAT      O 3413   6.284   2.181   2.251
  965WAT     H1 3414   6.207   2.133   2.280
  965WAT     H2 3415   6.349   2.114   2.233
  966WAT      O 3416   5.686   2.213   2.338
  966WAT     H1 3417   5.603   2.187   2.378
  966WAT     H2 3418   5.747   2.220   2.412
  967WAT      O 3419   5.684   2.616   2.358
  967WAT     H1 3420   5.714   2.527   2.340
  967WAT     H2 3421   5.758   2.672   2.335
  968WAT      O 3422   5.527   1.709   1.717
  968WAT     H1 3423   5.438   1.743   1.707
  968WAT     H2 3424   5.555   1.689   1.628
  969WAT      O 3425   5.323   1.969   2.305
  969WAT     H1 3426   5.380   1.892   2.305
  969WAT     H2 3427   5.323   1.999   2.214
  970WAT      O 3428   6.309   2.851   2.091
  970WAT     H1 3429   6.247   2.896   2.034
  970WAT     H2 3430   6.394   2.866   2.050
  971WAT      O 3431   6.228   2.449   2.251
  971WAT     H1 3432   6.221   2.355   2.235
  971WAT     H2 3433   6.304   2.458   2.308
  972WAT      O 3434   5.447   1.510   2.484
  972WAT     H1 3435   5.429   1.420   2.512
  972WAT     H2 3436   5.407   1.564   2.551
  973WAT      O 3437   6.331   1.730   2.274
  973WAT     H1 3438   6.369   1.642   2.263
  973WAT     H2 3439   6.321   1.763   2.185
  974WAT      O 3440   5.744   1.567   1.820
  974WAT     H1 3441   5.755   1.657   1.851
  974WAT     H2 3442   5.653   1.562   1.791
  975WAT      O 3443   5.509   1.759   2.345
  975WAT     H1 3444   5.577   1.786   2.407
  975WAT     H2 3445   5.478   1.675   2.378
  976WAT      O 3446   5.928   1.864   2.253
  976WAT     H1 3447   5.979   1.914   2.317
  976WAT     H2 3448   5.981   1.786   2.236
  977WAT      O 3449   5.757   1.328   2.680
  977WAT     H1 3450   5.757   1.380   2.599
  977WAT     H2 3451   5.674   1.280   2.678
  978WAT      O 3452   6.395   2.339   1.830
  978WAT     H1 3453   6.334   2.386   1.774
  978WAT     H2 3454   6.447   2.408   1.872
  979WAT      O 3455   5.882   2.292   2.498
  979WAT     H1 3456   5.848   2.354   2.562
  979WAT     H2 3457   5.899   2.344   2.420
  980WAT      O 3458   5.725   1.499   2.481
  980WAT     H1 3459   5.759   1.583   2.451
  980WAT     H2 3460   5.631   1.514   2.492
  981WAT      O 3461   5.803   2.489   2.679
  981WAT     H1 3462   5.865   2.556   2.651
  981WAT     H2 3463   5.717   2.529   2.670
  982WAT      O 3464   5.332   2.408   1.567
  982WAT     H1 3465   5.295   2.456   1.494
  982WAT     H2 3466   5.358   2.475   1.630
  983WAT      O 3467   6.093   1.248   2.113
  983WAT     H1 3468   6.124   1.192   2.042
  983WAT     H2 3469   6.000   1.261   2.095
  984WAT      O 3470   6.332   2.054   1.787
  984WAT     H1 3471   6.239   2.048   1.810
  984WAT     H2 3472   6.347   2.148   1.775
  985WAT      O 3473   6.331   1.681   1.486
  985WAT     H1 3474   6.237   1.698   1.495
  985WAT     H2 3475   6.362   1.753   1.432
  986WAT      O 3476   5.893   2.107   2.065
  986WAT     H1 3477   5.852   2.036   2.015
  986WAT     H2 3478   5.901   2.072   2.154
  987WAT      O 3479   5.939   2.476   2.281
  987WAT     H1 3480   5.910   2.415   2.213
  987WAT     H2 3481   6.034   2.479   2.270
  988WAT      O 3482   5.764   1.784   2.443
  988WAT     H1 3483   5.819   1.795   2.365
  988WAT     H2 3484   5.815   1.822   2.514
  989WAT      O 3485   5.849   2.449   2.946
  989WAT     H1 3486   5.759   2.472   2.971
  989WAT     H2 3487   5.851   2.462   2.852
  990WAT      O 3488   6.553   2.134   1.538
  990WAT     H1 3489   6.597   2.051   1.523
  990WAT     H2 3490   6.624   2.198   1.546
  991WAT      O 3491   5.731   2.137   2.804
  991WAT     H1 3492   5.717   2.224   2.841
  991WAT     H2 3493   5.643   2.102   2.789
  992WAT      O 3494   6.364   2.628   1.935
  992WAT     H1 3495   6.407   2.703   1.893
  992WAT     H2 3496   6.357   2.653   2.027
  993WAT      O 3497   5.911   2.731   3.025
  993WAT     H1 3498   5.908   2.771   2.938
  993WAT     H2 3499   5.895   2.638   3.009
  994WAT      O 3500   5.563   1.996   1.815
  994WAT     H1 3501   5.551   2.069   1.754
  994WAT     H2 3502   5.532   1.919   1.767
  995WAT      O 3503   5.326   2.314   2.396
  995WAT     H1 3504   5.334   2.327   2.301
  995WAT     H2 3505   5.388   2.243   2.415
  996WAT      O 3506   5.451   2.484   2.037
  996WAT     H1 3507   5.410   2.498   1.951
  996WAT     H2 3508   5.540   2.455   2.016
  997WAT      O 3509   6.433   2.898   2.727
  997WAT     H1 3510   6.484   2.890   2.808
  997WAT     H2 3511   6.348   2.933   2.757
  998WAT      O 3512   5.878   2.905   1.848
  998WAT     H1 3513   5.861   2.813   1.827
  998WAT     H2 3514   5.793   2.941   1.872
  999WAT      O 3515   6.557   2.840   1.934
  999WAT     H1 3516   6.603   2.762   1.965
  999WAT     H2 3517   6.591   2.912   1.988
 1000WAT      O 3518   5.332   2.418   2.650
 1000WAT     H1 3519   5.348   2.371   2.568
 1000WAT     H2 3520   5.379   2.367   2.716
 1001WAT      O 3521   5.809   1.331   2.153
 1001WAT     H1 3522   5.765   1.409   2.120
 1001WAT     H2 3523   5.865   1.363   2.224
 1002WAT      O 3524   6.238   1.617   2.714
 1002WAT     H1 3525   6.192   1.638   2.795
 1002WAT     H2 3526   6.198   1.536   2.683
 1003WAT      O 3527   6.447   1.890   3.037
 1003WAT     H1 3528   6.480   1.806   3.003
 1003WAT     H2 3529   6.526   1.942   3.051
 1004WAT      O 3530   6.121   1.293   1.641
 1004WAT     H1 3531   6.058   1.292   1.714
 1004WAT     H2 3532   6.112   1.206   1.602
 1005WAT      O 3533   6.013   1.385   2.339
 1005WAT     H1 3534   6.043   1.476   2.331
 1005WAT     H2 3535   6.068   1.336   2.278
 1006WAT      O 3536   5.788   1.843   1.926
 1006WAT     H1 3537   5.766   1.821   2.017
 1006WAT     H2 3538   5.710   1.886   1.892
 1007WAT      O 3539   6.511   1.844   1.786
 1007WAT     H1 3540   6.451   1.916   1.768
 1007WAT     H2 3541   6.566   1.837   1.708
 1008WAT      O 3542   6.032   1.933   2.993
 1008WAT     H1 3543   6.023   1.839   2.978
 1008WAT     H2 3544   6.117   1.955   2.953
 1009WAT      O 3545   6.372   1.707   1.989
 1009WAT     H1 3546   6.411   1.739   1.908
 1009WAT     H2 3547   6.408   1.619   2.000
 1010WAT      O 3548   5.545   1.574   2.808
 1010WAT     H1 3549   5.506   1.659   2.829
 1010WAT     H2 3550   5.477   1.510   2.827
 1011WAT      O 3551   6.203   1.582   3.115
 1011WAT     H1 3552   6.134   1.563   3.178
 1011WAT     H2 3553   6.277   1.611   3.168
 1012WAT      O 3554   5.276   1.366   2.211
 1012WAT     H1 3555   5.247   1.423   2.283
 1012WAT     H2 3556   5.350   1.318   2.248
 1013WAT      O 3557   5.294   1.761   1.332
 1013WAT     H1 3558   5.286   1.855   1.346
 1013WAT     H2 3559   5.259   1.746   1.244
 1014WAT      O 3560   6.431   1.966   2.399
 1014WAT     H1 3561   6.357   2.017   2.433
 1014WAT     H2 3562   6.391   1.885   2.368
 1015WAT      O 3563   6.074   1.634   2.239
 1015WAT     H1 3564   6.075   1.590   2.154
 1015WAT     H2 3565   6.164   1.666   2.250
 1016WAT      O 3566   5.659   1.622   2.135
 1016WAT     H1 3567   5.625   1.670   2.211
 1016WAT     H2 3568   5.583   1.577   2.099
 1017WAT      O 3569   6.080   1.734   1.538
 1017WAT     H1 3570   6.093   1.730   1.633
 1017WAT     H2 3571   6.042   1.820   1.523
 1018WAT      O 3572   6.477   1.512   2.340
 1018WAT     H1 3573   6.479   1.557   2.424
 1018WAT     H2 3574   6.452   1.422   2.361
 1019WAT      O 3575   5.982   1.965   1.478
 1019WAT     H1 3576   5.925   1.920   1.415
 1019WAT     H2 3577   6.053   2.001   1.425
 1020WAT      O 3578   5.489   2.355   2.866
 1020WAT     H1 3579   5.451   2.291   2.925
 1020WAT     H2 3580   5.521   2.426   2.923
 1021WAT      O 3581   6.104   2.040   2.414
 1021WAT     H1 3582   6.141   1.993   2.488
 1021WAT     H2 3583   6.085   2.127   2.448
 1022WAT      O 3584   5.391   1.514   2.027
 1022WAT     H1 3585   5.362   1.478   2.110
 1022WAT     H2 3586   5.385   1.441   1.965
 1023WAT      O 3587   5.883   1.944   2.646
 1023WAT     H1 3588   5.853   2.032   2.668
 1023WAT     H2 3589   5.979   1.950   2.649
 1024WAT      O 3590   5.736   2.365   1.705
 1024WAT     H1 3591   5.659   2.311   1.689
 1024WAT     H2 3592   5.809   2.313   1.671
 1025WAT      O 3593   6.358   1.404   1.699
 1025WAT     H1 3594   6.277   1.354   1.691
 1025WAT     H2 3595   6.339   1.488   1.657
 1026WAT      O 3596   6.350   2.271   2.873
 1026WAT     H1 3597   6.344   2.179   2.848
 1026WAT     H2 3598   6.287   2.281   2.945
 1027WAT      O 3599   5.741   2.331   2.069
 1027WAT     H1 3600   5.792   2.251   2.064
 1027WAT     H2 3601   5.695   2.325   2.153
 1028WAT      O 3602   6.229   2.458   1.596
 1028WAT     H1 3603   6.263   2.533   1.547
 1028WAT     H2 3604   6.146   2.489   1.633
 1029WAT      O 3605   5.489   2.028   2.760
 1029WAT     H1 3606   5.453   2.095   2.819
 1029WAT     H2 3607   5.460   1.945   2.797
 1030WAT      O 3608   5.809   2.074   3.049
 1030WAT     H1 3609   5.779   2.088   2.959
 1030WAT     H2 3610   5.886   2.018   3.039
 1031WAT      O 3611   6.343   2.554   2.848
 1031WAT     H1 3612   6.345   2.460   2.826
 1031WAT     H2 3613   6.273   2.562   2.912
 1032WAT      O 3614   6.518   2.390   2.133
 1032WAT     H1 3615   6.553   2.331   2.067
 1032WAT     H2 3616   6.429   2.358   2.150
 1033WAT      O 3617   6.126   2.466   1.873
 1033WAT     H1 3618   6.195   2.521   1.912
 1033WAT     H2 3619   6.047   2.521   1.877
 1034WAT      O 3620   5.340   2.028   1.423
 1034WAT     H1 3621   5.427   2.056   1.451
 1034WAT     H2 3622   5.291   2.109   1.411
 1035WAT      O 3623   6.056   2.167   1.835
 1035WAT     H1 3624   6.102   2.248   1.857
 1035WAT     H2 3625   6.021   2.135   1.918
 1036WAT      O 3626   6.287   2.718   2.558
 1036WAT     H1 3627   6.351   2.738   2.625
 1036WAT     H2 3628   6.323   2.642   2.512
 1037WAT      O 3629   5.647   1.201   1.882
 1037WAT     H1 3630   5.634   1.200   1.977
 1037WAT     H2 3631   5.564   1.235   1.847
 1038WAT      O 3632   6.414   2.518   2.429
 1038WAT     H1 3633   6.478   2.448   2.441
 1038WAT     H2 3634   6.467   2.596   2.411
 1039WAT      O 3635   6.591   2.598   2.750
 1039WAT     H1 3636   6.625   2.657   2.818
 1039WAT     H2 3637   6.499   2.585   2.773
 1040WAT      O 3638   5.377   2.949   1.479
 1040WAT     H1 3639   5.413   3.009   1.414
 1040WAT     H2 3640   5.363   3.004   1.557
 1041WAT      O 3641   5.346   1.377   2.828
 1041WAT     H1 3642   5.275   1.397   2.888
 1041WAT     H2 3643   5.388   1.299   2.865
 1042WAT      O 3644   5.375   2.776   2.927
 1042WAT     H1 3645   5.386   2.682   2.913
 1042WAT     H2 3646   5.310   2.802   2.862
 1043WAT      O 3647   6.174   2.603   3.067
 1043WAT     H1 3648   6.142   2.531   3.121
 1043WAT     H2 3649   6.107   2.670   3.074
 1044WAT      O 3650   5.978   2.688   1.561
 1044WAT     H1 3651   5.978   2.761   1.499
 1044WAT     H2 3652   5.886   2.663   1.570
 1045WAT      O 3653   5.539   2.210   1.635
 1045WAT     H1 3654   5.478   2.284   1.636
 1045WAT     H2 3655   5.586   2.219   1.553
 1046WAT      O 3656   6.496   1.626   2.603
 1046WAT     H1 3657   6.533   1.544   2.636
 1046WAT     H2 3658   6.410   1.632   2.645
 1047WAT      O 3659   6.277   2.694   1.427
 1047WAT     H1 3660   6.287   2.673   1.334
 1047WAT     H2 3661   6.187   2.668   1.448
 1048WAT      O 3662   6.029   1.750   1.825
 1048WAT     H1 3663   5.958   1.796   1.870
 1048WAT     H2 3664   6.058   1.684   1.889
 1049WAT      O 3665   6.192   1.892   2.625
 1049WAT     H1 3666   6.242   1.939   2.692
 1049WAT     H2 3667   6.206   1.799   2.646
 1050WAT      O 3668   6.432   1.422   1.969
 1050WAT     H1 3669   6.420   1.424   1.874
 1050WAT     H2 3670   6.527   1.427   1.981
 1051WAT      O 3671   6.141   2.946   1.897
 1051WAT     H1 3672   6.167   2.942   1.804
 1051WAT     H2 3673   6.046   2.933   1.896
 1052WAT      O 3674   5.850   1.580   1.563
 1052WAT     H1 3675   5.935   1.624   1.556
 1052WAT     H2 3676   5.813   1.612   1.646
 1053WAT      O 3677   5.740   2.206   1.410
 1053WAT     H1 3678   5.816   2.195   1.467
 1053WAT     H2 3679   5.747   2.136   1.345
 1054WAT      O 3680   5.609   1.949   1.479
 1054WAT     H1 3681   5.617   1.854   1.490
 1054WAT     H2 3682   5.698   1.982   1.489
 1055WAT      O 3683   5.689   2.964   2.189
 1055WAT     H1 3684   5.763   2.909   2.216
 1055WAT     H2 3685   5.728   3.051   2.175
 1056WAT      O 3686   5.378   2.571   1.776
 1056WAT     H1 3687   5.285   2.595   1.775
 1056WAT     H2 3688   5.424   2.653   1.764
 1057WAT      O 3689   5.590   2.882   3.108
 1057WAT     H1 3690   5.670   2.915   3.149
 1057WAT     H2 3691   5.538   2.846   3.180
 1058WAT      O 3692   6.000   2.881   1.371
 1058WAT     H1 3693   6.080   2.910   1.326
 1058WAT     H2 3694   5.948   2.838   1.303
 1059WAT      O 3695   6.473   2.493   3.103
 1059WAT     H1 3696   6.413   2.496   3.029
 1059WAT     H2 3697   6.443   2.420   3.156
 1060WAT      O 3698   5.362   2.131   3.002
 1060WAT     H1 3699   5.412   2.073   3.059
 1060WAT     H2 3700   5.288   2.160   3.056
 1061WAT      O 3701   6.052   2.403   1.358
 1061WAT     H1 3702   6.042   2.342   1.430
 1061WAT     H2 3703   6.035   2.351   1.279
 1062WAT      O 3704   6.067   2.272   2.956
 1062WAT     H1 3705   5.991   2.329   2.947
 1062WAT     H2 3706   6.085   2.243   2.866
 1063WAT      O 3707   6.376   2.310   1.418
 1063WAT     H1 3708   6.321   2.354   1.483
 1063WAT     H2 3709   6.438   2.259   1.470
 1064WAT      O 3710   5.565   1.946   3.092
 1064WAT     H1 3711   5.569   1.916   3.183
 1064WAT     H2 3712   5.650   1.986   3.076
 1065WAT      O 3713   5.943   2.205   1.608
 1065WAT     H1 3714   5.985   2.189   1.692
 1065WAT     H2 3715   5.955   2.124   1.558
 1066WAT      O 3716   5.759   1.803   2.888
 1066WAT     H1 3717   5.706   1.754   2.826
 1066WAT     H2 3718   5.826   1.846   2.835
 1067WAT      O 3719   6.194   2.108   1.333
 1067WAT     H1 3720   6.246   2.036   1.296
 1067WAT     H2 3721   6.259   2.172   1.363
 1068WAT      O 3722   5.808   1.500   2.896
 1068WAT     H1 3723   5.798   1.438   2.824
 1068WAT     H2 3724   5.750   1.573   2.874
 1069WAT      O 3725   6.084   1.356   2.600
 1069WAT     H1 3726   6.040   1.358   2.515
 1069WAT     H2 3727   6.021   1.316   2.659
 1070WAT      O 3728   6.125   2.245   2.662
 1070WAT     H1 3729   6.167   2.330   2.645
 1070WAT     H2 3730   6.033   2.259   2.639
 1071WAT      O 3731   6.359   2.018   2.800
 1071WAT     H1 3732   6.371   1.959   2.874
 1071WAT     H2 3733   6.445   2.022   2.758
 1072WAT      O 3734   5.832   1.813   1.302
 1072WAT     H1 3735   5.812   1.726   1.338
 1072WAT     H2 3736   5.815   1.804   1.209
 1073WAT      O 3737   5.910   2.876   2.773
 1073WAT     H1 3738   5.856   2.948   2.741
 1073WAT     H2 3739   5.935   2.828   2.694
 1074WAT      O 3740   6.035   1.673   2.926
 1074WAT     H1 3741   6.094   1.642   2.995
 1074WAT     H2 3742   5.954   1.625   2.942
 1075WAT      O 3743   6.517   1.634   2.949
 1075WAT     H1 3744   6.448   1.568   2.943
 1075WAT     H2 3745   6.589   1.590   2.994
 1076WAT      O 3746   6.580   1.294   1.555
 1076WAT     H1 3747   6.608   1.210   1.591
 1076WAT     H2 3748   6.503   1.317   1.607
 1077WAT      O 3749   5.712   1.523   1.301
 1077WAT     H1 3750   5.742   1.523   1.210
 1077WAT     H2 3751   5.786   1.488   1.351
 1078WAT      O 3752   6.196   2.999   2.799
 1078WAT     H1 3753   6.188   3.090   2.830
 1078WAT     H2 3754   6.105   2.967   2.796
 1079WAT      O 3755   6.034   1.417   1.400
 1079WAT     H1 3756   5.999   1.349   1.342
 1079WAT     H2 3757   6.054   1.371   1.481
 1080WAT      O 3758   6.251   2.916   1.562
 1080WAT     H1 3759   6.340   2.950   1.564
 1080WAT     H2 3760   6.254   2.844   1.499
 1081WAT      O 3761   5.615   2.453   1.384
 1081WAT     H1 3762   5.658   2.508   1.450
 1081WAT     H2 3763   5.663   2.371   1.385
 1082WAT      O 3764   5.336   2.732   2.130
 1082WAT     H1 3765   5.369   2.645   2.106
 1082WAT     H2 3766   5.379   2.753   2.213
 1083WAT      O 3767   5.796   2.565   1.896
 1083WAT     H1 3768   5.766   2.553   1.986
 1083WAT     H2 3769   5.785   2.479   1.855
 1084WAT      O 3770   5.385   2.819   2.403
 1084WAT     H1 3771   5.341   2.837   2.487
 1084WAT     H2 3772   5.442   2.895   2.389
 1085WAT      O 3773   5.368   2.070   2.039
 1085WAT     H1 3774   5.303   2.043   1.975
 1085WAT     H2 3775   5.452   2.059   1.994
 1086WAT      O 3776   5.472   2.109   2.493
 1086WAT     H1 3777   5.509   2.100   2.581
 1086WAT     H2 3778   5.415   2.032   2.483
 1087WAT      O 3779   5.427   1.800   2.884
 1087WAT     H1 3780   5.338   1.796   2.918
 1087WAT     H2 3781   5.481   1.820   2.960
 1088WAT      O 3782   5.289   1.791   1.634
 1088WAT     H1 3783   5.199   1.817   1.616
 1088WAT     H2 3784   5.338   1.818   1.556
 1089WAT      O 3785   5.544   1.697   1.424
 1089WAT     H1 3786   5.615   1.654   1.376
 1089WAT     H2 3787   5.472   1.703   1.361
 1090WAT      O 3788   5.509   1.302   1.329
 1090WAT     H1 3789   5.581   1.356   1.360
 1090WAT     H2 3790   5.536   1.275   1.241
 1091WAT      O 3791   5.477   1.227   2.319
 1091WAT     H1 3792   5.542   1.172   2.275
 1091WAT     H2 3793   5.519   1.253   2.401
 1092WAT      O 3794   5.453   1.243   2.593
 1092WAT     H1 3795   5.418   1.288   2.670
 1092WAT     H2 3796   5.420   1.153   2.601
 1093WAT      O 3797   5.613   2.560   3.010
 1093WAT     H1 3798   5.609   2.523   3.098
 1093WAT     H2 3799   5.627   2.654   3.024
 1094WAT      O 3800   5.983   2.715   2.570
 1094WAT     H1 3801   5.959   2.742   2.481
 1094WAT     H2 3802   6.077   2.733   2.575
 1095WAT      O 3803   6.204   1.362   2.945
 1095WAT     H1 3804   6.198   1.421   3.020
 1095WAT     H2 3805   6.298   1.351   2.931
 1096WAT      O 3806   6.468   1.327   2.909
 1096WAT     H1 3807   6.529   1.359   2.843
 1096WAT     H2 3808   6.522   1.279   2.971
 1097WAT      O 3809   5.520   1.195   2.921
 1097WAT     H1 3810   5.575   1.177   2.844
 1097WAT     H2 3811   5.527   1.116   2.974
 1098WAT      O 3812   5.597   2.854   2.722
 1098WAT     H1 3813   5.538   2.841   2.795
 1098WAT     H2 3814   5.597   2.771   2.675
 1099WAT      O 3815   6.542   1.184   2.542
 1099WAT     H1 3816   6.454   1.217   2.522
 1099WAT     H2 3817   6.531   1.137   2.624
 1100WAT      O 3818   5.560   2.591   2.617
 1100WAT     H1 3819   5.488   2.529   2.610
 1100WAT     H2 3820   5.566   2.630   2.530
 1101WAT      O 3821   5.921   2.813   2.295
 1101WAT     H1 3822   5.972   2.751   2.243
 1101WAT     H2 3823   5.986   2.863   2.344
 1102WAT      O 3824   6.195   2.902   2.378
 1102WAT     H1 3825   6.224   2.876   2.290
 1102WAT     H2 3826   6.246   2.846   2.437
 1103WAT      O 3827   6.317   1.276   2.436
 1103WAT     H1 3828   6.238   1.323   2.464
 1103WAT     H2 3829   6.287   1.185   2.425
 1104WAT      O 3830   5.389   2.923   1.938
 1104WAT     H1 3831   5.372   2.860   2.007
 1104WAT     H2 3832   5.302   2.943   1.902
 1105WAT      O 3833   5.451   1.306   1.688
 1105WAT     H1 3834   5.527   1.317   1.631
 1105WAT     H2 3835   5.405   1.390   1.683
 1106WAT      O 3836   6.105   1.517   1.987
 1106WAT     H1 3837   6.024   1.480   1.953
 1106WAT     H2 3838   6.156   1.442   2.017
 1107WAT      O 3839   6.555   1.184   2.111
 1107WAT     H1 3840   6.616   1.241   2.158
 1107WAT     H2 3841   6.481   1.240   2.088
 1108WAT      O 3842   5.549   2.792   1.682
 1108WAT     H1 3843   5.497   2.830   1.612
 1108WAT     H2 3844   5.542   2.855   1.754
 1109WAT      O 3845   5.688   1.359   1.542
 1109WAT     H1 3846   5.741   1.280   1.529
 1109WAT     H2 3847   5.752   1.427   1.565
 1110WAT      O 3848   5.908   1.332   1.847
 1110WAT     H1 3849   5.845   1.262   1.864
 1110WAT     H2 3850   5.854   1.408   1.826
 1111WAT      O 3851   6.202   2.994   3.114
 1111WAT     H1 3852   6.294   2.970   3.119
 1111WAT     H2 3853   6.200   3.076   3.066
 1112WAT      O 3854   5.920   1.260   3.091
 1112WAT     H1 3855   5.892   1.311   3.014
 1112WAT     H2 3856   5.958   1.180   3.054
 1113WAT      O 3857   5.809   2.987   1.570
 1113WAT     H1 3858   5.882   2.959   1.515
 1113WAT     H2 3859   5.835   2.963   1.659
 1114WAT      O 3860   5.725   2.599   1.570
 1114WAT     H1 3861   5.662   2.645   1.625
 1114WAT     H2 3862   5.737   2.514   1.613
 1115WAT      O 3863   6.284   2.181   0.373
 1115WAT     H1 3864   6.207   2.133   0.402
 1115WAT     H2 3865   6.349   2.114   0.356
 1116WAT      O 3866   5.686   2.213   0.461
 1116WAT     H1 3867   5.603   2.187   0.501
 1116WAT     H2 3868   5.747   2.220   0.534
 1117WAT      O 3869   5.684   2.616   0.480
 1117WAT     H1 3870   5.714   2.527   0.463
 1117WAT     H2 3871   5.758   2.672   0.458
 1118WAT      O 3872   5.323   1.969   0.428
 1118WAT     H1 3873   5.380   1.892   0.428
 1118WAT     H2 3874   5.323   1.999   0.337
 1119WAT      O 3875   6.228   2.449   0.374
 1119WAT     H1 3876   6.221   2.355   0.358
 1119WAT     H2 3877   6.304   2.458   0.431
 1120WAT      O 3878   5.447   1.510   0.606
 1120WAT     H1 3879   5.429   1.420   0.634
 1120WAT     H2 3880   5.407   1.564   0.674
 1121WAT      O 3881   6.331   1.730   0.397
 1121WAT     H1 3882   6.369   1.642   0.385
 1121WAT     H2 3883   6.321   1.763   0.307
 1122WAT      O 3884   5.509   1.759   0.467
 1122WAT     H1 3885   5.577   1.786   0.529
 1122WAT     H2 3886   5.478   1.675   0.501
 1123WAT      O 3887   5.928   1.864   0.376
 1123WAT     H1 3888   5.979   1.914   0.440
 1123WAT     H2 3889   5.981   1.786   0.358
 1124WAT      O 3890   5.757   1.328   0.803
 1124WAT     H1 3891   5.757   1.380   0.722
 1124WAT     H2 3892   5.674   1.280   0.800
 1125WAT      O 3893   5.882   2.292   0.620
 1125WAT     H1 3894   5.848   2.354   0.685
 1125WAT     H2 3895   5.899   2.344   0.542
 1126WAT      O 3896   5.725   1.499   0.603
 1126WAT     H1 3897   5.759   1.583   0.574
 1126WAT     H2 3898   5.631   1.514   0.615
 1127WAT      O 3899   5.803   2.489   0.802
 1127WAT     H1 3900   5.865   2.556   0.774
 1127WAT     H2 3901   5.717   2.529   0.793
 1128WAT      O 3902   5.939   2.476   0.404
 1128WAT     H1 3903   5.910   2.415   0.336
 1128WAT     H2 3904   6.034   2.479   0.393
 1129WAT      O 3905   5.764   1.784   0.566
 1129WAT     H1 3906   5.819   1.795   0.488
 1129WAT     H2 3907   5.815   1.822   0.637
 1130WAT      O 3908   5.849   2.449   1.069
 1130WAT     H1 3909   5.759   2.472   1.094
 1130WAT     H2 3910   5.851   2.462   0.974
 1131WAT      O 3911   5.731   2.137   0.927
 1131WAT     H1 3912   5.717   2.224   0.963
 1131WAT     H2 3913   5.643   2.102   0.912
 1132WAT      O 3914   5.911   2.731   1.147
 1132WAT     H1 3915   5.908   2.771   1.061
 1132WAT     H2 3916   5.895   2.638   1.131
 1133WAT      O 3917   5.326   2.314   0.518
 1133WAT     H1 3918   5.334   2.327   0.424
 1133WAT     H2 3919   5.388   2.243   0.538
 1134WAT      O 3920   6.433   2.898   0.850
 1134WAT     H1 3921   6.484   2.890   0.930
 1134WAT     H2 3922   6.348   2.933   0.879
 1135WAT      O 3923   5.332   2.418   0.772
 1135WAT     H1 3924   5.348   2.371   0.690
 1135WAT     H2 3925   5.379   2.367   0.839
 1136WAT      O 3926   5.809   1.331   0.276
 1136WAT     H1 3927   5.765   1.409   0.243
 1136WAT     H2 3928   5.865   1.363   0.347
 1137WAT      O 3929   6.238   1.617   0.836
 1137WAT     H1 3930   6.192   1.638   0.917
 1137WAT     H2 3931   6.198   1.536   0.806
 1138WAT      O 3932   6.447   1.890   1.159
 1138WAT     H1 3933   6.480   1.806   1.125
 1138WAT     H2 3934   6.526   1.942   1.174
 1139WAT      O 3935   6.013   1.385   0.462
 1139WAT     H1 3936   6.043   1.476   0.454
 1139WAT     H2 3937   6.068   1.336   0.400
 1140WAT      O 3938   6.032   1.933   1.115
 1140WAT     H1 3939   6.023   1.839   1.100
 1140WAT     H2 3940   6.117   1.955   1.076
 1141WAT      O 3941   5.545   1.574   0.931
 1141WAT     H1 3942   5.506   1.659   0.951
 1141WAT     H2 3943   5.477   1.510   0.950
 1142WAT      O 3944   6.203   1.582   1.238
 1142WAT     H1 3945   6.134   1.563   1.301
 1142WAT     H2 3946   6.277   1.611   1.291
 1143WAT      O 3947   5.276   1.366   0.334
 1143WAT     H1 3948   5.247   1.423   0.405
 1143WAT     H2 3949   5.350   1.318   0.370
 1144WAT      O 3950   6.431   1.966   0.521
 1144WAT     H1 3951   6.357   2.017   0.556
 1144WAT     H2 3952   6.391   1.885   0.491
 1145WAT      O 3953   6.074   1.634   0.362
 1145WAT     H1 3954   6.075   1.590   0.277
 1145WAT     H2 3955   6.164   1.666   0.372
 1146WAT      O 3956   5.659   1.622   0.258
 1146WAT     H1 3957   5.625   1.670   0.333
 1146WAT     H2 3958   5.583   1.577   0.222
 1147WAT      O 3959   6.477   1.512   0.462
 1147WAT     H1 3960   6.479   1.557   0.547
 1147WAT     H2 3961   6.452   1.422   0.484
 1148WAT      O 3962   5.489   2.355   0.988
 1148WAT     H1 3963   5.451   2.291   1.048
 1148WAT     H2 3964   5.521   2.426   1.045
 1149WAT      O 3965   6.104   2.040   0.536
 1149WAT     H1 3966   6.141   1.993   0.611
 1149WAT     H2 3967   6.085   2.127   0.570
 1150WAT      O 3968   5.883   1.944   0.768
 1150WAT     H1 3969   5.853   2.032   0.791
 1150WAT     H2 3970   5.979   1.950   0.772
 1151WAT      O 3971   6.350   2.271   0.996
 1151WAT     H1 3972   6.344   2.179   0.970
 1151WAT     H2 3973   6.287   2.281   1.067
 1152WAT      O 3974   5.741   2.331   0.192
 1152WAT     H1 3975   5.792   2.251   0.186
 1152WAT     H2 3976   5.695   2.325   0.276
 1153WAT      O 3977   5.489   2.028   0.883
 1153WAT     H1 3978   5.453   2.095   0.942
 1153WAT     H2 3979   5.460   1.945   0.920
 1154WAT      O 3980   5.809   2.074   1.171
 1154WAT     H1 3981   5.779   2.088   1.081
 1154WAT     H2 3982   5.886   2.018   1.162
 1155WAT      O 3983   6.343   2.554   0.971
 1155WAT     H1 3984   6.345   2.460   0.949
 1155WAT     H2 3985   6.273   2.562   1.035
 1156WAT      O 3986   6.518   2.390   0.255
 1156WAT     H1 3987   6.553   2.331   0.189
 1156WAT     H2 3988   6.429   2.358   0.272
 1157WAT      O 3989   6.287   2.718   0.680
 1157WAT     H1 3990   6.351   2.738   0.748
 1157WAT     H2 3991   6.323   2.642   0.635
 1158WAT      O 3992   6.414   2.518   0.552
 1158WAT     H1 3993   6.478   2.448   0.563
 1158WAT     H2 3994   6.467   2.596   0.534
 1159WAT      O 3995   6.591   2.598   0.872
 1159WAT     H1 3996   6.625   2.657   0.940
 1159WAT     H2 3997   6.499   2.585   0.895
 1160WAT      O 3998   5.346   1.377   0.951
 1160WAT     H1 3999   5.275   1.397   1.011
 1160WAT     H2 4000   5.388   1.299   0.988
 1161WAT      O 4001   5.375   2.776   1.049
 1161WAT     H1 4002   5.386   2.682   1.035
 1161WAT     H2 4003   5.310   2.802   0.984
 1162WAT      O 4004   6.174   2.603   1.189
 1162WAT     H1 4005   6.142   2.531   1.244
 1162WAT     H2 4006   6.107   2.670   1.197
 1163WAT      O 4007   6.496   1.626   0.726
 1163WAT     H1 4008   6.533   1.544   0.758
 1163WAT     H2 4009   6.410   1.632   0.767
 1164WAT      O 4010   6.192   1.892   0.748
 1164WAT     H1 4011   6.242   1.939   0.814
 1164WAT     H2 4012   6.206   1.799   0.769
 1165WAT      O 4013   5.689   2.964   0.312
 1165WAT     H1 4014   5.763   2.909   0.339
 1165WAT     H2 4015   5.728   3.051   0.298
 1166WAT      O 4016   5.590   2.882   1.230
 1166WAT     H1 4017   5.670   2.915   1.272
 1166WAT     H2 4018   5.538   2.846   1.303
 1167WAT      O 4019   6.473   2.493   1.225
 1167WAT     H1 4020   6.413   2.496   1.151
 1167WAT     H2 4021   6.443   2.420   1.279
 1168WAT      O 4022   5.362   2.131   1.125
 1168WAT     H1 4023   5.412   2.073   1.182
 1168WAT     H2 4024   5.288   2.160   1.179
 1169WAT      O 4025   6.067   2.272   1.078
 1169WAT     H1 4026   5.991   2.329   1.070
 1169WAT     H2 4027   6.085   2.243   0.989
 1170WAT      O 4028   5.565   1.946   1.214
 1170WAT     H1 4029   5.569   1.916   1.305
 1170WAT     H2 4030   5.650   1.986   1.198
 1171WAT      O 4031   5.759   1.803   1.011
 1171WAT     H1 4032   5.706   1.754   0.948
 1171WAT     H2 4033   5.826   1.846   0.958
 1172WAT      O 4034   5.808   1.500   1.019
 1172WAT     H1 4035   5.798   1.438   0.946
 1172WAT     H2 4036   5.750   1.573   0.996
 1173WAT      O 4037   6.084   1.356   0.722
 1173WAT     H1 4038   6.040   1.358   0.638
 1173WAT     H2 4039   6.021   1.316   0.782
 1174WAT      O 4040   6.125   2.245   0.784
 1174WAT     H1 4041   6.167   2.330   0.767
 1174WAT     H2 4042   6.033   2.259   0.761
 1175WAT      O 4043   6.359   2.018   0.923
 1175WAT     H1 4044   6.371   1.959   0.997
 1175WAT     H2 4045   6.445   2.022   0.881
 1176WAT      O 4046   5.910   2.876   0.896
 1176WAT     H1 4047   5.856   2.948   0.864
 1176WAT     H2 4048   5.935   2.828   0.817
 1177WAT      O 4049   6.035   1.673   1.049
 1177WAT     H1 4050   6.094   1.642   1.117
 1177WAT     H2 4051   5.954   1.625   1.064
 1178WAT      O 4052   6.517   1.634   1.072
 1178WAT     H1 4053   6.448   1.568   1.065
 1178WAT     H2 4054   6.589   1.590   1.116
 1179WAT      O 4055   6.196   2.999   0.922
 1179WAT     H1 4056   6.188   3.090   0.953
 1179WAT     H2 4057   6.105   2.967   0.919
 1180WAT      O 4058   5.336   2.732   0.252
 1180WAT     H1 4059   5.369   2.645   0.229
 1180WAT     H2 4060   5.379   2.753   0.335
 1181WAT      O 4061   5.385   2.819   0.526
 1181WAT     H1 4062   5.341   2.837   0.609
 1181WAT     H2 4063   5.442   2.895   0.512
 1182WAT      O 4064   5.472   2.109   0.616
 1182WAT     H1 4065   5.509   2.100   0.704
 1182WAT     H2 4066   5.415   2.032   0.606
 1183WAT      O 4067   5.427   1.800   1.006
 1183WAT     H1 4068   5.338   1.796   1.040
 1183WAT     H2 4069   5.481   1.820   1.083
 1184WAT      O 4070   5.477   1.227   0.441
 1184WAT     H1 4071   5.542   1.172   0.397
 1184WAT     H2 4072   5.519   1.253   0.523
 1185WAT      O 4073   5.453   1.243   0.716
 1185WAT     H1 4074   5.418   1.288   0.792
 1185WAT     H2 4075   5.420   1.153   0.724
 1186WAT      O 4076   5.613   2.560   1.132
 1186WAT     H1 4077   5.609   2.523   1.220
 1186WAT     H2 4078   5.627   2.654   1.146
 1187WAT      O 4079   5.983   2.715   0.692
 1187WAT     H1 4080   5.959   2.742   0.603
 1187WAT     H2 4081   6.077   2.733   0.698
 1188WAT      O 4082   6.204   1.362   1.068
 1188WAT     H1 4083   6.198   1.421   1.143
 1188WAT     H2 4084   6.298   1.351   1.053
 1189WAT      O 4085   6.468   1.327   1.032
 1189WAT     H1 4086   6.529   1.359   0.965
 1189WAT     H2 4087   6.522   1.279   1.094
 1190WAT      O 4088   5.520   1.195   1.043
 1190WAT     H1 4089   5.575   1.177   0.967
 1190WAT     H2 4090   5.527   1.116   1.097
 1191WAT      O 4091   5.597   2.854   0.844
 1191WAT     H1 4092   5.538   2.841   0.918
 1191WAT     H2 4093   5.597   2.771   0.797
 1192WAT      O 4094   6.542   1.184   0.664
 1192WAT     H1 4095   6.454   1.217   0.644
 1192WAT     H2 4096   6.531   1.137   0.747
 1193WAT      O 4097   5.560   2.591   0.739
 1193WAT     H1 4098   5.488   2.529   0.732
 1193WAT     H2 4099   5.566   2.630   0.652
 1194WAT      O 4100   5.921   2.813   0.418
 1194WAT     H1 4101   5.972   2.751   0.365
 1194WAT     H2 4102   5.986   2.863   0.467
 1195WAT      O 4103   6.195   2.902   0.500
 1195WAT     H1 4104   6.224   2.876   0.413
 1195WAT     H2 4105   6.246   2.846   0.559
 1196WAT      O 4106   6.317   1.276   0.558
 1196WAT     H1 4107   6.238   1.323   0.586
 1196WAT     H2 4108   6.287   1.185   0.547
 1197WAT      O 4109   6.555   1.184   0.233
 1197WAT     H1 4110   6.616   1.241   0.281
 1197WAT     H2 4111   6.481   1.240   0.211
 1198WAT      O 4112   6.202   2.994   1.237
 1198WAT     H1 4113   6.294   2.970   1.241
 1198WAT     H2 4114   6.200   3.076   1.189
 1199WAT      O 4115   5.920   1.260   1.213
 1199WAT     H1 4116   5.892   1.311   1.137
 1199WAT     H2 4117   5.958   1.180   1.177
 1200WAT      O 4118   6.284   0.304   6.005
 1200WAT     H1 4119   6.207   0.256   6.034
 1200WAT     H2 4120   6.349   0.236   5.988
 1201WAT      O 4121   5.684   0.739   6.113
 1201WAT     H1 4122   5.714   0.650   6.095
 1201WAT     H2 4123   5.758   0.794   6.090
 1202WAT      O 4124   6.309   0.973   5.845
 1202WAT     H1 4125   6.247   1.019   5.788
 1202WAT     H2 4126   6.394   0.989   5.805
 1203WAT      O 4127   6.228   0.572   6.006
 1203WAT     H1 4128   6.221   0.478   5.990
 1203WAT     H2 4129   6.304   0.581   6.063
 1204WAT      O 4130   6.395   0.462   5.585
 1204WAT     H1 4131   6.334   0.508   5.528
 1204WAT     H2 4132   6.447   0.531   5.626
 1205WAT      O 4133   5.332   0.530   5.322
 1205WAT     H1 4134   5.295   0.579   5.249
 1205WAT     H2 4135   5.358   0.597   5.385
 1206WAT      O 4136   6.332   0.177   5.542
 1206WAT     H1 4137   6.239   0.170   5.565
 1206WAT     H2 4138   6.347   0.271   5.530
 1207WAT      O 4139   5.893   0.229   5.820
 1207WAT     H1 4140   5.852   0.158   5.770
 1207WAT     H2 4141   5.901   0.195   5.909
 1208WAT      O 4142   5.939   0.598   6.036
 1208WAT     H1 4143   5.910   0.538   5.968
 1208WAT     H2 4144   6.034   0.602   6.025
 1209WAT      O 4145   6.553   0.257   5.293
 1209WAT     H1 4146   6.597   0.173   5.278
 1209WAT     H2 4147   6.624   0.320   5.301
 1210WAT      O 4148   6.364   0.751   5.690
 1210WAT     H1 4149   6.407   0.825   5.648
 1210WAT     H2 4150   6.357   0.775   5.782
 1211WAT      O 4151   5.451   0.606   5.792
 1211WAT     H1 4152   5.410   0.620   5.706
 1211WAT     H2 4153   5.540   0.578   5.771
 1212WAT      O 4154   5.878   1.028   5.603
 1212WAT     H1 4155   5.861   0.936   5.582
 1212WAT     H2 4156   5.793   1.063   5.627
 1213WAT      O 4157   6.557   0.963   5.689
 1213WAT     H1 4158   6.603   0.885   5.720
 1213WAT     H2 4159   6.591   1.034   5.743
 1214WAT      O 4160   5.736   0.487   5.460
 1214WAT     H1 4161   5.659   0.433   5.444
 1214WAT     H2 4162   5.809   0.435   5.426
 1215WAT      O 4163   5.741   0.454   5.824
 1215WAT     H1 4164   5.792   0.374   5.818
 1215WAT     H2 4165   5.695   0.448   5.908
 1216WAT      O 4166   6.229   0.581   5.351
 1216WAT     H1 4167   6.263   0.655   5.302
 1216WAT     H2 4168   6.146   0.612   5.387
 1217WAT      O 4169   6.518   0.513   5.888
 1217WAT     H1 4170   6.553   0.453   5.822
 1217WAT     H2 4171   6.429   0.480   5.905
 1218WAT      O 4172   6.126   0.589   5.628
 1218WAT     H1 4173   6.195   0.643   5.666
 1218WAT     H2 4174   6.047   0.643   5.632
 1219WAT      O 4175   6.056   0.289   5.590
 1219WAT     H1 4176   6.102   0.370   5.612
 1219WAT     H2 4177   6.021   0.257   5.673
 1220WAT      O 4178   5.377   1.072   5.234
 1220WAT     H1 4179   5.413   1.132   5.169
 1220WAT     H2 4180   5.363   1.126   5.311
 1221WAT      O 4181   5.978   0.810   5.316
 1221WAT     H1 4182   5.978   0.883   5.254
 1221WAT     H2 4183   5.886   0.785   5.325
 1222WAT      O 4184   5.539   0.332   5.390
 1222WAT     H1 4185   5.478   0.406   5.391
 1222WAT     H2 4186   5.586   0.341   5.308
 1223WAT      O 4187   6.277   0.816   5.182
 1223WAT     H1 4188   6.287   0.796   5.089
 1223WAT     H2 4189   6.187   0.791   5.203
 1224WAT      O 4190   6.141   1.068   5.652
 1224WAT     H1 4191   6.167   1.064   5.559
 1224WAT     H2 4192   6.046   1.056   5.651
 1225WAT      O 4193   5.740   0.328   5.165
 1225WAT     H1 4194   5.816   0.317   5.221
 1225WAT     H2 4195   5.747   0.259   5.100
 1226WAT      O 4196   5.689   1.087   5.944
 1226WAT     H1 4197   5.763   1.032   5.971
 1226WAT     H2 4198   5.728   1.173   5.930
 1227WAT      O 4199   5.378   0.693   5.531
 1227WAT     H1 4200   5.285   0.718   5.530
 1227WAT     H2 4201   5.424   0.776   5.519
 1228WAT      O 4202   6.000   1.004   5.126
 1228WAT     H1 4203   6.080   1.033   5.081
 1228WAT     H2 4204   5.948   0.961   5.058
 1229WAT      O 4205   6.052   0.526   5.113
 1229WAT     H1 4206   6.042   0.464   5.185
 1229WAT     H2 4207   6.035   0.474   5.034
 1230WAT      O 4208   6.376   0.432   5.173
 1230WAT     H1 4209   6.321   0.477   5.237
 1230WAT     H2 4210   6.438   0.382   5.225
 1231WAT      O 4211   5.943   0.328   5.363
 1231WAT     H1 4212   5.985   0.311   5.447
 1231WAT     H2 4213   5.955   0.247   5.313
 1232WAT      O 4214   6.194   0.230   5.087
 1232WAT     H1 4215   6.246   0.159   5.051
 1232WAT     H2 4216   6.259   0.294   5.117
 1233WAT      O 4217   6.251   1.039   5.316
 1233WAT     H1 4218   6.340   1.072   5.319
 1233WAT     H2 4219   6.254   0.966   5.254
 1234WAT      O 4220   5.615   0.576   5.139
 1234WAT     H1 4221   5.658   0.630   5.205
 1234WAT     H2 4222   5.663   0.493   5.140
 1235WAT      O 4223   5.336   0.855   5.884
 1235WAT     H1 4224   5.369   0.768   5.861
 1235WAT     H2 4225   5.379   0.875   5.968
 1236WAT      O 4226   5.796   0.688   5.650
 1236WAT     H1 4227   5.766   0.675   5.741
 1236WAT     H2 4228   5.785   0.602   5.610
 1237WAT      O 4229   5.368   0.193   5.794
 1237WAT     H1 4230   5.303   0.166   5.730
 1237WAT     H2 4231   5.452   0.182   5.749
 1238WAT      O 4232   5.921   0.935   6.050
 1238WAT     H1 4233   5.972   0.874   5.997
 1238WAT     H2 4234   5.986   0.985   6.099
 1239WAT      O 4235   5.389   1.045   5.692
 1239WAT     H1 4236   5.372   0.982   5.762
 1239WAT     H2 4237   5.302   1.066   5.657
 1240WAT      O 4238   5.549   0.915   5.437
 1240WAT     H1 4239   5.497   0.953   5.367
 1240WAT     H2 4240   5.542   0.977   5.509
 1241WAT      O 4241   5.809   1.110   5.324
 1241WAT     H1 4242   5.882   1.081   5.270
 1241WAT     H2 4243   5.835   1.086   5.413
 1242WAT      O 4244   5.725   0.721   5.325
 1242WAT     H1 4245   5.662   0.768   5.380
 1242WAT     H2 4246   5.737   0.637   5.368
 1243WAT      O 4247   6.284   0.304   4.128
 1243WAT     H1 4248   6.207   0.256   4.157
 1243WAT     H2 4249   6.349   0.236   4.111
 1244WAT      O 4250   5.686   0.335   4.216
 1244WAT     H1 4251   5.603   0.310   4.256
 1244WAT     H2 4252   5.747   0.342   4.289
 1245WAT      O 4253   5.684   0.739   4.235
 1245WAT     H1 4254   5.714   0.650   4.217
 1245WAT     H2 4255   5.758   0.794   4.213
 1246WAT      O 4256   6.309   0.973   3.968
 1246WAT     H1 4257   6.247   1.019   3.911
 1246WAT     H2 4258   6.394   0.989   3.928
 1247WAT      O 4259   6.228   0.572   4.129
 1247WAT     H1 4260   6.221   0.478   4.113
 1247WAT     H2 4261   6.304   0.581   4.186
 1248WAT      O 4262   6.395   0.462   3.707
 1248WAT     H1 4263   6.334   0.508   3.651
 1248WAT     H2 4264   6.447   0.531   3.749
 1249WAT      O 4265   5.882   0.414   4.375
 1249WAT     H1 4266   5.848   0.477   4.439
 1249WAT     H2 4267   5.899   0.467   4.297
 1250WAT      O 4268   5.803   0.611   4.557
 1250WAT     H1 4269   5.865   0.679   4.529
 1250WAT     H2 4270   5.717   0.652   4.548
 1251WAT      O 4271   5.332   0.530   3.445
 1251WAT     H1 4272   5.295   0.579   3.372
 1251WAT     H2 4273   5.358   0.597   3.508
 1252WAT      O 4274   6.332   0.177   3.664
 1252WAT     H1 4275   6.239   0.170   3.687
 1252WAT     H2 4276   6.347   0.271   3.653
 1253WAT      O 4277   5.893   0.229   3.942
 1253WAT     H1 4278   5.852   0.158   3.893
 1253WAT     H2 4279   5.901   0.195   4.031
 1254WAT      O 4280   5.939   0.598   4.159
 1254WAT     H1 4281   5.910   0.538   4.091
 1254WAT     H2 4282   6.034   0.602   4.148
 1255WAT      O 4283   5.849   0.572   4.824
 1255WAT     H1 4284   5.759   0.594   4.849
 1255WAT     H2 4285   5.851   0.584   4.729
 1256WAT      O 4286   6.553   0.257   3.415
 1256WAT     H1 4287   6.597   0.173   3.401
 1256WAT     H2 4288   6.624   0.320   3.424
 1257WAT      O 4289   5.731   0.259   4.681
 1257WAT     H1 4290   5.717   0.346   4.718
 1257WAT     H2 4291   5.643   0.225   4.667
 1258WAT      O 4292   6.364   0.751   3.812
 1258WAT     H1 4293   6.407   0.825   3.771
 1258WAT     H2 4294   6.357   0.775   3.904
 1259WAT      O 4295   5.911   0.853   4.902
 1259WAT     H1 4296   5.908   0.894   4.816
 1259WAT     H2 4297   5.895   0.760   4.886
 1260WAT      O 4298   5.326   0.436   4.273
 1260WAT     H1 4299   5.334   0.450   4.179
 1260WAT     H2 4300   5.388   0.365   4.292
 1261WAT      O 4301   5.451   0.606   3.914
 1261WAT     H1 4302   5.410   0.620   3.829
 1261WAT     H2 4303   5.540   0.578   3.894
 1262WAT      O 4304   6.433   1.021   4.605
 1262WAT     H1 4305   6.484   1.012   4.685
 1262WAT     H2 4306   6.348   1.056   4.634
 1263WAT      O 4307   5.878   1.028   3.725
 1263WAT     H1 4308   5.861   0.936   3.704
 1263WAT     H2 4309   5.793   1.063   3.749
 1264WAT      O 4310   6.557   0.963   3.811
 1264WAT     H1 4311   6.603   0.885   3.843
 1264WAT     H2 4312   6.591   1.034   3.866
 1265WAT      O 4313   5.332   0.540   4.527
 1265WAT     H1 4314   5.348   0.493   4.445
 1265WAT     H2 4315   5.379   0.489   4.594
 1266WAT      O 4316   5.489   0.478   4.743
 1266WAT     H1 4317   5.451   0.414   4.803
 1266WAT     H2 4318   5.521   0.548   4.800
 1267WAT      O 4319   5.736   0.487   3.583
 1267WAT     H1 4320   5.659   0.433   3.567
 1267WAT     H2 4321   5.809   0.435   3.549
 1268WAT      O 4322   6.350   0.394   4.751
 1268WAT     H1 4323   6.344   0.302   4.725
 1268WAT     H2 4324   6.287   0.404   4.822
 1269WAT      O 4325   5.741   0.454   3.946
 1269WAT     H1 4326   5.792   0.374   3.941
 1269WAT     H2 4327   5.695   0.448   4.031
 1270WAT      O 4328   6.229   0.581   3.474
 1270WAT     H1 4329   6.263   0.655   3.424
 1270WAT     H2 4330   6.146   0.612   3.510
 1271WAT      O 4331   6.343   0.676   4.726
 1271WAT     H1 4332   6.345   0.583   4.704
 1271WAT     H2 4333   6.273   0.685   4.790
 1272WAT      O 4334   6.518   0.513   4.010
 1272WAT     H1 4335   6.553   0.453   3.944
 1272WAT     H2 4336   6.429   0.480   4.027
 1273WAT      O 4337   6.126   0.589   3.751
 1273WAT     H1 4338   6.195   0.643   3.789
 1273WAT     H2 4339   6.047   0.643   3.754
 1274WAT      O 4340   6.056   0.289   3.712
 1274WAT     H1 4341   6.102   0.370   3.735
 1274WAT     H2 4342   6.021   0.257   3.795
 1275WAT      O 4343   6.287   0.840   4.435
 1275WAT     H1 4344   6.351   0.861   4.503
 1275WAT     H2 4345   6.323   0.764   4.390
 1276WAT      O 4346   6.414   0.641   4.307
 1276WAT     H1 4347   6.478   0.571   4.318
 1276WAT     H2 4348   6.467   0.719   4.289
 1277WAT      O 4349   6.591   0.721   4.627
 1277WAT     H1 4350   6.625   0.779   4.695
 1277WAT     H2 4351   6.499   0.708   4.650
 1278WAT      O 4352   5.377   1.072   3.357
 1278WAT     H1 4353   5.413   1.132   3.291
 1278WAT     H2 4354   5.363   1.126   3.434
 1279WAT      O 4355   5.375   0.898   4.804
 1279WAT     H1 4356   5.386   0.804   4.790
 1279WAT     H2 4357   5.310   0.925   4.739
 1280WAT      O 4358   6.174   0.726   4.944
 1280WAT     H1 4359   6.142   0.654   4.999
 1280WAT     H2 4360   6.107   0.793   4.951
 1281WAT      O 4361   5.978   0.810   3.438
 1281WAT     H1 4362   5.978   0.883   3.377
 1281WAT     H2 4363   5.886   0.785   3.448
 1282WAT      O 4364   5.539   0.332   3.513
 1282WAT     H1 4365   5.478   0.406   3.514
 1282WAT     H2 4366   5.586   0.341   3.430
 1283WAT      O 4367   6.277   0.816   3.305
 1283WAT     H1 4368   6.287   0.796   3.212
 1283WAT     H2 4369   6.187   0.791   3.325
 1284WAT      O 4370   6.141   1.068   3.774
 1284WAT     H1 4371   6.167   1.064   3.682
 1284WAT     H2 4372   6.046   1.056   3.773
 1285WAT      O 4373   5.740   0.328   3.288
 1285WAT     H1 4374   5.816   0.317   3.344
 1285WAT     H2 4375   5.747   0.259   3.223
 1286WAT      O 4376   5.689   1.087   4.066
 1286WAT     H1 4377   5.763   1.032   4.093
 1286WAT     H2 4378   5.728   1.173   4.052
 1287WAT      O 4379   5.378   0.693   3.654
 1287WAT     H1 4380   5.285   0.718   3.653
 1287WAT     H2 4381   5.424   0.776   3.642
 1288WAT      O 4382   5.590   1.005   4.985
 1288WAT     H1 4383   5.670   1.037   5.027
 1288WAT     H2 4384   5.538   0.969   5.057
 1289WAT      O 4385   6.000   1.004   3.249
 1289WAT     H1 4386   6.080   1.033   3.203
 1289WAT     H2 4387   5.948   0.961   3.181
 1290WAT      O 4388   6.473   0.616   4.980
 1290WAT     H1 4389   6.413   0.618   4.906
 1290WAT     H2 4390   6.443   0.543   5.034
 1291WAT      O 4391   5.362   0.254   4.880
 1291WAT     H1 4392   5.412   0.196   4.937
 1291WAT     H2 4393   5.288   0.282   4.933
 1292WAT      O 4394   6.052   0.526   3.235
 1292WAT     H1 4395   6.042   0.464   3.308
 1292WAT     H2 4396   6.035   0.474   3.157
 1293WAT      O 4397   6.067   0.394   4.833
 1293WAT     H1 4398   5.991   0.451   4.825
 1293WAT     H2 4399   6.085   0.365   4.744
 1294WAT      O 4400   6.376   0.432   3.296
 1294WAT     H1 4401   6.321   0.477   3.360
 1294WAT     H2 4402   6.438   0.382   3.348
 1295WAT      O 4403   5.943   0.328   3.485
 1295WAT     H1 4404   5.985   0.311   3.569
 1295WAT     H2 4405   5.955   0.247   3.436
 1296WAT      O 4406   6.194   0.230   3.210
 1296WAT     H1 4407   6.246   0.159   3.173
 1296WAT     H2 4408   6.259   0.294   3.240
 1297WAT      O 4409   6.125   0.368   4.539
 1297WAT     H1 4410   6.167   0.452   4.522
 1297WAT     H2 4411   6.033   0.382   4.516
 1298WAT      O 4412   5.910   0.998   4.651
 1298WAT     H1 4413   5.856   1.071   4.619
 1298WAT     H2 4414   5.935   0.951   4.572
 1299WAT      O 4415   6.196   1.122   4.677
 1299WAT     H1 4416   6.188   1.212   4.707
 1299WAT     H2 4417   6.105   1.090   4.674
 1300WAT      O 4418   6.251   1.039   3.439
 1300WAT     H1 4419   6.340   1.072   3.441
 1300WAT     H2 4420   6.254   0.966   3.376
 1301WAT      O 4421   5.615   0.576   3.262
 1301WAT     H1 4422   5.658   0.630   3.327
 1301WAT     H2 4423   5.663   0.493   3.263
 1302WAT      O 4424   5.336   0.855   4.007
 1302WAT     H1 4425   5.369   0.768   3.984
 1302WAT     H2 4426   5.379   0.875   4.090
 1303WAT      O 4427   5.796   0.688   3.773
 1303WAT     H1 4428   5.766   0.675   3.863
 1303WAT     H2 4429   5.785   0.602   3.732
 1304WAT      O 4430   5.385   0.941   4.281
 1304WAT     H1 4431   5.341   0.959   4.364
 1304WAT     H2 4432   5.442   1.017   4.267
 1305WAT      O 4433   5.368   0.193   3.917
 1305WAT     H1 4434   5.303   0.166   3.852
 1305WAT     H2 4435   5.452   0.182   3.872
 1306WAT      O 4436   5.613   0.682   4.887
 1306WAT     H1 4437   5.609   0.645   4.975
 1306WAT     H2 4438   5.627   0.776   4.901
 1307WAT      O 4439   5.983   0.838   4.447
 1307WAT     H1 4440   5.959   0.865   4.358
 1307WAT     H2 4441   6.077   0.855   4.453
 1308WAT      O 4442   5.597   0.977   4.599
 1308WAT     H1 4443   5.538   0.964   4.673
 1308WAT     H2 4444   5.597   0.893   4.552
 1309WAT      O 4445   5.560   0.714   4.494
 1309WAT     H1 4446   5.488   0.652   4.487
 1309WAT     H2 4447   5.566   0.753   4.407
 1310WAT      O 4448   5.921   0.935   4.173
 1310WAT     H1 4449   5.972   0.874   4.120
 1310WAT     H2 4450   5.986   0.985   4.222
 1311WAT      O 4451   6.195   1.024   4.255
 1311WAT     H1 4452   6.224   0.999   4.168
 1311WAT     H2 4453   6.246   0.969   4.314
 1312WAT      O 4454   5.389   1.045   3.815
 1312WAT     H1 4455   5.372   0.982   3.885
 1312WAT     H2 4456   5.302   1.066   3.780
 1313WAT      O 4457   5.549   0.915   3.559
 1313WAT     H1 4458   5.497   0.953   3.489
 1313WAT     H2 4459   5.542   0.977   3.632
 1314WAT      O 4460   6.202   1.116   4.992
 1314WAT     H1 4461   6.294   1.093   4.996
 1314WAT     H2 4462   6.200   1.199   4.944
 1315WAT      O 4463   5.809   1.110   3.447
 1315WAT     H1 4464   5.882   1.081   3.392
 1315WAT     H2 4465   5.835   1.086   3.536
 1316WAT      O 4466   5.725   0.721   3.447
 1316WAT     H1 4467   5.662   0.768   3.502
 1316WAT     H2 4468   5.737   0.637   3.491
 1317WAT      O 4469   6.284   0.304   2.251
 1317WAT     H1 4470   6.207   0.256   2.280
 1317WAT     H2 4471   6.349   0.236   2.233
 1318WAT      O 4472   5.686   0.335   2.338
 1318WAT     H1 4473   5.603   0.310   2.378
 1318WAT     H2 4474   5.747   0.342   2.412
 1319WAT      O 4475   5.684   0.739   2.358
 1319WAT     H1 4476   5.714   0.650   2.340
 1319WAT     H2 4477   5.758   0.794   2.335
 1320WAT      O 4478   6.309   0.973   2.091
 1320WAT     H1 4479   6.247   1.019   2.034
 1320WAT     H2 4480   6.394   0.989   2.050
 1321WAT      O 4481   6.228   0.572   2.251
 1321WAT     H1 4482   6.221   0.478   2.235
 1321WAT     H2 4483   6.304   0.581   2.308
 1322WAT      O 4484   6.395   0.462   1.830
 1322WAT     H1 4485   6.334   0.508   1.774
 1322WAT     H2 4486   6.447   0.531   1.872
 1323WAT      O 4487   5.882   0.414   2.498
 1323WAT     H1 4488   5.848   0.477   2.562
 1323WAT     H2 4489   5.899   0.467   2.420
 1324WAT      O 4490   5.803   0.611   2.679
 1324WAT     H1 4491   5.865   0.679   2.651
 1324WAT     H2 4492   5.717   0.652   2.670
 1325WAT      O 4493   5.332   0.530   1.567
 1325WAT     H1 4494   5.295   0.579   1.494
 1325WAT     H2 4495   5.358   0.597   1.630
 1326WAT      O 4496   6.332   0.177   1.787
 1326WAT     H1 4497   6.239   0.170   1.810
 1326WAT     H2 4498   6.347   0.271   1.775
 1327WAT      O 4499   5.893   0.229   2.065
 1327WAT     H1 4500   5.852   0.158   2.015
 1327WAT     H2 4501   5.901   0.195   2.154
 1328WAT      O 4502   5.939   0.598   2.281
 1328WAT     H1 4503   5.910   0.538   2.213
 1328WAT     H2 4504   6.034   0.602   2.270
 1329WAT      O 4505   5.849   0.572   2.946
 1329WAT     H1 4506   5.759   0.594   2.971
 1329WAT     H2 4507   5.851   0.584   2.852
 1330WAT      O 4508   6.553   0.257   1.538
 1330WAT     H1 4509   6.597   0.173   1.523
 1330WAT     H2 4510   6.624   0.320   1.546
 1331WAT      O 4511   5.731   0.259   2.804
 1331WAT     H1 4512   5.717   0.346   2.841
 1331WAT     H2 4513   5.643   0.225   2.789
 1332WAT      O 4514   6.364   0.751   1.935
 1332WAT     H1 4515   6.407   0.825   1.893
 1332WAT     H2 4516   6.357   0.775   2.027
 1333WAT      O 4517   5.911   0.853   3.025
 1333WAT     H1 4518   5.908   0.894   2.938
 1333WAT     H2 4519   5.895   0.760   3.009
 1334WAT      O 4520   5.326   0.436   2.396
 1334WAT     H1 4521   5.334   0.450   2.301
 1334WAT     H2 4522   5.388   0.365   2.415
 1335WAT      O 4523   5.451   0.606   2.037
 1335WAT     H1 4524   5.410   0.620   1.951
 1335WAT     H2 4525   5.540   0.578   2.016
 1336WAT      O 4526   6.433   1.021   2.727
 1336WAT     H1 4527   6.484   1.012   2.808
 1336WAT     H2 4528   6.348   1.056   2.757
 1337WAT      O 4529   5.878   1.028   1.848
 1337WAT     H1 4530   5.861   0.936   1.827
 1337WAT     H2 4531   5.793   1.063   1.872
 1338WAT      O 4532   6.557   0.963   1.934
 1338WAT     H1 4533   6.603   0.885   1.965
 1338WAT     H2 4534   6.591   1.034   1.988
 1339WAT      O 4535   5.332   0.540   2.650
 1339WAT     H1 4536   5.348   0.493   2.568
 1339WAT     H2 4537   5.379   0.489   2.716
 1340WAT      O 4538   5.489   0.478   2.866
 1340WAT     H1 4539   5.451   0.414   2.925
 1340WAT     H2 4540   5.521   0.548   2.923
 1341WAT      O 4541   5.736   0.487   1.705
 1341WAT     H1 4542   5.659   0.433   1.689
 1341WAT     H2 4543   5.809   0.435   1.671
 1342WAT      O 4544   6.350   0.394   2.873
 1342WAT     H1 4545   6.344   0.302   2.848
 1342WAT     H2 4546   6.287   0.404   2.945
 1343WAT      O 4547   5.741   0.454   2.069
 1343WAT     H1 4548   5.792   0.374   2.064
 1343WAT     H2 4549   5.695   0.448   2.153
 1344WAT      O 4550   6.229   0.581   1.596
 1344WAT     H1 4551   6.263   0.655   1.547
 1344WAT     H2 4552   6.146   0.612   1.633
 1345WAT      O 4553   6.343   0.676   2.848
 1345WAT     H1 4554   6.345   0.583   2.826
 1345WAT     H2 4555   6.273   0.685   2.912
 1346WAT      O 4556   6.518   0.513   2.133
 1346WAT     H1 4557   6.553   0.453   2.067
 1346WAT     H2 4558   6.429   0.480   2.150
 1347WAT      O 4559   6.126   0.589   1.873
 1347WAT     H1 4560   6.195   0.643   1.912
 1347WAT     H2 4561   6.047   0.643   1.877
 1348WAT      O 4562   6.056   0.289   1.835
 1348WAT     H1 4563   6.102   0.370   1.857
 1348WAT     H2 4564   6.021   0.257   1.918
 1349WAT      O 4565   6.287   0.840   2.558
 1349WAT     H1 4566   6.351   0.861   2.625
 1349WAT     H2 4567   6.323   0.764   2.512
 1350WAT      O 4568   6.414   0.641   2.429
 1350WAT     H1 4569   6.478   0.571   2.441
 1350WAT     H2 4570   6.467   0.719   2.411
 1351WAT      O 4571   6.591   0.721   2.750
 1351WAT     H1 4572   6.625   0.779   2.818
 1351WAT     H2 4573   6.499   0.708   2.773
 1352WAT      O 4574   5.377   1.072   1.479
 1352WAT     H1 4575   5.413   1.132   1.414
 1352WAT     H2 4576   5.363   1.126   1.557
 1353WAT      O 4577   5.375   0.898   2.927
 1353WAT     H1 4578   5.386   0.804   2.913
 1353WAT     H2 4579   5.310   0.925   2.862
 1354WAT      O 4580   6.174   0.726   3.067
 1354WAT     H1 4581   6.142   0.654   3.121
 1354WAT     H2 4582   6.107   0.793   3.074
 1355WAT      O 4583   5.978   0.810   1.561
 1355WAT     H1 4584   5.978   0.883   1.499
 1355WAT     H2 4585   5.886   0.785   1.570
 1356WAT      O 4586   5.539   0.332   1.635
 1356WAT     H1 4587   5.478   0.406   1.636
 1356WAT     H2 4588   5.586   0.341   1.553
 1357WAT      O 4589   6.277   0.816   1.427
 1357WAT     H1 4590   6.287   0.796   1.334
 1357WAT     H2 4591   6.187   0.791   1.448
 1358WAT      O 4592   6.141   1.068   1.897
 1358WAT     H1 4593   6.167   1.064   1.804
 1358WAT     H2 4594   6.046   1.056   1.896
 1359WAT      O 4595   5.740   0.328   1.410
 1359WAT     H1 4596   5.816   0.317   1.467
 1359WAT     H2 4597   5.747   0.259   1.345
 1360WAT      O 4598   5.689   1.087   2.189
 1360WAT     H1 4599   5.763   1.032   2.216
 1360WAT     H2 4600   5.728   1.173   2.175
 1361WAT      O 4601   5.378   0.693   1.776
 1361WAT     H1 4602   5.285   0.718   1.775
 1361WAT     H2 4603   5.424   0.776   1.764
 1362WAT      O 4604   5.590   1.005   3.108
 1362WAT     H1 4605   5.670   1.037   3.149
 1362WAT     H2 4606   5.538   0.969   3.180
 1363WAT      O 4607   6.000   1.004   1.371
 1363WAT     H1 4608   6.080   1.033   1.326
 1363WAT     H2 4609   5.948   0.961   1.303
 1364WAT      O 4610   6.473   0.616   3.103
 1364WAT     H1 4611   6.413   0.618   3.029
 1364WAT     H2 4612   6.443   0.543   3.156
 1365WAT      O 4613   5.362   0.254   3.002
 1365WAT     H1 4614   5.412   0.196   3.059
 1365WAT     H2 4615   5.288   0.282   3.056
 1366WAT      O 4616   6.052   0.526   1.358
 1366WAT     H1 4617   6.042   0.464   1.430
 1366WAT     H2 4618   6.035   0.474   1.279
 1367WAT      O 4619   6.067   0.394   2.956
 1367WAT     H1 4620   5.991   0.451   2.947
 1367WAT     H2 4621   6.085   0.365   2.866
 1368WAT      O 4622   6.376   0.432   1.418
 1368WAT     H1 4623   6.321   0.477   1.483
 1368WAT     H2 4624   6.438   0.382   1.470
 1369WAT      O 4625   5.943   0.328   1.608
 1369WAT     H1 4626   5.985   0.311   1.692
 1369WAT     H2 4627   5.955   0.247   1.558
 1370WAT      O 4628   6.194   0.230   1.333
 1370WAT     H1 4629   6.246   0.159   1.296
 1370WAT     H2 4630   6.259   0.294   1.363
 1371WAT      O 4631   6.125   0.368   2.662
 1371WAT     H1 4632   6.167   0.452   2.645
 1371WAT     H2 4633   6.033   0.382   2.639
 1372WAT      O 4634   5.910   0.998   2.773
 1372WAT     H1 4635   5.856   1.071   2.741
 1372WAT     H2 4636   5.935   0.951   2.694
 1373WAT      O 4637   6.196   1.122   2.799
 1373WAT     H1 4638   6.188   1.212   2.830
 1373WAT     H2 4639   6.105   1.090   2.796
 1374WAT      O 4640   6.251   1.039   1.562
 1374WAT     H1 4641   6.340   1.072   1.564
 1374WAT     H2 4642   6.254   0.966   1.499
 1375WAT      O 4643   5.615   0.576   1.384
 1375WAT     H1 4644   5.658   0.630   1.450
 1375WAT     H2 4645   5.663   0.493   1.385
 1376WAT      O 4646   5.336   0.855   2.130
 1376WAT     H1 4647   5.369   0.768   2.106
 1376WAT     H2 4648   5.379   0.875   2.213
 1377WAT      O 4649   5.796   0.688   1.896
 1377WAT     H1 4650   5.766   0.675   1.986
 1377WAT     H2 4651   5.785   0.602   1.855
 1378WAT      O 4652   5.385   0.941   2.403
 1378WAT     H1 4653   5.341   0.959   2.487
 1378WAT     H2 4654   5.442   1.017   2.389
 1379WAT      O 4655   5.368   0.193   2.039
 1379WAT     H1 4656   5.303   0.166   1.975
 1379WAT     H2 4657   5.452   0.182   1.994
 1380WAT      O 4658   5.613   0.682   3.010
 1380WAT     H1 4659   5.609   0.645   3.098
 1380WAT     H2 4660   5.627   0.776   3.024
 1381WAT      O 4661   5.983   0.838   2.570
 1381WAT     H1 4662   5.959   0.865   2.481
 1381WAT     H2 4663   6.077   0.855   2.575
 1382WAT      O 4664   5.597   0.977   2.722
 1382WAT     H1 4665   5.538   0.964   2.795
 1382WAT     H2 4666   5.597   0.893   2.675
 1383WAT      O 4667   5.560   0.714   2.617
 1383WAT     H1 4668   5.488   0.652   2.610
 1383WAT     H2 4669   5.566   0.753   2.530
 1384WAT      O 4670   5.921   0.935   2.295
 1384WAT     H1 4671   5.972   0.874   2.243
 1384WAT     H2 4672   5.986   0.985   2.344
 1385WAT      O 4673   6.195   1.024   2.378
 1385WAT     H1 4674   6.224   0.999   2.290
 1385WAT     H2 4675   6.246   0.969   2.437
 1386WAT      O 4676   5.389   1.045   1.938
 1386WAT     H1 4677   5.372   0.982   2.007
 1386WAT     H2 4678   5.302   1.066   1.902
 1387WAT      O 4679   5.549   0.915   1.682
 1387WAT     H1 4680   5.497   0.953   1.612
 1387WAT     H2 4681   5.542   0.977   1.754
 1388WAT      O 4682   6.202   1.116   3.114
 1388WAT     H1 4683   6.294   1.093   3.119
 1388WAT     H2 4684   6.200   1.199   3.066
 1389WAT      O 4685   5.809   1.110   1.570
 1389WAT     H1 4686   5.882   1.081   1.515
 1389WAT     H2 4687   5.835   1.086   1.659
 1390WAT      O 4688   5.725   0.721   1.570
 1390WAT     H1 4689   5.662   0.768   1.625
 1390WAT     H2 4690   5.737   0.637   1.613
 1391WAT      O 4691   6.284   0.304   0.373
 1391WAT     H1 4692   6.207   0.256   0.402
 1391WAT     H2 4693   6.349   0.236   0.356
 1392WAT      O 4694   5.686   0.335   0.461
 1392WAT     H1 4695   5.603   0.310   0.501
 1392WAT     H2 4696   5.747   0.342   0.534
 1393WAT      O 4697   5.684   0.739   0.480
 1393WAT     H1 4698   5.714   0.650   0.463
 1393WAT     H2 4699   5.758   0.794   0.458
 1394WAT      O 4700   6.228   0.572   0.374
 1394WAT     H1 4701   6.221   0.478   0.358
 1394WAT     H2 4702   6.304   0.581   0.431
 1395WAT      O 4703   5.882   0.414   0.620
 1395WAT     H1 4704   5.848   0.477   0.685
 1395WAT     H2 4705   5.899   0.467   0.542
 1396WAT      O 4706   5.803   0.611   0.802
 1396WAT     H1 4707   5.865   0.679   0.774
 1396WAT     H2 4708   5.717   0.652   0.793
 1397WAT      O 4709   5.939   0.598   0.404
 1397WAT     H1 4710   5.910   0.538   0.336
 1397WAT     H2 4711   6.034   0.602   0.393
 1398WAT      O 4712   5.849   0.572   1.069
 1398WAT     H1 4713   5.759   0.594   1.094
 1398WAT     H2 4714   5.851   0.584   0.974
 1399WAT      O 4715   5.731   0.259   0.927
 1399WAT     H1 4716   5.717   0.346   0.963
 1399WAT     H2 4717   5.643   0.225   0.912
 1400WAT      O 4718   5.911   0.853   1.147
 1400WAT     H1 4719   5.908   0.894   1.061
 1400WAT     H2 4720   5.895   0.760   1.131
 1401WAT      O 4721   5.326   0.436   0.518
 1401WAT     H1 4722   5.334   0.450   0.424
 1401WAT     H2 4723   5.388   0.365   0.538
 1402WAT      O 4724   6.433   1.021   0.850
 1402WAT     H1 4725   6.484   1.012   0.930
 1402WAT     H2 4726   6.348   1.056   0.879
 1403WAT      O 4727   5.332   0.540   0.772
 1403WAT     H1 4728   5.348   0.493   0.690
 1403WAT     H2 4729   5.379   0.489   0.839
 1404WAT      O 4730   5.489   0.478   0.988
 1404WAT     H1 4731   5.451   0.414   1.048
 1404WAT     H2 4732   5.521   0.548   1.045
 1405WAT      O 4733   6.350   0.394   0.996
 1405WAT     H1 4734   6.344   0.302   0.970
 1405WAT     H2 4735   6.287   0.404   1.067
 1406WAT      O 4736   5.741   0.454   0.192
 1406WAT     H1 4737   5.792   0.374   0.186
 1406WAT     H2 4738   5.695   0.448   0.276
 1407WAT      O 4739   6.343   0.676   0.971
 1407WAT     H1 4740   6.345   0.583   0.949
 1407WAT     H2 4741   6.273   0.685   1.035
 1408WAT      O 4742   6.518   0.513   0.255
 1408WAT     H1 4743   6.553   0.453   0.189
 1408WAT     H2 4744   6.429   0.480   0.272
 1409WAT      O 4745   6.287   0.840   0.680
 1409WAT     H1 4746   6.351   0.861   0.748
 1409WAT     H2 4747   6.323   0.764   0.635
 1410WAT      O 4748   6.414   0.641   0.552
 1410WAT     H1 4749   6.478   0.571   0.563
 1410WAT     H2 4750   6.467   0.719   0.534
 1411WAT      O 4751   6.591   0.721   0.872
 1411WAT     H1 4752   6.625   0.779   0.940
 1411WAT     H2 4753   6.499   0.708   0.895
 1412WAT      O 4754   5.375   0.898   1.049
 1412WAT     H1 4755   5.386   0.804   1.035
 1412WAT     H2 4756   5.310   0.925   0.984
 1413WAT      O 4757   6.174   0.726   1.189
 1413WAT     H1 4758   6.142   0.654   1.244
 1413WAT     H2 4759   6.107   0.793   1.197
 1414WAT      O 4760   5.689   1.087   0.312
 1414WAT     H1 4761   5.763   1.032   0.339
 1414WAT     H2 4762   5.728   1.173   0.298
 1415WAT      O 4763   5.590   1.005   1.230
 1415WAT     H1 4764   5.670   1.037   1.272
 1415WAT     H2 4765   5.538   0.969   1.303
 1416WAT      O 4766   6.473   0.616   1.225
 1416WAT     H1 4767   6.413   0.618   1.151
 1416WAT     H2 4768   6.443   0.543   1.279
 1417WAT      O 4769   5.362   0.254   1.125
 1417WAT     H1 4770   5.412   0.196   1.182
 1417WAT     H2 4771   5.288   0.282   1.179
 1418WAT      O 4772   6.067   0.394   1.078
 1418WAT     H1 4773   5.991   0.451   1.070
 1418WAT     H2 4774   6.085   0.365   0.989
 1419WAT      O 4775   6.125   0.368   0.784
 1419WAT     H1 4776   6.167   0.452   0.767
 1419WAT     H2 4777   6.033   0.382   0.761
 1420WAT      O 4778   5.910   0.998   0.896
 1420WAT     H1 4779   5.856   1.071   0.864
 1420WAT     H2 4780   5.935   0.951   0.817
 1421WAT      O 4781   6.196   1.122   0.922
 1421WAT     H1 4782   6.188   1.212   0.953
 1421WAT     H2 4783   6.105   1.090   0.919
 1422WAT      O 4784   5.336   0.855   0.252
 1422WAT     H1 4785   5.369   0.768   0.229
 1422WAT     H2 4786   5.379   0.875   0.335
 1423WAT      O 4787   5.385   0.941   0.526
 1423WAT     H1 4788   5.341   0.959   0.609
 1423WAT     H2 4789   5.442   1.017   0.512
 1424WAT      O 4790   5.613   0.682   1.132
 1424WAT     H1 4791   5.609   0.645   1.220
 1424WAT     H2 4792   5.627   0.776   1.146
 1425WAT      O 4793   5.983   0.838   0.692
 1425WAT     H1 4794   5.959   0.865   0.603
 1425WAT     H2 4795   6.077   0.855   0.698
 1426WAT      O 4796   5.597   0.977   0.844
 1426WAT     H1 4797   5.538   0.964   0.918
 1426WAT     H2 4798   5.597   0.893   0.797
 1427WAT      O 4799   5.560   0.714   0.739
 1427WAT     H1 4800   5.488   0.652   0.732
 1427WAT     H2 4801   5.566   0.753   0.652
 1428WAT      O 4802   5.921   0.935   0.418
 1428WAT     H1 4803   5.972   0.874   0.365
 1428WAT     H2 4804   5.986   0.985   0.467
 1429WAT      O 4805   6.195   1.024   0.500
 1429WAT     H1 4806   6.224   0.999   0.413
 1429WAT     H2 4807   6.246   0.969   0.559
 1430WAT      O 4808   6.202   1.116   1.237
 1430WAT     H1 4809   6.294   1.093   1.241
 1430WAT     H2 4810   6.200   1.199   1.189
 1431WAT      O 4811   4.593   5.759   5.817
 1431WAT     H1 4812   4.585   5.667   5.790
 1431WAT     H2 4813   4.552   5.808   5.747
 1432WAT      O 4814   3.649   5.464   5.472
 1432WAT     H1 4815   3.560   5.498   5.461
 1432WAT     H2 4816   3.678   5.444   5.382
 1433WAT      O 4817   3.446   5.724   6.060
 1433WAT     H1 4818   3.503   5.647   6.060
 1433WAT     H2 4819   3.446   5.754   5.969
 1434WAT      O 4820   4.454   5.485   6.029
 1434WAT     H1 4821   4.491   5.397   6.018
 1434WAT     H2 4822   4.444   5.518   5.940
 1435WAT      O 4823   3.867   5.322   5.575
 1435WAT     H1 4824   3.878   5.412   5.606
 1435WAT     H2 4825   3.776   5.317   5.546
 1436WAT      O 4826   4.832   5.234   5.722
 1436WAT     H1 4827   4.914   5.185   5.726
 1436WAT     H2 4828   4.835   5.293   5.797
 1437WAT      O 4829   4.051   5.619   6.008
 1437WAT     H1 4830   4.102   5.669   6.072
 1437WAT     H2 4831   4.104   5.541   5.991
 1438WAT      O 4832   4.856   5.428   5.999
 1438WAT     H1 4833   4.785   5.457   6.057
 1438WAT     H2 4834   4.892   5.509   5.963
 1439WAT      O 4835   5.163   5.373   6.038
 1439WAT     H1 4836   5.068   5.376   6.052
 1439WAT     H2 4837   5.195   5.454   6.077
 1440WAT      O 4838   4.216   5.003   5.868
 1440WAT     H1 4839   4.246   4.947   5.796
 1440WAT     H2 4840   4.123   5.016   5.850
 1441WAT      O 4841   4.453   5.436   5.241
 1441WAT     H1 4842   4.359   5.452   5.250
 1441WAT     H2 4843   4.485   5.508   5.187
 1442WAT      O 4844   4.015   5.862   5.820
 1442WAT     H1 4845   3.975   5.791   5.770
 1442WAT     H2 4846   4.024   5.827   5.909
 1443WAT      O 4847   5.033   5.015   5.124
 1443WAT     H1 4848   5.002   5.024   5.214
 1443WAT     H2 4849   5.109   5.072   5.119
 1444WAT      O 4850   3.685   5.751   5.570
 1444WAT     H1 4851   3.673   5.824   5.509
 1444WAT     H2 4852   3.654   5.674   5.522
 1445WAT      O 4853   3.932   5.086   5.908
 1445WAT     H1 4854   3.887   5.164   5.875
 1445WAT     H2 4855   3.988   5.118   5.979
 1446WAT      O 4856   4.243   5.048   5.396
 1446WAT     H1 4857   4.181   5.047   5.469
 1446WAT     H2 4858   4.235   4.961   5.357
 1447WAT      O 4859   4.136   5.140   6.094
 1447WAT     H1 4860   4.165   5.231   6.086
 1447WAT     H2 4861   4.190   5.091   6.033
 1448WAT      O 4862   3.911   5.598   5.681
 1448WAT     H1 4863   3.888   5.576   5.771
 1448WAT     H2 4864   3.833   5.641   5.646
 1449WAT      O 4865   4.634   5.599   5.541
 1449WAT     H1 4866   4.574   5.671   5.522
 1449WAT     H2 4867   4.689   5.592   5.463
 1450WAT      O 4868   4.495   5.462   5.744
 1450WAT     H1 4869   4.534   5.494   5.663
 1450WAT     H2 4870   4.531   5.374   5.755
 1451WAT      O 4871   3.398   5.121   5.966
 1451WAT     H1 4872   3.369   5.178   6.037
 1451WAT     H2 4873   3.473   5.073   6.002
 1452WAT      O 4874   3.417   5.515   5.087
 1452WAT     H1 4875   3.409   5.610   5.101
 1452WAT     H2 4876   3.382   5.501   4.999
 1453WAT      O 4877   4.197   5.389   5.994
 1453WAT     H1 4878   4.197   5.345   5.909
 1453WAT     H2 4879   4.286   5.421   6.005
 1454WAT      O 4880   3.782   5.377   5.890
 1454WAT     H1 4881   3.748   5.425   5.966
 1454WAT     H2 4882   3.706   5.332   5.854
 1455WAT      O 4883   4.203   5.489   5.293
 1455WAT     H1 4884   4.215   5.485   5.388
 1455WAT     H2 4885   4.165   5.575   5.277
 1456WAT      O 4886   4.104   5.720   5.233
 1456WAT     H1 4887   4.047   5.675   5.170
 1456WAT     H2 4888   4.175   5.756   5.179
 1457WAT      O 4889   3.513   5.269   5.782
 1457WAT     H1 4890   3.485   5.233   5.865
 1457WAT     H2 4891   3.507   5.196   5.720
 1458WAT      O 4892   4.481   5.159   5.454
 1458WAT     H1 4893   4.399   5.109   5.446
 1458WAT     H2 4894   4.461   5.243   5.412
 1459WAT      O 4895   4.752   5.596   5.283
 1459WAT     H1 4896   4.841   5.627   5.266
 1459WAT     H2 4897   4.749   5.508   5.244
 1460WAT      O 4898   4.979   5.727   5.230
 1460WAT     H1 4899   4.971   5.770   5.145
 1460WAT     H2 4900   5.051   5.773   5.273
 1461WAT      O 4901   3.463   5.783   5.177
 1461WAT     H1 4902   3.550   5.811   5.206
 1461WAT     H2 4903   3.414   5.864   5.166
 1462WAT      O 4904   3.769   4.956   5.637
 1462WAT     H1 4905   3.756   4.955   5.732
 1462WAT     H2 4906   3.687   4.990   5.602
 1463WAT      O 4907   4.955   5.277   5.439
 1463WAT     H1 4908   4.892   5.287   5.367
 1463WAT     H2 4909   4.906   5.299   5.518
 1464WAT      O 4910   4.152   5.505   5.580
 1464WAT     H1 4911   4.081   5.551   5.624
 1464WAT     H2 4912   4.180   5.439   5.644
 1465WAT      O 4913   4.555   5.177   5.724
 1465WAT     H1 4914   4.543   5.179   5.629
 1465WAT     H2 4915   4.650   5.182   5.736
 1466WAT      O 4916   3.972   5.335   5.318
 1466WAT     H1 4917   4.057   5.379   5.311
 1466WAT     H2 4918   3.936   5.367   5.401
 1467WAT      O 4919   4.864   5.792   5.809
 1467WAT     H1 4920   4.770   5.794   5.827
 1467WAT     H2 4921   4.896   5.714   5.854
 1468WAT      O 4922   3.732   5.704   5.234
 1468WAT     H1 4923   3.740   5.609   5.245
 1468WAT     H2 4924   3.821   5.737   5.244
 1469WAT      O 4925   3.955   5.568   5.057
 1469WAT     H1 4926   3.935   5.481   5.093
 1469WAT     H2 4927   3.938   5.559   4.963
 1470WAT      O 4928   4.703   5.049   5.310
 1470WAT     H1 4929   4.731   4.964   5.346
 1470WAT     H2 4930   4.625   5.072   5.361
 1471WAT      O 4931   3.835   5.278   5.056
 1471WAT     H1 4932   3.865   5.278   4.965
 1471WAT     H2 4933   3.909   5.243   5.106
 1472WAT      O 4934   4.157   5.172   5.155
 1472WAT     H1 4935   4.122   5.104   5.097
 1472WAT     H2 4936   4.177   5.126   5.236
 1473WAT      O 4937   3.491   5.825   5.794
 1473WAT     H1 4938   3.425   5.798   5.730
 1473WAT     H2 4939   3.574   5.814   5.749
 1474WAT      O 4940   4.786   5.304   5.216
 1474WAT     H1 4941   4.827   5.286   5.132
 1474WAT     H2 4942   4.755   5.219   5.247
 1475WAT      O 4943   5.135   5.796   5.586
 1475WAT     H1 4944   5.098   5.719   5.543
 1475WAT     H2 4945   5.063   5.834   5.635
 1476WAT      O 4946   3.412   5.546   5.388
 1476WAT     H1 4947   3.322   5.572   5.371
 1476WAT     H2 4948   3.460   5.573   5.310
 1477WAT      O 4949   5.063   5.618   5.916
 1477WAT     H1 4950   5.115   5.569   5.853
 1477WAT     H2 4951   5.122   5.632   5.991
 1478WAT      O 4952   3.666   5.452   5.179
 1478WAT     H1 4953   3.737   5.409   5.131
 1478WAT     H2 4954   3.595   5.458   5.116
 1479WAT      O 4955   3.631   5.057   5.083
 1479WAT     H1 4956   3.703   5.111   5.115
 1479WAT     H2 4957   3.658   5.030   4.996
 1480WAT      O 4958   5.012   5.544   5.510
 1480WAT     H1 4959   5.062   5.521   5.589
 1480WAT     H2 4960   4.992   5.460   5.468
 1481WAT      O 4961   5.155   5.407   5.763
 1481WAT     H1 4962   5.144   5.392   5.857
 1481WAT     H2 4963   5.231   5.355   5.739
 1482WAT      O 4964   5.244   5.191   5.088
 1482WAT     H1 4965   5.336   5.177   5.067
 1482WAT     H2 4966   5.242   5.198   5.183
 1483WAT      O 4967   5.251   5.268   5.350
 1483WAT     H1 4968   5.172   5.261   5.403
 1483WAT     H2 4969   5.272   5.361   5.349
 1484WAT      O 4970   4.894   5.101   5.995
 1484WAT     H1 4971   4.938   5.095   5.910
 1484WAT     H2 4972   4.867   5.192   6.002
 1485WAT      O 4973   5.081   5.064   5.796
 1485WAT     H1 4974   5.075   4.969   5.781
 1485WAT     H2 4975   5.159   5.075   5.851
 1486WAT      O 4976   3.574   5.061   5.443
 1486WAT     H1 4977   3.649   5.072   5.385
 1486WAT     H2 4978   3.527   5.145   5.438
 1487WAT      O 4979   4.228   5.272   5.742
 1487WAT     H1 4980   4.146   5.235   5.708
 1487WAT     H2 4981   4.278   5.197   5.772
 1488WAT      O 4982   4.678   4.939   5.866
 1488WAT     H1 4983   4.738   4.996   5.913
 1488WAT     H2 4984   4.604   4.995   5.843
 1489WAT      O 4985   4.992   4.979   5.393
 1489WAT     H1 4986   5.012   5.069   5.420
 1489WAT     H2 4987   4.914   4.956   5.442
 1490WAT      O 4988   3.811   5.114   5.297
 1490WAT     H1 4989   3.864   5.035   5.284
 1490WAT     H2 4990   3.874   5.181   5.320
 1491WAT      O 4991   4.030   5.087   5.602
 1491WAT     H1 4992   3.967   5.017   5.619
 1491WAT     H2 4993   3.976   5.163   5.581
 1492WAT      O 4994   4.593   5.759   3.940
 1492WAT     H1 4995   4.585   5.667   3.913
 1492WAT     H2 4996   4.552   5.808   3.869
 1493WAT      O 4997   3.649   5.464   3.594
 1493WAT     H1 4998   3.560   5.498   3.584
 1493WAT     H2 4999   3.678   5.444   3.505
 1494WAT      O 5000   3.446   5.724   4.183
 1494WAT     H1 5001   3.503   5.647   4.183
 1494WAT     H2 5002   3.446   5.754   4.092
 1495WAT      O 5003   3.570   5.264   4.361
 1495WAT     H1 5004   3.552   5.175   4.389
 1495WAT     H2 5005   3.530   5.319   4.429
 1496WAT      O 5006   4.454   5.485   4.151
 1496WAT     H1 5007   4.491   5.397   4.140
 1496WAT     H2 5008   4.444   5.518   4.062
 1497WAT      O 5009   3.867   5.322   3.698
 1497WAT     H1 5010   3.878   5.412   3.728
 1497WAT     H2 5011   3.776   5.317   3.669
 1498WAT      O 5012   4.832   5.234   3.845
 1498WAT     H1 5013   4.914   5.185   3.849
 1498WAT     H2 5014   4.835   5.293   3.920
 1499WAT      O 5015   3.632   5.514   4.222
 1499WAT     H1 5016   3.700   5.540   4.284
 1499WAT     H2 5017   3.600   5.430   4.255
 1500WAT      O 5018   4.051   5.619   4.131
 1500WAT     H1 5019   4.102   5.669   4.195
 1500WAT     H2 5020   4.104   5.541   4.113
 1501WAT      O 5021   5.261   5.436   4.501
 1501WAT     H1 5022   5.191   5.475   4.449
 1501WAT     H2 5023   5.288   5.505   4.561
 1502WAT      O 5024   3.879   5.083   4.557
 1502WAT     H1 5025   3.879   5.134   4.477
 1502WAT     H2 5026   3.796   5.035   4.555
 1503WAT      O 5027   4.856   5.428   4.122
 1503WAT     H1 5028   4.785   5.457   4.180
 1503WAT     H2 5029   4.892   5.509   4.086
 1504WAT      O 5030   3.847   5.254   4.358
 1504WAT     H1 5031   3.882   5.338   4.329
 1504WAT     H2 5032   3.754   5.269   4.370
 1505WAT      O 5033   5.163   5.373   4.161
 1505WAT     H1 5034   5.068   5.376   4.174
 1505WAT     H2 5035   5.195   5.454   4.200
 1506WAT      O 5036   4.216   5.003   3.991
 1506WAT     H1 5037   4.246   4.947   3.919
 1506WAT     H2 5038   4.123   5.016   3.972
 1507WAT      O 5039   4.453   5.436   3.364
 1507WAT     H1 5040   4.359   5.452   3.372
 1507WAT     H2 5041   4.485   5.508   3.309
 1508WAT      O 5042   4.802   5.583   4.456
 1508WAT     H1 5043   4.760   5.666   4.482
 1508WAT     H2 5044   4.729   5.525   4.437
 1509WAT      O 5045   4.015   5.862   3.942
 1509WAT     H1 5046   3.975   5.791   3.893
 1509WAT     H2 5047   4.024   5.827   4.031
 1510WAT      O 5048   3.886   5.539   4.320
 1510WAT     H1 5049   3.942   5.550   4.243
 1510WAT     H2 5050   3.938   5.577   4.392
 1511WAT      O 5051   5.033   5.015   3.247
 1511WAT     H1 5052   5.002   5.024   3.337
 1511WAT     H2 5053   5.109   5.072   3.242
 1512WAT      O 5054   3.685   5.751   3.692
 1512WAT     H1 5055   3.673   5.824   3.631
 1512WAT     H2 5056   3.654   5.674   3.645
 1513WAT      O 5057   5.154   5.488   4.844
 1513WAT     H1 5058   5.093   5.539   4.792
 1513WAT     H2 5059   5.122   5.398   4.839
 1514WAT      O 5060   3.932   5.086   4.031
 1514WAT     H1 5061   3.887   5.164   3.998
 1514WAT     H2 5062   3.988   5.118   4.101
 1515WAT      O 5063   4.360   5.372   4.591
 1515WAT     H1 5064   4.314   5.393   4.672
 1515WAT     H2 5065   4.320   5.291   4.561
 1516WAT      O 5066   4.861   5.494   4.704
 1516WAT     H1 5067   4.775   5.464   4.736
 1516WAT     H2 5068   4.845   5.519   4.613
 1517WAT      O 5069   4.570   5.644   4.914
 1517WAT     H1 5070   4.603   5.561   4.880
 1517WAT     H2 5071   4.649   5.697   4.929
 1518WAT      O 5072   4.243   5.048   3.519
 1518WAT     H1 5073   4.181   5.047   3.591
 1518WAT     H2 5074   4.235   4.961   3.479
 1519WAT      O 5075   4.136   5.140   4.217
 1519WAT     H1 5076   4.165   5.231   4.209
 1519WAT     H2 5077   4.190   5.091   4.155
 1520WAT      O 5078   3.911   5.598   3.804
 1520WAT     H1 5079   3.888   5.576   3.894
 1520WAT     H2 5080   3.833   5.641   3.769
 1521WAT      O 5081   4.634   5.599   3.663
 1521WAT     H1 5082   4.574   5.671   3.645
 1521WAT     H2 5083   4.689   5.592   3.585
 1522WAT      O 5084   4.155   5.688   4.870
 1522WAT     H1 5085   4.145   5.594   4.855
 1522WAT     H2 5086   4.239   5.710   4.831
 1523WAT      O 5087   4.495   5.462   3.866
 1523WAT     H1 5088   4.534   5.494   3.785
 1523WAT     H2 5089   4.531   5.374   3.878
 1524WAT      O 5090   3.668   5.329   4.685
 1524WAT     H1 5091   3.629   5.414   4.706
 1524WAT     H2 5092   3.599   5.265   4.705
 1525WAT      O 5093   4.325   5.337   4.992
 1525WAT     H1 5094   4.256   5.318   5.056
 1525WAT     H2 5095   4.400   5.366   5.046
 1526WAT      O 5096   3.398   5.121   4.089
 1526WAT     H1 5097   3.369   5.178   4.160
 1526WAT     H2 5098   3.473   5.073   4.125
 1527WAT      O 5099   3.417   5.515   3.210
 1527WAT     H1 5100   3.409   5.610   3.224
 1527WAT     H2 5101   3.382   5.501   3.122
 1528WAT      O 5102   4.553   5.721   4.276
 1528WAT     H1 5103   4.480   5.772   4.311
 1528WAT     H2 5104   4.513   5.640   4.246
 1529WAT      O 5105   4.197   5.389   4.116
 1529WAT     H1 5106   4.197   5.345   4.032
 1529WAT     H2 5107   4.286   5.421   4.127
 1530WAT      O 5108   3.782   5.377   4.012
 1530WAT     H1 5109   3.748   5.425   4.088
 1530WAT     H2 5110   3.706   5.332   3.976
 1531WAT      O 5111   4.203   5.489   3.416
 1531WAT     H1 5112   4.215   5.485   3.510
 1531WAT     H2 5113   4.165   5.575   3.400
 1532WAT      O 5114   4.599   5.267   4.217
 1532WAT     H1 5115   4.601   5.312   4.302
 1532WAT     H2 5116   4.574   5.177   4.239
 1533WAT      O 5117   4.104   5.720   3.355
 1533WAT     H1 5118   4.047   5.675   3.293
 1533WAT     H2 5119   4.175   5.756   3.302
 1534WAT      O 5120   4.942   5.008   4.801
 1534WAT     H1 5121   4.975   4.935   4.854
 1534WAT     H2 5122   4.946   4.976   4.711
 1535WAT      O 5123   4.227   5.795   4.291
 1535WAT     H1 5124   4.264   5.747   4.366
 1535WAT     H2 5125   4.208   5.882   4.325
 1536WAT      O 5126   3.513   5.269   3.904
 1536WAT     H1 5127   3.485   5.233   3.988
 1536WAT     H2 5128   3.507   5.196   3.843
 1537WAT      O 5129   4.006   5.699   4.523
 1537WAT     H1 5130   3.976   5.787   4.545
 1537WAT     H2 5131   4.101   5.705   4.527
 1538WAT      O 5132   4.481   5.159   3.576
 1538WAT     H1 5133   4.399   5.109   3.569
 1538WAT     H2 5134   4.461   5.243   3.535
 1539WAT      O 5135   4.752   5.596   3.406
 1539WAT     H1 5136   4.841   5.627   3.388
 1539WAT     H2 5137   4.749   5.508   3.367
 1540WAT      O 5138   3.612   5.783   4.638
 1540WAT     H1 5139   3.576   5.849   4.696
 1540WAT     H2 5140   3.582   5.700   4.675
 1541WAT      O 5141   3.932   5.829   4.926
 1541WAT     H1 5142   3.902   5.843   4.836
 1541WAT     H2 5143   4.009   5.773   4.917
 1542WAT      O 5144   4.979   5.727   3.353
 1542WAT     H1 5145   4.971   5.770   3.268
 1542WAT     H2 5146   5.051   5.773   3.396
 1543WAT      O 5147   3.463   5.783   3.300
 1543WAT     H1 5148   3.550   5.811   3.328
 1543WAT     H2 5149   3.414   5.864   3.289
 1544WAT      O 5150   3.769   4.956   3.759
 1544WAT     H1 5151   3.756   4.955   3.854
 1544WAT     H2 5152   3.687   4.990   3.724
 1545WAT      O 5153   3.469   5.132   4.705
 1545WAT     H1 5154   3.398   5.152   4.766
 1545WAT     H2 5155   3.511   5.054   4.743
 1546WAT      O 5156   4.618   5.381   4.480
 1546WAT     H1 5157   4.655   5.299   4.513
 1546WAT     H2 5158   4.532   5.387   4.522
 1547WAT      O 5159   4.955   5.277   3.561
 1547WAT     H1 5160   4.892   5.287   3.490
 1547WAT     H2 5161   4.906   5.299   3.640
 1548WAT      O 5162   4.152   5.505   3.703
 1548WAT     H1 5163   4.081   5.551   3.747
 1548WAT     H2 5164   4.180   5.439   3.766
 1549WAT      O 5165   4.314   5.646   4.503
 1549WAT     H1 5166   4.364   5.694   4.569
 1549WAT     H2 5167   4.329   5.554   4.524
 1550WAT      O 5168   4.555   5.177   3.847
 1550WAT     H1 5169   4.543   5.179   3.752
 1550WAT     H2 5170   4.650   5.182   3.859
 1551WAT      O 5171   3.972   5.335   3.440
 1551WAT     H1 5172   4.057   5.379   3.434
 1551WAT     H2 5173   3.936   5.367   3.523
 1552WAT      O 5174   5.035   5.268   4.587
 1552WAT     H1 5175   4.985   5.342   4.621
 1552WAT     H2 5176   5.117   5.307   4.555
 1553WAT      O 5177   4.864   5.792   3.932
 1553WAT     H1 5178   4.770   5.794   3.949
 1553WAT     H2 5179   4.896   5.714   3.976
 1554WAT      O 5180   3.732   5.704   3.356
 1554WAT     H1 5181   3.740   5.609   3.367
 1554WAT     H2 5182   3.821   5.737   3.367
 1555WAT      O 5183   3.688   5.700   4.969
 1555WAT     H1 5184   3.692   5.671   5.060
 1555WAT     H2 5185   3.773   5.740   4.953
 1556WAT      O 5186   3.882   5.558   4.766
 1556WAT     H1 5187   3.829   5.509   4.703
 1556WAT     H2 5188   3.949   5.601   4.712
 1557WAT      O 5189   4.819   5.739   4.943
 1557WAT     H1 5190   4.877   5.663   4.934
 1557WAT     H2 5191   4.836   5.792   4.865
 1558WAT      O 5192   3.930   5.255   4.774
 1558WAT     H1 5193   3.921   5.193   4.701
 1558WAT     H2 5194   3.872   5.328   4.751
 1559WAT      O 5195   4.207   5.111   4.477
 1559WAT     H1 5196   4.162   5.113   4.393
 1559WAT     H2 5197   4.144   5.071   4.537
 1560WAT      O 5198   4.481   5.773   4.678
 1560WAT     H1 5199   4.493   5.714   4.752
 1560WAT     H2 5200   4.567   5.777   4.636
 1561WAT      O 5201   3.955   5.568   3.180
 1561WAT     H1 5202   3.935   5.481   3.216
 1561WAT     H2 5203   3.938   5.559   3.086
 1562WAT      O 5204   4.158   5.428   4.803
 1562WAT     H1 5205   4.217   5.397   4.872
 1562WAT     H2 5206   4.076   5.380   4.819
 1563WAT      O 5207   4.640   5.389   4.827
 1563WAT     H1 5208   4.571   5.323   4.820
 1563WAT     H2 5209   4.712   5.345   4.871
 1564WAT      O 5210   4.703   5.049   3.433
 1564WAT     H1 5211   4.731   4.964   3.468
 1564WAT     H2 5212   4.625   5.072   3.484
 1565WAT      O 5213   3.835   5.278   3.179
 1565WAT     H1 5214   3.865   5.278   3.088
 1565WAT     H2 5215   3.909   5.243   3.228
 1566WAT      O 5216   4.157   5.172   3.277
 1566WAT     H1 5217   4.122   5.104   3.219
 1566WAT     H2 5218   4.177   5.126   3.359
 1567WAT      O 5219   3.491   5.825   3.917
 1567WAT     H1 5220   3.425   5.798   3.852
 1567WAT     H2 5221   3.574   5.814   3.872
 1568WAT      O 5222   4.786   5.304   3.339
 1568WAT     H1 5223   4.827   5.286   3.255
 1568WAT     H2 5224   4.755   5.219   3.370
 1569WAT      O 5225   5.135   5.796   3.709
 1569WAT     H1 5226   5.098   5.719   3.665
 1569WAT     H2 5227   5.063   5.834   3.757
 1570WAT      O 5228   3.594   5.863   4.371
 1570WAT     H1 5229   3.631   5.855   4.459
 1570WAT     H2 5230   3.538   5.787   4.361
 1571WAT      O 5231   5.074   5.710   4.672
 1571WAT     H1 5232   5.051   5.687   4.582
 1571WAT     H2 5233   5.101   5.802   4.668
 1572WAT      O 5234   3.550   5.555   4.761
 1572WAT     H1 5235   3.460   5.551   4.795
 1572WAT     H2 5236   3.604   5.574   4.838
 1573WAT      O 5237   4.918   5.233   4.950
 1573WAT     H1 5238   5.006   5.234   4.988
 1573WAT     H2 5239   4.920   5.159   4.889
 1574WAT      O 5240   3.412   5.546   3.511
 1574WAT     H1 5241   3.322   5.572   3.494
 1574WAT     H2 5242   3.460   5.573   3.433
 1575WAT      O 5243   5.063   5.618   4.039
 1575WAT     H1 5244   5.115   5.569   3.976
 1575WAT     H2 5245   5.122   5.632   4.113
 1576WAT      O 5246   5.081   5.627   4.391
 1576WAT     H1 5247   4.986   5.623   4.402
 1576WAT     H2 5248   5.099   5.718   4.367
 1577WAT      O 5249   3.666   5.452   3.302
 1577WAT     H1 5250   3.737   5.409   3.253
 1577WAT     H2 5251   3.595   5.458   3.239
 1578WAT      O 5252   3.631   5.057   3.206
 1578WAT     H1 5253   3.703   5.111   3.238
 1578WAT     H2 5254   3.658   5.030   3.118
 1579WAT      O 5255   5.012   5.544   3.633
 1579WAT     H1 5256   5.062   5.521   3.711
 1579WAT     H2 5257   4.992   5.460   3.591
 1580WAT      O 5258   3.600   4.982   4.196
 1580WAT     H1 5259   3.665   4.927   4.152
 1580WAT     H2 5260   3.642   5.007   4.278
 1581WAT      O 5261   5.155   5.407   3.886
 1581WAT     H1 5262   5.144   5.392   3.980
 1581WAT     H2 5263   5.231   5.355   3.862
 1582WAT      O 5264   4.990   5.001   4.532
 1582WAT     H1 5265   5.053   5.063   4.568
 1582WAT     H2 5266   5.004   5.005   4.437
 1583WAT      O 5267   5.244   5.191   3.210
 1583WAT     H1 5268   5.336   5.177   3.189
 1583WAT     H2 5269   5.242   5.198   3.305
 1584WAT      O 5270   5.251   5.268   3.473
 1584WAT     H1 5271   5.172   5.261   3.526
 1584WAT     H2 5272   5.272   5.361   3.472
 1585WAT      O 5273   3.575   4.998   4.470
 1585WAT     H1 5274   3.540   5.043   4.547
 1585WAT     H2 5275   3.542   4.908   4.479
 1586WAT      O 5276   4.327   5.117   4.823
 1586WAT     H1 5277   4.320   5.176   4.898
 1586WAT     H2 5278   4.421   5.106   4.808
 1587WAT      O 5279   4.590   5.082   4.787
 1587WAT     H1 5280   4.652   5.114   4.720
 1587WAT     H2 5281   4.645   5.034   4.849
 1588WAT      O 5282   3.643   4.950   4.798
 1588WAT     H1 5283   3.697   4.932   4.722
 1588WAT     H2 5284   3.649   4.871   4.852
 1589WAT      O 5285   4.664   4.939   4.419
 1589WAT     H1 5286   4.577   4.972   4.399
 1589WAT     H2 5287   4.653   4.891   4.502
 1590WAT      O 5288   4.755   5.159   4.558
 1590WAT     H1 5289   4.722   5.078   4.520
 1590WAT     H2 5290   4.850   5.155   4.545
 1591WAT      O 5291   4.439   5.030   4.313
 1591WAT     H1 5292   4.361   5.078   4.341
 1591WAT     H2 5293   4.410   4.940   4.302
 1592WAT      O 5294   4.894   5.101   4.118
 1592WAT     H1 5295   4.938   5.095   4.033
 1592WAT     H2 5296   4.867   5.192   4.125
 1593WAT      O 5297   5.081   5.064   3.919
 1593WAT     H1 5298   5.075   4.969   3.904
 1593WAT     H2 5299   5.159   5.075   3.973
 1594WAT      O 5300   3.574   5.061   3.565
 1594WAT     H1 5301   3.649   5.072   3.508
 1594WAT     H2 5302   3.527   5.145   3.561
 1595WAT      O 5303   4.228   5.272   3.864
 1595WAT     H1 5304   4.146   5.235   3.830
 1595WAT     H2 5305   4.278   5.197   3.895
 1596WAT      O 5306   4.678   4.939   3.988
 1596WAT     H1 5307   4.738   4.996   4.036
 1596WAT     H2 5308   4.604   4.995   3.966
 1597WAT      O 5309   4.992   4.979   3.516
 1597WAT     H1 5310   5.012   5.069   3.542
 1597WAT     H2 5311   4.914   4.956   3.565
 1598WAT      O 5312   3.811   5.114   3.419
 1598WAT     H1 5313   3.864   5.035   3.406
 1598WAT     H2 5314   3.874   5.181   3.443
 1599WAT      O 5315   4.030   5.087   3.725
 1599WAT     H1 5316   3.967   5.017   3.741
 1599WAT     H2 5317   3.976   5.163   3.703
 1600WAT      O 5318   4.043   5.015   4.968
 1600WAT     H1 5319   4.015   5.065   4.892
 1600WAT     H2 5320   4.081   4.935   4.932
 1601WAT      O 5321   4.703   4.957   5.026
 1601WAT     H1 5322   4.692   4.989   5.116
 1601WAT     H2 5323   4.785   4.997   4.996
 1602WAT      O 5324   4.593   5.759   2.062
 1602WAT     H1 5325   4.585   5.667   2.035
 1602WAT     H2 5326   4.552   5.808   1.992
 1603WAT      O 5327   3.649   5.464   1.717
 1603WAT     H1 5328   3.560   5.498   1.707
 1603WAT     H2 5329   3.678   5.444   1.628
 1604WAT      O 5330   3.446   5.724   2.305
 1604WAT     H1 5331   3.503   5.647   2.305
 1604WAT     H2 5332   3.446   5.754   2.214
 1605WAT      O 5333   3.570   5.264   2.484
 1605WAT     H1 5334   3.552   5.175   2.512
 1605WAT     H2 5335   3.530   5.319   2.551
 1606WAT      O 5336   4.454   5.485   2.274
 1606WAT     H1 5337   4.491   5.397   2.263
 1606WAT     H2 5338   4.444   5.518   2.185
 1607WAT      O 5339   3.867   5.322   1.820
 1607WAT     H1 5340   3.878   5.412   1.851
 1607WAT     H2 5341   3.776   5.317   1.791
 1608WAT      O 5342   4.832   5.234   1.967
 1608WAT     H1 5343   4.914   5.185   1.971
 1608WAT     H2 5344   4.835   5.293   2.043
 1609WAT      O 5345   3.632   5.514   2.345
 1609WAT     H1 5346   3.700   5.540   2.407
 1609WAT     H2 5347   3.600   5.430   2.378
 1610WAT      O 5348   4.051   5.619   2.253
 1610WAT     H1 5349   4.102   5.669   2.317
 1610WAT     H2 5350   4.104   5.541   2.236
 1611WAT      O 5351   5.261   5.436   2.624
 1611WAT     H1 5352   5.191   5.475   2.572
 1611WAT     H2 5353   5.288   5.505   2.684
 1612WAT      O 5354   3.879   5.083   2.680
 1612WAT     H1 5355   3.879   5.134   2.599
 1612WAT     H2 5356   3.796   5.035   2.678
 1613WAT      O 5357   4.856   5.428   2.245
 1613WAT     H1 5358   4.785   5.457   2.303
 1613WAT     H2 5359   4.892   5.509   2.208
 1614WAT      O 5360   3.847   5.254   2.481
 1614WAT     H1 5361   3.882   5.338   2.451
 1614WAT     H2 5362   3.754   5.269   2.492
 1615WAT      O 5363   5.163   5.373   2.284
 1615WAT     H1 5364   5.068   5.376   2.297
 1615WAT     H2 5365   5.195   5.454   2.322
 1616WAT      O 5366   4.216   5.003   2.113
 1616WAT     H1 5367   4.246   4.947   2.042
 1616WAT     H2 5368   4.123   5.016   2.095
 1617WAT      O 5369   4.453   5.436   1.486
 1617WAT     H1 5370   4.359   5.452   1.495
 1617WAT     H2 5371   4.485   5.508   1.432
 1618WAT      O 5372   4.802   5.583   2.579
 1618WAT     H1 5373   4.760   5.666   2.604
 1618WAT     H2 5374   4.729   5.525   2.560
 1619WAT      O 5375   4.015   5.862   2.065
 1619WAT     H1 5376   3.975   5.791   2.015
 1619WAT     H2 5377   4.024   5.827   2.154
 1620WAT      O 5378   3.886   5.539   2.443
 1620WAT     H1 5379   3.942   5.550   2.365
 1620WAT     H2 5380   3.938   5.577   2.514
 1621WAT      O 5381   5.033   5.015   1.369
 1621WAT     H1 5382   5.002   5.024   1.459
 1621WAT     H2 5383   5.109   5.072   1.364
 1622WAT      O 5384   3.685   5.751   1.815
 1622WAT     H1 5385   3.673   5.824   1.754
 1622WAT     H2 5386   3.654   5.674   1.767
 1623WAT      O 5387   5.154   5.488   2.967
 1623WAT     H1 5388   5.093   5.539   2.914
 1623WAT     H2 5389   5.122   5.398   2.961
 1624WAT      O 5390   3.932   5.086   2.153
 1624WAT     H1 5391   3.887   5.164   2.120
 1624WAT     H2 5392   3.988   5.118   2.224
 1625WAT      O 5393   4.360   5.372   2.714
 1625WAT     H1 5394   4.314   5.393   2.795
 1625WAT     H2 5395   4.320   5.291   2.683
 1626WAT      O 5396   4.861   5.494   2.827
 1626WAT     H1 5397   4.775   5.464   2.859
 1626WAT     H2 5398   4.845   5.519   2.735
 1627WAT      O 5399   4.570   5.644   3.037
 1627WAT     H1 5400   4.603   5.561   3.003
 1627WAT     H2 5401   4.649   5.697   3.051
 1628WAT      O 5402   4.243   5.048   1.641
 1628WAT     H1 5403   4.181   5.047   1.714
 1628WAT     H2 5404   4.235   4.961   1.602
 1629WAT      O 5405   4.136   5.140   2.339
 1629WAT     H1 5406   4.165   5.231   2.331
 1629WAT     H2 5407   4.190   5.091   2.278
 1630WAT      O 5408   3.911   5.598   1.926
 1630WAT     H1 5409   3.888   5.576   2.017
 1630WAT     H2 5410   3.833   5.641   1.892
 1631WAT      O 5411   4.634   5.599   1.786
 1631WAT     H1 5412   4.574   5.671   1.768
 1631WAT     H2 5413   4.689   5.592   1.708
 1632WAT      O 5414   4.155   5.688   2.993
 1632WAT     H1 5415   4.145   5.594   2.978
 1632WAT     H2 5416   4.239   5.710   2.953
 1633WAT      O 5417   4.495   5.462   1.989
 1633WAT     H1 5418   4.534   5.494   1.908
 1633WAT     H2 5419   4.531   5.374   2.000
 1634WAT      O 5420   3.668   5.329   2.808
 1634WAT     H1 5421   3.629   5.414   2.829
 1634WAT     H2 5422   3.599   5.265   2.827
 1635WAT      O 5423   4.325   5.337   3.115
 1635WAT     H1 5424   4.256   5.318   3.178
 1635WAT     H2 5425   4.400   5.366   3.168
 1636WAT      O 5426   3.398   5.121   2.211
 1636WAT     H1 5427   3.369   5.178   2.283
 1636WAT     H2 5428   3.473   5.073   2.248
 1637WAT      O 5429   3.417   5.515   1.332
 1637WAT     H1 5430   3.409   5.610   1.346
 1637WAT     H2 5431   3.382   5.501   1.244
 1638WAT      O 5432   4.553   5.721   2.399
 1638WAT     H1 5433   4.480   5.772   2.433
 1638WAT     H2 5434   4.513   5.640   2.368
 1639WAT      O 5435   4.197   5.389   2.239
 1639WAT     H1 5436   4.197   5.345   2.154
 1639WAT     H2 5437   4.286   5.421   2.250
 1640WAT      O 5438   3.782   5.377   2.135
 1640WAT     H1 5439   3.748   5.425   2.211
 1640WAT     H2 5440   3.706   5.332   2.099
 1641WAT      O 5441   4.203   5.489   1.538
 1641WAT     H1 5442   4.215   5.485   1.633
 1641WAT     H2 5443   4.165   5.575   1.523
 1642WAT      O 5444   4.599   5.267   2.340
 1642WAT     H1 5445   4.601   5.312   2.424
 1642WAT     H2 5446   4.574   5.177   2.361
 1643WAT      O 5447   4.104   5.720   1.478
 1643WAT     H1 5448   4.047   5.675   1.415
 1643WAT     H2 5449   4.175   5.756   1.425
 1644WAT      O 5450   4.942   5.008   2.924
 1644WAT     H1 5451   4.975   4.935   2.976
 1644WAT     H2 5452   4.946   4.976   2.833
 1645WAT      O 5453   4.227   5.795   2.414
 1645WAT     H1 5454   4.264   5.747   2.488
 1645WAT     H2 5455   4.208   5.882   2.448
 1646WAT      O 5456   3.513   5.269   2.027
 1646WAT     H1 5457   3.485   5.233   2.110
 1646WAT     H2 5458   3.507   5.196   1.965
 1647WAT      O 5459   4.006   5.699   2.646
 1647WAT     H1 5460   3.976   5.787   2.668
 1647WAT     H2 5461   4.101   5.705   2.649
 1648WAT      O 5462   4.481   5.159   1.699
 1648WAT     H1 5463   4.399   5.109   1.691
 1648WAT     H2 5464   4.461   5.243   1.657
 1649WAT      O 5465   4.752   5.596   1.528
 1649WAT     H1 5466   4.841   5.627   1.511
 1649WAT     H2 5467   4.749   5.508   1.489
 1650WAT      O 5468   3.612   5.783   2.760
 1650WAT     H1 5469   3.576   5.849   2.819
 1650WAT     H2 5470   3.582   5.700   2.797
 1651WAT      O 5471   3.932   5.829   3.049
 1651WAT     H1 5472   3.902   5.843   2.959
 1651WAT     H2 5473   4.009   5.773   3.039
 1652WAT      O 5474   4.979   5.727   1.475
 1652WAT     H1 5475   4.971   5.770   1.390
 1652WAT     H2 5476   5.051   5.773   1.518
 1653WAT      O 5477   3.463   5.783   1.423
 1653WAT     H1 5478   3.550   5.811   1.451
 1653WAT     H2 5479   3.414   5.864   1.411
 1654WAT      O 5480   3.769   4.956   1.882
 1654WAT     H1 5481   3.756   4.955   1.977
 1654WAT     H2 5482   3.687   4.990   1.847
 1655WAT      O 5483   3.469   5.132   2.828
 1655WAT     H1 5484   3.398   5.152   2.888
 1655WAT     H2 5485   3.511   5.054   2.865
 1656WAT      O 5486   4.618   5.381   2.603
 1656WAT     H1 5487   4.655   5.299   2.636
 1656WAT     H2 5488   4.532   5.387   2.645
 1657WAT      O 5489   4.955   5.277   1.684
 1657WAT     H1 5490   4.892   5.287   1.612
 1657WAT     H2 5491   4.906   5.299   1.763
 1658WAT      O 5492   4.152   5.505   1.825
 1658WAT     H1 5493   4.081   5.551   1.870
 1658WAT     H2 5494   4.180   5.439   1.889
 1659WAT      O 5495   4.314   5.646   2.625
 1659WAT     H1 5496   4.364   5.694   2.692
 1659WAT     H2 5497   4.329   5.554   2.646
 1660WAT      O 5498   4.555   5.177   1.969
 1660WAT     H1 5499   4.543   5.179   1.874
 1660WAT     H2 5500   4.650   5.182   1.981
 1661WAT      O 5501   3.972   5.335   1.563
 1661WAT     H1 5502   4.057   5.379   1.556
 1661WAT     H2 5503   3.936   5.367   1.646
 1662WAT      O 5504   5.035   5.268   2.710
 1662WAT     H1 5505   4.985   5.342   2.744
 1662WAT     H2 5506   5.117   5.307   2.678
 1663WAT      O 5507   4.864   5.792   2.054
 1663WAT     H1 5508   4.770   5.794   2.072
 1663WAT     H2 5509   4.896   5.714   2.099
 1664WAT      O 5510   3.732   5.704   1.479
 1664WAT     H1 5511   3.740   5.609   1.490
 1664WAT     H2 5512   3.821   5.737   1.489
 1665WAT      O 5513   3.688   5.700   3.092
 1665WAT     H1 5514   3.692   5.671   3.183
 1665WAT     H2 5515   3.773   5.740   3.076
 1666WAT      O 5516   3.882   5.558   2.888
 1666WAT     H1 5517   3.829   5.509   2.826
 1666WAT     H2 5518   3.949   5.601   2.835
 1667WAT      O 5519   4.819   5.739   3.065
 1667WAT     H1 5520   4.877   5.663   3.056
 1667WAT     H2 5521   4.836   5.792   2.988
 1668WAT      O 5522   3.930   5.255   2.896
 1668WAT     H1 5523   3.921   5.193   2.824
 1668WAT     H2 5524   3.872   5.328   2.874
 1669WAT      O 5525   4.207   5.111   2.600
 1669WAT     H1 5526   4.162   5.113   2.515
 1669WAT     H2 5527   4.144   5.071   2.659
 1670WAT      O 5528   4.481   5.773   2.800
 1670WAT     H1 5529   4.493   5.714   2.874
 1670WAT     H2 5530   4.567   5.777   2.758
 1671WAT      O 5531   3.955   5.568   1.302
 1671WAT     H1 5532   3.935   5.481   1.338
 1671WAT     H2 5533   3.938   5.559   1.209
 1672WAT      O 5534   4.158   5.428   2.926
 1672WAT     H1 5535   4.217   5.397   2.995
 1672WAT     H2 5536   4.076   5.380   2.942
 1673WAT      O 5537   4.640   5.389   2.949
 1673WAT     H1 5538   4.571   5.323   2.943
 1673WAT     H2 5539   4.712   5.345   2.994
 1674WAT      O 5540   4.703   5.049   1.555
 1674WAT     H1 5541   4.731   4.964   1.591
 1674WAT     H2 5542   4.625   5.072   1.607
 1675WAT      O 5543   3.835   5.278   1.301
 1675WAT     H1 5544   3.865   5.278   1.210
 1675WAT     H2 5545   3.909   5.243   1.351
 1676WAT      O 5546   4.157   5.172   1.400
 1676WAT     H1 5547   4.122   5.104   1.342
 1676WAT     H2 5548   4.177   5.126   1.481
 1677WAT      O 5549   3.491   5.825   2.039
 1677WAT     H1 5550   3.425   5.798   1.975
 1677WAT     H2 5551   3.574   5.814   1.994
 1678WAT      O 5552   4.786   5.304   1.461
 1678WAT     H1 5553   4.827   5.286   1.377
 1678WAT     H2 5554   4.755   5.219   1.493
 1679WAT      O 5555   5.135   5.796   1.831
 1679WAT     H1 5556   5.098   5.719   1.788
 1679WAT     H2 5557   5.063   5.834   1.880
 1680WAT      O 5558   3.594   5.863   2.493
 1680WAT     H1 5559   3.631   5.855   2.581
 1680WAT     H2 5560   3.538   5.787   2.483
 1681WAT      O 5561   5.074   5.710   2.795
 1681WAT     H1 5562   5.051   5.687   2.705
 1681WAT     H2 5563   5.101   5.802   2.790
 1682WAT      O 5564   3.550   5.555   2.884
 1682WAT     H1 5565   3.460   5.551   2.918
 1682WAT     H2 5566   3.604   5.574   2.960
 1683WAT      O 5567   4.918   5.233   3.072
 1683WAT     H1 5568   5.006   5.234   3.111
 1683WAT     H2 5569   4.920   5.159   3.011
 1684WAT      O 5570   3.412   5.546   1.634
 1684WAT     H1 5571   3.322   5.572   1.616
 1684WAT     H2 5572   3.460   5.573   1.556
 1685WAT      O 5573   5.063   5.618   2.161
 1685WAT     H1 5574   5.115   5.569   2.098
 1685WAT     H2 5575   5.122   5.632   2.236
 1686WAT      O 5576   5.081   5.627   2.514
 1686WAT     H1 5577   4.986   5.623   2.525
 1686WAT     H2 5578   5.099   5.718   2.490
 1687WAT      O 5579   3.666   5.452   1.424
 1687WAT     H1 5580   3.737   5.409   1.376
 1687WAT     H2 5581   3.595   5.458   1.361
 1688WAT      O 5582   3.631   5.057   1.329
 1688WAT     H1 5583   3.703   5.111   1.360
 1688WAT     H2 5584   3.658   5.030   1.241
 1689WAT      O 5585   5.012   5.544   1.755
 1689WAT     H1 5586   5.062   5.521   1.834
 1689WAT     H2 5587   4.992   5.460   1.714
 1690WAT      O 5588   3.600   4.982   2.319
 1690WAT     H1 5589   3.665   4.927   2.275
 1690WAT     H2 5590   3.642   5.007   2.401
 1691WAT      O 5591   5.155   5.407   2.009
 1691WAT     H1 5592   5.144   5.392   2.102
 1691WAT     H2 5593   5.231   5.355   1.984
 1692WAT      O 5594   4.990   5.001   2.654
 1692WAT     H1 5595   5.053   5.063   2.691
 1692WAT     H2 5596   5.004   5.005   2.560
 1693WAT      O 5597   5.244   5.191   1.333
 1693WAT     H1 5598   5.336   5.177   1.312
 1693WAT     H2 5599   5.242   5.198   1.428
 1694WAT      O 5600   5.251   5.268   1.595
 1694WAT     H1 5601   5.172   5.261   1.648
 1694WAT     H2 5602   5.272   5.361   1.594
 1695WAT      O 5603   3.575   4.998   2.593
 1695WAT     H1 5604   3.540   5.043   2.670
 1695WAT     H2 5605   3.542   4.908   2.601
 1696WAT      O 5606   4.327   5.117   2.945
 1696WAT     H1 5607   4.320   5.176   3.020
 1696WAT     H2 5608   4.421   5.106   2.931
 1697WAT      O 5609   4.590   5.082   2.909
 1697WAT     H1 5610   4.652   5.114   2.843
 1697WAT     H2 5611   4.645   5.034   2.971
 1698WAT      O 5612   3.643   4.950   2.921
 1698WAT     H1 5613   3.697   4.932   2.844
 1698WAT     H2 5614   3.649   4.871   2.974
 1699WAT      O 5615   4.664   4.939   2.542
 1699WAT     H1 5616   4.577   4.972   2.522
 1699WAT     H2 5617   4.653   4.891   2.624
 1700WAT      O 5618   4.755   5.159   2.680
 1700WAT     H1 5619   4.722   5.078   2.642
 1700WAT     H2 5620   4.850   5.155   2.668
 1701WAT      O 5621   4.439   5.030   2.436
 1701WAT     H1 5622   4.361   5.078   2.464
 1701WAT     H2 5623   4.410   4.940   2.425
 1702WAT      O 5624   4.894   5.101   2.240
 1702WAT     H1 5625   4.938   5.095   2.155
 1702WAT     H2 5626   4.867   5.192   2.247
 1703WAT      O 5627   5.081   5.064   2.041
 1703WAT     H1 5628   5.075   4.969   2.027
 1703WAT     H2 5629   5.159   5.075   2.096
 1704WAT      O 5630   3.574   5.061   1.688
 1704WAT     H1 5631   3.649   5.072   1.631
 1704WAT     H2 5632   3.527   5.145   1.683
 1705WAT      O 5633   4.228   5.272   1.987
 1705WAT     H1 5634   4.146   5.235   1.953
 1705WAT     H2 5635   4.278   5.197   2.017
 1706WAT      O 5636   4.678   4.939   2.111
 1706WAT     H1 5637   4.738   4.996   2.158
 1706WAT     H2 5638   4.604   4.995   2.088
 1707WAT      O 5639   4.992   4.979   1.638
 1707WAT     H1 5640   5.012   5.069   1.665
 1707WAT     H2 5641   4.914   4.956   1.687
 1708WAT      O 5642   3.811   5.114   1.542
 1708WAT     H1 5643   3.864   5.035   1.529
 1708WAT     H2 5644   3.874   5.181   1.565
 1709WAT      O 5645   4.030   5.087   1.847
 1709WAT     H1 5646   3.967   5.017   1.864
 1709WAT     H2 5647   3.976   5.163   1.826
 1710WAT      O 5648   4.043   5.015   3.091
 1710WAT     H1 5649   4.015   5.065   3.014
 1710WAT     H2 5650   4.081   4.935   3.054
 1711WAT      O 5651   4.703   4.957   3.149
 1711WAT     H1 5652   4.692   4.989   3.238
 1711WAT     H2 5653   4.785   4.997   3.119
 1712WAT      O 5654   3.446   5.724   0.428
 1712WAT     H1 5655   3.503   5.647   0.428
 1712WAT     H2 5656   3.446   5.754   0.337
 1713WAT      O 5657   3.570   5.264   0.606
 1713WAT     H1 5658   3.552   5.175   0.634
 1713WAT     H2 5659   3.530   5.319   0.674
 1714WAT      O 5660   4.454   5.485   0.397
 1714WAT     H1 5661   4.491   5.397   0.385
 1714WAT     H2 5662   4.444   5.518   0.307
 1715WAT      O 5663   3.632   5.514   0.467
 1715WAT     H1 5664   3.700   5.540   0.529
 1715WAT     H2 5665   3.600   5.430   0.501
 1716WAT      O 5666   4.051   5.619   0.376
 1716WAT     H1 5667   4.102   5.669   0.440
 1716WAT     H2 5668   4.104   5.541   0.358
 1717WAT      O 5669   5.261   5.436   0.746
 1717WAT     H1 5670   5.191   5.475   0.694
 1717WAT     H2 5671   5.288   5.505   0.806
 1718WAT      O 5672   3.879   5.083   0.803
 1718WAT     H1 5673   3.879   5.134   0.722
 1718WAT     H2 5674   3.796   5.035   0.800
 1719WAT      O 5675   4.856   5.428   0.367
 1719WAT     H1 5676   4.785   5.457   0.425
 1719WAT     H2 5677   4.892   5.509   0.331
 1720WAT      O 5678   3.847   5.254   0.603
 1720WAT     H1 5679   3.882   5.338   0.574
 1720WAT     H2 5680   3.754   5.269   0.615
 1721WAT      O 5681   5.163   5.373   0.406
 1721WAT     H1 5682   5.068   5.376   0.419
 1721WAT     H2 5683   5.195   5.454   0.445
 1722WAT      O 5684   4.802   5.583   0.701
 1722WAT     H1 5685   4.760   5.666   0.727
 1722WAT     H2 5686   4.729   5.525   0.682
 1723WAT      O 5687   3.886   5.539   0.566
 1723WAT     H1 5688   3.942   5.550   0.488
 1723WAT     H2 5689   3.938   5.577   0.637
 1724WAT      O 5690   5.154   5.488   1.090
 1724WAT     H1 5691   5.093   5.539   1.037
 1724WAT     H2 5692   5.122   5.398   1.084
 1725WAT      O 5693   3.932   5.086   0.276
 1725WAT     H1 5694   3.887   5.164   0.243
 1725WAT     H2 5695   3.988   5.118   0.347
 1726WAT      O 5696   4.360   5.372   0.836
 1726WAT     H1 5697   4.314   5.393   0.917
 1726WAT     H2 5698   4.320   5.291   0.806
 1727WAT      O 5699   4.861   5.494   0.949
 1727WAT     H1 5700   4.775   5.464   0.981
 1727WAT     H2 5701   4.845   5.519   0.858
 1728WAT      O 5702   4.570   5.644   1.159
 1728WAT     H1 5703   4.603   5.561   1.125
 1728WAT     H2 5704   4.649   5.697   1.174
 1729WAT      O 5705   4.136   5.140   0.462
 1729WAT     H1 5706   4.165   5.231   0.454
 1729WAT     H2 5707   4.190   5.091   0.400
 1730WAT      O 5708   4.155   5.688   1.115
 1730WAT     H1 5709   4.145   5.594   1.100
 1730WAT     H2 5710   4.239   5.710   1.076
 1731WAT      O 5711   3.668   5.329   0.931
 1731WAT     H1 5712   3.629   5.414   0.951
 1731WAT     H2 5713   3.599   5.265   0.950
 1732WAT      O 5714   4.325   5.337   1.238
 1732WAT     H1 5715   4.256   5.318   1.301
 1732WAT     H2 5716   4.400   5.366   1.291
 1733WAT      O 5717   3.398   5.121   0.334
 1733WAT     H1 5718   3.369   5.178   0.405
 1733WAT     H2 5719   3.473   5.073   0.370
 1734WAT      O 5720   4.553   5.721   0.521
 1734WAT     H1 5721   4.480   5.772   0.556
 1734WAT     H2 5722   4.513   5.640   0.491
 1735WAT      O 5723   4.197   5.389   0.362
 1735WAT     H1 5724   4.197   5.345   0.277
 1735WAT     H2 5725   4.286   5.421   0.372
 1736WAT      O 5726   3.782   5.377   0.258
 1736WAT     H1 5727   3.748   5.425   0.333
 1736WAT     H2 5728   3.706   5.332   0.222
 1737WAT      O 5729   4.599   5.267   0.462
 1737WAT     H1 5730   4.601   5.312   0.547
 1737WAT     H2 5731   4.574   5.177   0.484
 1738WAT      O 5732   4.942   5.008   1.046
 1738WAT     H1 5733   4.975   4.935   1.099
 1738WAT     H2 5734   4.946   4.976   0.956
 1739WAT      O 5735   4.227   5.795   0.536
 1739WAT     H1 5736   4.264   5.747   0.611
 1739WAT     H2 5737   4.208   5.882   0.570
 1740WAT      O 5738   4.006   5.699   0.768
 1740WAT     H1 5739   3.976   5.787   0.791
 1740WAT     H2 5740   4.101   5.705   0.772
 1741WAT      O 5741   3.612   5.783   0.883
 1741WAT     H1 5742   3.576   5.849   0.942
 1741WAT     H2 5743   3.582   5.700   0.920
 1742WAT      O 5744   3.932   5.829   1.171
 1742WAT     H1 5745   3.902   5.843   1.081
 1742WAT     H2 5746   4.009   5.773   1.162
 1743WAT      O 5747   3.469   5.132   0.951
 1743WAT     H1 5748   3.398   5.152   1.011
 1743WAT     H2 5749   3.511   5.054   0.988
 1744WAT      O 5750   4.618   5.381   0.726
 1744WAT     H1 5751   4.655   5.299   0.758
 1744WAT     H2 5752   4.532   5.387   0.767
 1745WAT      O 5753   4.314   5.646   0.748
 1745WAT     H1 5754   4.364   5.694   0.814
 1745WAT     H2 5755   4.329   5.554   0.769
 1746WAT      O 5756   5.035   5.268   0.832
 1746WAT     H1 5757   4.985   5.342   0.866
 1746WAT     H2 5758   5.117   5.307   0.801
 1747WAT      O 5759   4.864   5.792   0.177
 1747WAT     H1 5760   4.770   5.794   0.194
 1747WAT     H2 5761   4.896   5.714   0.221
 1748WAT      O 5762   3.688   5.700   1.214
 1748WAT     H1 5763   3.692   5.671   1.305
 1748WAT     H2 5764   3.773   5.740   1.198
 1749WAT      O 5765   3.882   5.558   1.011
 1749WAT     H1 5766   3.829   5.509   0.948
 1749WAT     H2 5767   3.949   5.601   0.958
 1750WAT      O 5768   4.819   5.739   1.188
 1750WAT     H1 5769   4.877   5.663   1.179
 1750WAT     H2 5770   4.836   5.792   1.110
 1751WAT      O 5771   3.930   5.255   1.019
 1751WAT     H1 5772   3.921   5.193   0.946
 1751WAT     H2 5773   3.872   5.328   0.996
 1752WAT      O 5774   4.207   5.111   0.722
 1752WAT     H1 5775   4.162   5.113   0.638
 1752WAT     H2 5776   4.144   5.071   0.782
 1753WAT      O 5777   4.481   5.773   0.923
 1753WAT     H1 5778   4.493   5.714   0.997
 1753WAT     H2 5779   4.567   5.777   0.881
 1754WAT      O 5780   4.158   5.428   1.049
 1754WAT     H1 5781   4.217   5.397   1.117
 1754WAT     H2 5782   4.076   5.380   1.064
 1755WAT      O 5783   4.640   5.389   1.072
 1755WAT     H1 5784   4.571   5.323   1.065
 1755WAT     H2 5785   4.712   5.345   1.116
 1756WAT      O 5786   3.594   5.863   0.616
 1756WAT     H1 5787   3.631   5.855   0.704
 1756WAT     H2 5788   3.538   5.787   0.606
 1757WAT      O 5789   5.074   5.710   0.917
 1757WAT     H1 5790   5.051   5.687   0.827
 1757WAT     H2 5791   5.101   5.802   0.913
 1758WAT      O 5792   3.550   5.555   1.006
 1758WAT     H1 5793   3.460   5.551   1.040
 1758WAT     H2 5794   3.604   5.574   1.083
 1759WAT      O 5795   4.918   5.233   1.195
 1759WAT     H1 5796   5.006   5.234   1.233
 1759WAT     H2 5797   4.920   5.159   1.134
 1760WAT      O 5798   5.063   5.618   0.284
 1760WAT     H1 5799   5.115   5.569   0.221
 1760WAT     H2 5800   5.122   5.632   0.358
 1761WAT      O 5801   5.081   5.627   0.636
 1761WAT     H1 5802   4.986   5.623   0.648
 1761WAT     H2 5803   5.099   5.718   0.613
 1762WAT      O 5804   3.600   4.982   0.441
 1762WAT     H1 5805   3.665   4.927   0.397
 1762WAT     H2 5806   3.642   5.007   0.523
 1763WAT      O 5807   4.990   5.001   0.777
 1763WAT     H1 5808   5.053   5.063   0.814
 1763WAT     H2 5809   5.004   5.005   0.683
 1764WAT      O 5810   3.575   4.998   0.716
 1764WAT     H1 5811   3.540   5.043   0.792
 1764WAT     H2 5812   3.542   4.908   0.724
 1765WAT      O 5813   4.327   5.117   1.068
 1765WAT     H1 5814   4.320   5.176   1.143
 1765WAT     H2 5815   4.421   5.106   1.053
 1766WAT      O 5816   4.590   5.082   1.032
 1766WAT     H1 5817   4.652   5.114   0.965
 1766WAT     H2 5818   4.645   5.034   1.094
 1767WAT      O 5819   3.643   4.950   1.043
 1767WAT     H1 5820   3.697   4.932   0.967
 1767WAT     H2 5821   3.649   4.871   1.097
 1768WAT      O 5822   4.664   4.939   0.664
 1768WAT     H1 5823   4.577   4.972   0.644
 1768WAT     H2 5824   4.653   4.891   0.747
 1769WAT      O 5825   4.755   5.159   0.803
 1769WAT     H1 5826   4.722   5.078   0.765
 1769WAT     H2 5827   4.850   5.155   0.790
 1770WAT      O 5828   4.439   5.030   0.558
 1770WAT     H1 5829   4.361   5.078   0.586
 1770WAT     H2 5830   4.410   4.940   0.547
 1771WAT      O 5831   4.894   5.101   0.363
 1771WAT     H1 5832   4.938   5.095   0.278
 1771WAT     H2 5833   4.867   5.192   0.370
 1772WAT      O 5834   4.678   4.939   0.233
 1772WAT     H1 5835   4.738   4.996   0.281
 1772WAT     H2 5836   4.604   4.995   0.211
 1773WAT      O 5837   4.043   5.015   1.213
 1773WAT     H1 5838   4.015   5.065   1.137
 1773WAT     H2 5839   4.081   4.935   1.177
 1774WAT      O 5840   4.703   4.957   1.271
 1774WAT     H1 5841   4.692   4.989   1.361
 1774WAT     H2 5842   4.785   4.997   1.242
 1775WAT      O 5843   4.593   3.881   5.817
 1775WAT     H1 5844   4.585   3.790   5.790
 1775WAT     H2 5845   4.552   3.931   5.747
 1776WAT      O 5846   4.407   4.059   6.005
 1776WAT     H1 5847   4.329   4.011   6.034
 1776WAT     H2 5848   4.472   3.991   5.988
 1777WAT      O 5849   4.809   4.500   5.883
 1777WAT     H1 5850   4.763   4.422   5.916
 1777WAT     H2 5851   4.890   4.502   5.934
 1778WAT      O 5852   3.806   4.494   6.113
 1778WAT     H1 5853   3.837   4.404   6.095
 1778WAT     H2 5854   3.881   4.549   6.090
 1779WAT      O 5855   3.649   3.586   5.472
 1779WAT     H1 5856   3.560   3.620   5.461
 1779WAT     H2 5857   3.678   3.566   5.382
 1780WAT      O 5858   3.446   3.846   6.060
 1780WAT     H1 5859   3.503   3.769   6.060
 1780WAT     H2 5860   3.446   3.876   5.969
 1781WAT      O 5861   4.431   4.728   5.845
 1781WAT     H1 5862   4.369   4.774   5.788
 1781WAT     H2 5863   4.517   4.744   5.805
 1782WAT      O 5864   4.351   4.326   6.006
 1782WAT     H1 5865   4.344   4.232   5.990
 1782WAT     H2 5866   4.427   4.335   6.063
 1783WAT      O 5867   4.454   3.607   6.029
 1783WAT     H1 5868   4.491   3.520   6.018
 1783WAT     H2 5869   4.444   3.641   5.940
 1784WAT      O 5870   3.867   3.444   5.575
 1784WAT     H1 5871   3.878   3.534   5.606
 1784WAT     H2 5872   3.776   3.440   5.546
 1785WAT      O 5873   4.832   3.357   5.722
 1785WAT     H1 5874   4.914   3.308   5.726
 1785WAT     H2 5875   4.835   3.416   5.797
 1786WAT      O 5876   4.051   3.741   6.008
 1786WAT     H1 5877   4.102   3.791   6.072
 1786WAT     H2 5878   4.104   3.664   5.991
 1787WAT      O 5879   4.518   4.216   5.585
 1787WAT     H1 5880   4.456   4.263   5.528
 1787WAT     H2 5881   4.569   4.286   5.626
 1788WAT      O 5882   4.856   3.551   5.999
 1788WAT     H1 5883   4.785   3.580   6.057
 1788WAT     H2 5884   4.892   3.632   5.963
 1789WAT      O 5885   3.455   4.285   5.322
 1789WAT     H1 5886   3.417   4.334   5.249
 1789WAT     H2 5887   3.481   4.352   5.385
 1790WAT      O 5888   5.163   3.495   6.038
 1790WAT     H1 5889   5.068   3.499   6.052
 1790WAT     H2 5890   5.195   3.577   6.077
 1791WAT      O 5891   4.216   3.125   5.868
 1791WAT     H1 5892   4.246   3.070   5.796
 1791WAT     H2 5893   4.123   3.139   5.850
 1792WAT      O 5894   4.771   4.697   6.097
 1792WAT     H1 5895   4.772   4.657   6.010
 1792WAT     H2 5896   4.716   4.774   6.087
 1793WAT      O 5897   4.900   4.369   5.606
 1793WAT     H1 5898   4.889   4.275   5.618
 1793WAT     H2 5899   4.900   4.405   5.695
 1794WAT      O 5900   4.455   3.932   5.542
 1794WAT     H1 5901   4.362   3.925   5.565
 1794WAT     H2 5902   4.470   4.026   5.530
 1795WAT      O 5903   4.453   3.559   5.241
 1795WAT     H1 5904   4.359   3.575   5.250
 1795WAT     H2 5905   4.485   3.631   5.187
 1796WAT      O 5906   4.857   4.088   5.592
 1796WAT     H1 5907   4.796   4.054   5.527
 1796WAT     H2 5908   4.856   4.024   5.663
 1797WAT      O 5909   4.015   3.984   5.820
 1797WAT     H1 5910   3.975   3.913   5.770
 1797WAT     H2 5911   4.024   3.950   5.909
 1798WAT      O 5912   4.062   4.353   6.036
 1798WAT     H1 5913   4.032   4.292   5.968
 1798WAT     H2 5914   4.157   4.357   6.025
 1799WAT      O 5915   4.675   4.012   5.293
 1799WAT     H1 5916   4.719   3.928   5.278
 1799WAT     H2 5917   4.746   4.075   5.301
 1800WAT      O 5918   4.486   4.506   5.690
 1800WAT     H1 5919   4.530   4.580   5.648
 1800WAT     H2 5920   4.480   4.530   5.782
 1801WAT      O 5921   5.033   3.137   5.124
 1801WAT     H1 5922   5.002   3.146   5.214
 1801WAT     H2 5923   5.109   3.195   5.119
 1802WAT      O 5924   3.685   3.874   5.570
 1802WAT     H1 5925   3.673   3.946   5.509
 1802WAT     H2 5926   3.654   3.797   5.522
 1803WAT      O 5927   3.573   4.361   5.792
 1803WAT     H1 5928   3.533   4.375   5.706
 1803WAT     H2 5929   3.663   4.333   5.771
 1804WAT      O 5930   4.753   4.804   5.425
 1804WAT     H1 5931   4.737   4.775   5.515
 1804WAT     H2 5932   4.736   4.727   5.372
 1805WAT      O 5933   4.001   4.782   5.603
 1805WAT     H1 5934   3.983   4.691   5.582
 1805WAT     H2 5935   3.915   4.818   5.627
 1806WAT      O 5936   4.723   4.555   5.281
 1806WAT     H1 5937   4.654   4.555   5.215
 1806WAT     H2 5938   4.797   4.513   5.238
 1807WAT      O 5939   4.680   4.718   5.689
 1807WAT     H1 5940   4.725   4.640   5.720
 1807WAT     H2 5941   4.713   4.789   5.743
 1808WAT      O 5942   3.932   3.208   5.908
 1808WAT     H1 5943   3.887   3.286   5.875
 1808WAT     H2 5944   3.988   3.240   5.979
 1809WAT      O 5945   4.243   3.170   5.396
 1809WAT     H1 5946   4.181   3.170   5.469
 1809WAT     H2 5947   4.235   3.084   5.357
 1810WAT      O 5948   4.136   3.263   6.094
 1810WAT     H1 5949   4.165   3.353   6.086
 1810WAT     H2 5950   4.190   3.214   6.033
 1811WAT      O 5951   3.911   3.720   5.681
 1811WAT     H1 5952   3.888   3.699   5.771
 1811WAT     H2 5953   3.833   3.764   5.646
 1812WAT      O 5954   4.634   3.721   5.541
 1812WAT     H1 5955   4.574   3.793   5.522
 1812WAT     H2 5956   4.689   3.715   5.463
 1813WAT      O 5957   4.495   3.585   5.744
 1813WAT     H1 5958   4.534   3.616   5.663
 1813WAT     H2 5959   4.531   3.497   5.755
 1814WAT      O 5960   3.398   3.244   5.966
 1814WAT     H1 5961   3.369   3.301   6.037
 1814WAT     H2 5962   3.473   3.196   6.002
 1815WAT      O 5963   3.417   3.638   5.087
 1815WAT     H1 5964   3.409   3.732   5.101
 1815WAT     H2 5965   3.382   3.624   4.999
 1816WAT      O 5966   4.197   3.511   5.994
 1816WAT     H1 5967   4.197   3.467   5.909
 1816WAT     H2 5968   4.286   3.544   6.005
 1817WAT      O 5969   3.782   3.500   5.890
 1817WAT     H1 5970   3.748   3.547   5.966
 1817WAT     H2 5971   3.706   3.454   5.854
 1818WAT      O 5972   4.203   3.611   5.293
 1818WAT     H1 5973   4.215   3.607   5.388
 1818WAT     H2 5974   4.165   3.698   5.277
 1819WAT      O 5975   4.104   3.842   5.233
 1819WAT     H1 5976   4.047   3.798   5.170
 1819WAT     H2 5977   4.175   3.878   5.179
 1820WAT      O 5978   3.513   3.392   5.782
 1820WAT     H1 5979   3.485   3.355   5.865
 1820WAT     H2 5980   3.507   3.319   5.720
 1821WAT      O 5981   3.859   4.242   5.460
 1821WAT     H1 5982   3.781   4.188   5.444
 1821WAT     H2 5983   3.932   4.190   5.426
 1822WAT      O 5984   4.935   4.142   6.039
 1822WAT     H1 5985   5.007   4.191   6.000
 1822WAT     H2 5986   4.914   4.074   5.975
 1823WAT      O 5987   4.481   3.281   5.454
 1823WAT     H1 5988   4.399   3.231   5.446
 1823WAT     H2 5989   4.461   3.365   5.412
 1824WAT      O 5990   4.752   3.718   5.283
 1824WAT     H1 5991   4.841   3.749   5.266
 1824WAT     H2 5992   4.749   3.631   5.244
 1825WAT      O 5993   3.863   4.209   5.824
 1825WAT     H1 5994   3.915   4.129   5.818
 1825WAT     H2 5995   3.818   4.203   5.908
 1826WAT      O 5996   4.352   4.336   5.351
 1826WAT     H1 5997   4.386   4.410   5.302
 1826WAT     H2 5998   4.269   4.367   5.387
 1827WAT      O 5999   4.979   3.849   5.230
 1827WAT     H1 6000   4.971   3.893   5.145
 1827WAT     H2 6001   5.051   3.895   5.273
 1828WAT      O 6002   5.082   4.535   5.503
 1828WAT     H1 6003   5.018   4.469   5.530
 1828WAT     H2 6004   5.044   4.575   5.425
 1829WAT      O 6005   4.640   4.268   5.888
 1829WAT     H1 6006   4.675   4.208   5.822
 1829WAT     H2 6007   4.552   4.235   5.905
 1830WAT      O 6008   4.249   4.344   5.628
 1830WAT     H1 6009   4.317   4.398   5.666
 1830WAT     H2 6010   4.170   4.398   5.632
 1831WAT      O 6011   3.463   3.905   5.177
 1831WAT     H1 6012   3.550   3.934   5.206
 1831WAT     H2 6013   3.414   3.987   5.166
 1832WAT      O 6014   4.179   4.044   5.590
 1832WAT     H1 6015   4.225   4.125   5.612
 1832WAT     H2 6016   4.144   4.012   5.673
 1833WAT      O 6017   3.769   3.079   5.637
 1833WAT     H1 6018   3.756   3.078   5.732
 1833WAT     H2 6019   3.687   3.112   5.602
 1834WAT      O 6020   4.921   4.424   5.157
 1834WAT     H1 6021   4.899   4.352   5.216
 1834WAT     H2 6022   4.882   4.399   5.073
 1835WAT      O 6023   3.499   4.827   5.234
 1835WAT     H1 6024   3.535   4.887   5.169
 1835WAT     H2 6025   3.485   4.881   5.311
 1836WAT      O 6026   4.879   4.216   5.323
 1836WAT     H1 6027   4.851   4.262   5.402
 1836WAT     H2 6028   4.959   4.170   5.350
 1837WAT      O 6029   4.101   4.565   5.316
 1837WAT     H1 6030   4.100   4.638   5.254
 1837WAT     H2 6031   4.009   4.540   5.325
 1838WAT      O 6032   3.661   4.087   5.390
 1838WAT     H1 6033   3.600   4.161   5.391
 1838WAT     H2 6034   3.709   4.096   5.308
 1839WAT      O 6035   4.955   3.399   5.439
 1839WAT     H1 6036   4.892   3.410   5.367
 1839WAT     H2 6037   4.906   3.421   5.518
 1840WAT      O 6038   4.400   4.571   5.182
 1840WAT     H1 6039   4.410   4.551   5.089
 1840WAT     H2 6040   4.310   4.546   5.203
 1841WAT      O 6041   4.152   3.627   5.580
 1841WAT     H1 6042   4.081   3.674   5.624
 1841WAT     H2 6043   4.180   3.561   5.644
 1842WAT      O 6044   4.555   3.300   5.724
 1842WAT     H1 6045   4.543   3.301   5.629
 1842WAT     H2 6046   4.650   3.304   5.736
 1843WAT      O 6047   4.264   4.823   5.652
 1843WAT     H1 6048   4.289   4.819   5.559
 1843WAT     H2 6049   4.169   4.810   5.651
 1844WAT      O 6050   3.972   3.458   5.318
 1844WAT     H1 6051   4.057   3.502   5.311
 1844WAT     H2 6052   3.936   3.489   5.401
 1845WAT      O 6053   4.864   3.915   5.809
 1845WAT     H1 6054   4.770   3.917   5.827
 1845WAT     H2 6055   4.896   3.836   5.854
 1846WAT      O 6056   3.862   4.083   5.165
 1846WAT     H1 6057   3.939   4.072   5.221
 1846WAT     H2 6058   3.870   4.014   5.100
 1847WAT      O 6059   3.732   3.826   5.234
 1847WAT     H1 6060   3.740   3.732   5.245
 1847WAT     H2 6061   3.821   3.860   5.244
 1848WAT      O 6062   5.065   4.632   5.977
 1848WAT     H1 6063   5.077   4.714   6.024
 1848WAT     H2 6064   5.151   4.611   5.942
 1849WAT      O 6065   3.812   4.841   5.944
 1849WAT     H1 6066   3.885   4.787   5.971
 1849WAT     H2 6067   3.850   4.928   5.930
 1850WAT      O 6068   3.500   4.448   5.531
 1850WAT     H1 6069   3.408   4.472   5.530
 1850WAT     H2 6070   3.547   4.531   5.519
 1851WAT      O 6071   4.123   4.759   5.126
 1851WAT     H1 6072   4.202   4.788   5.081
 1851WAT     H2 6073   4.071   4.716   5.058
 1852WAT      O 6074   5.028   4.681   5.268
 1852WAT     H1 6075   5.000   4.640   5.187
 1852WAT     H2 6076   5.008   4.774   5.256
 1853WAT      O 6077   4.175   4.281   5.113
 1853WAT     H1 6078   4.164   4.219   5.185
 1853WAT     H2 6079   4.158   4.228   5.034
 1854WAT      O 6080   4.499   4.187   5.173
 1854WAT     H1 6081   4.444   4.232   5.237
 1854WAT     H2 6082   4.561   4.136   5.225
 1855WAT      O 6083   4.065   4.083   5.363
 1855WAT     H1 6084   4.108   4.066   5.447
 1855WAT     H2 6085   4.078   4.002   5.313
 1856WAT      O 6086   4.317   3.985   5.087
 1856WAT     H1 6087   4.369   3.914   5.051
 1856WAT     H2 6088   4.381   4.049   5.117
 1857WAT      O 6089   3.955   3.690   5.057
 1857WAT     H1 6090   3.935   3.604   5.093
 1857WAT     H2 6091   3.938   3.682   4.963
 1858WAT      O 6092   4.703   3.171   5.310
 1858WAT     H1 6093   4.731   3.087   5.346
 1858WAT     H2 6094   4.625   3.195   5.361
 1859WAT      O 6095   3.835   3.400   5.056
 1859WAT     H1 6096   3.865   3.401   4.965
 1859WAT     H2 6097   3.909   3.365   5.106
 1860WAT      O 6098   4.157   3.295   5.155
 1860WAT     H1 6099   4.122   3.227   5.097
 1860WAT     H2 6100   4.177   3.248   5.236
 1861WAT      O 6101   4.373   4.793   5.316
 1861WAT     H1 6102   4.463   4.827   5.319
 1861WAT     H2 6103   4.376   4.721   5.254
 1862WAT      O 6104   3.737   4.331   5.139
 1862WAT     H1 6105   3.781   4.385   5.205
 1862WAT     H2 6106   3.786   4.248   5.140
 1863WAT      O 6107   3.459   4.610   5.884
 1863WAT     H1 6108   3.492   4.523   5.861
 1863WAT     H2 6109   3.501   4.630   5.968
 1864WAT      O 6110   3.918   4.443   5.650
 1864WAT     H1 6111   3.888   4.430   5.741
 1864WAT     H2 6112   3.908   4.357   5.610
 1865WAT      O 6113   5.195   4.421   5.121
 1865WAT     H1 6114   5.112   4.427   5.168
 1865WAT     H2 6115   5.213   4.510   5.090
 1866WAT      O 6116   5.141   4.095   5.371
 1866WAT     H1 6117   5.217   4.152   5.382
 1866WAT     H2 6118   5.142   4.038   5.448
 1867WAT      O 6119   3.491   3.947   5.794
 1867WAT     H1 6120   3.425   3.921   5.730
 1867WAT     H2 6121   3.574   3.936   5.749
 1868WAT      O 6122   5.241   4.181   5.856
 1868WAT     H1 6123   5.278   4.102   5.815
 1868WAT     H2 6124   5.305   4.249   5.838
 1869WAT      O 6125   5.146   4.124   5.087
 1869WAT     H1 6126   5.173   4.215   5.074
 1869WAT     H2 6127   5.127   4.118   5.180
 1870WAT      O 6128   4.786   3.427   5.216
 1870WAT     H1 6129   4.827   3.408   5.132
 1870WAT     H2 6130   4.755   3.342   5.247
 1871WAT      O 6131   5.135   3.918   5.586
 1871WAT     H1 6132   5.098   3.841   5.543
 1871WAT     H2 6133   5.063   3.956   5.635
 1872WAT      O 6134   3.412   3.668   5.388
 1872WAT     H1 6135   3.322   3.695   5.371
 1872WAT     H2 6136   3.460   3.696   5.310
 1873WAT      O 6137   5.063   3.741   5.916
 1873WAT     H1 6138   5.115   3.691   5.853
 1873WAT     H2 6139   5.122   3.754   5.991
 1874WAT      O 6140   3.666   3.574   5.179
 1874WAT     H1 6141   3.737   3.532   5.131
 1874WAT     H2 6142   3.595   3.581   5.116
 1875WAT      O 6143   3.631   3.179   5.083
 1875WAT     H1 6144   3.703   3.234   5.115
 1875WAT     H2 6145   3.658   3.152   4.996
 1876WAT      O 6146   5.012   3.666   5.510
 1876WAT     H1 6147   5.062   3.643   5.589
 1876WAT     H2 6148   4.992   3.583   5.468
 1877WAT      O 6149   5.155   3.530   5.763
 1877WAT     H1 6150   5.144   3.515   5.857
 1877WAT     H2 6151   5.231   3.477   5.739
 1878WAT      O 6152   5.244   3.313   5.088
 1878WAT     H1 6153   5.336   3.300   5.067
 1878WAT     H2 6154   5.242   3.321   5.183
 1879WAT      O 6155   5.251   3.390   5.350
 1879WAT     H1 6156   5.172   3.384   5.403
 1879WAT     H2 6157   5.272   3.484   5.349
 1880WAT      O 6158   4.945   4.794   5.749
 1880WAT     H1 6159   5.005   4.762   5.682
 1880WAT     H2 6160   4.971   4.747   5.829
 1881WAT      O 6161   5.000   4.859   6.132
 1881WAT     H1 6162   4.954   4.934   6.095
 1881WAT     H2 6163   4.938   4.787   6.127
 1882WAT      O 6164   4.043   4.690   6.050
 1882WAT     H1 6165   4.095   4.629   5.997
 1882WAT     H2 6166   4.108   4.740   6.099
 1883WAT      O 6167   4.894   3.223   5.995
 1883WAT     H1 6168   4.938   3.218   5.910
 1883WAT     H2 6169   4.867   3.315   6.002
 1884WAT      O 6170   5.081   3.186   5.796
 1884WAT     H1 6171   5.075   3.092   5.781
 1884WAT     H2 6172   5.159   3.197   5.851
 1885WAT      O 6173   3.511   4.800   5.692
 1885WAT     H1 6174   3.494   4.737   5.762
 1885WAT     H2 6175   3.425   4.821   5.657
 1886WAT      O 6176   3.574   3.183   5.443
 1886WAT     H1 6177   3.649   3.195   5.385
 1886WAT     H2 6178   3.527   3.267   5.438
 1887WAT      O 6179   4.228   3.395   5.742
 1887WAT     H1 6180   4.146   3.357   5.708
 1887WAT     H2 6181   4.278   3.319   5.772
 1888WAT      O 6182   4.678   3.061   5.866
 1888WAT     H1 6183   4.738   3.118   5.913
 1888WAT     H2 6184   4.604   3.118   5.843
 1889WAT      O 6185   4.992   3.101   5.393
 1889WAT     H1 6186   5.012   3.191   5.420
 1889WAT     H2 6187   4.914   3.078   5.442
 1890WAT      O 6188   3.672   4.670   5.437
 1890WAT     H1 6189   3.619   4.708   5.367
 1890WAT     H2 6190   3.664   4.732   5.509
 1891WAT      O 6191   3.811   3.236   5.297
 1891WAT     H1 6192   3.864   3.157   5.284
 1891WAT     H2 6193   3.874   3.304   5.320
 1892WAT      O 6194   4.030   3.210   5.602
 1892WAT     H1 6195   3.967   3.140   5.619
 1892WAT     H2 6196   3.976   3.286   5.581
 1893WAT      O 6197   5.148   4.825   5.569
 1893WAT     H1 6198   5.165   4.757   5.505
 1893WAT     H2 6199   5.078   4.878   5.530
 1894WAT      O 6200   3.932   4.864   5.324
 1894WAT     H1 6201   4.005   4.836   5.270
 1894WAT     H2 6202   3.958   4.841   5.413
 1895WAT      O 6203   3.848   4.476   5.325
 1895WAT     H1 6204   3.785   4.523   5.380
 1895WAT     H2 6205   3.859   4.392   5.368
 1896WAT      O 6206   4.809   4.500   4.006
 1896WAT     H1 6207   4.763   4.422   4.039
 1896WAT     H2 6208   4.890   4.502   4.057
 1897WAT      O 6209   4.431   4.728   3.968
 1897WAT     H1 6210   4.369   4.774   3.911
 1897WAT     H2 6211   4.517   4.744   3.928
 1898WAT      O 6212   4.351   4.326   4.129
 1898WAT     H1 6213   4.344   4.232   4.113
 1898WAT     H2 6214   4.427   4.335   4.186
 1899WAT      O 6215   4.832   3.357   3.845
 1899WAT     H1 6216   4.914   3.308   3.849
 1899WAT     H2 6217   4.835   3.416   3.920
 1900WAT      O 6218   5.261   3.558   4.501
 1900WAT     H1 6219   5.191   3.597   4.449
 1900WAT     H2 6220   5.288   3.628   4.561
 1901WAT      O 6221   3.879   3.205   4.557
 1901WAT     H1 6222   3.879   3.257   4.477
 1901WAT     H2 6223   3.796   3.158   4.555
 1902WAT      O 6224   5.017   4.512   4.348
 1902WAT     H1 6225   4.949   4.579   4.347
 1902WAT     H2 6226   5.071   4.532   4.272
 1903WAT      O 6227   5.163   3.495   4.161
 1903WAT     H1 6228   5.068   3.499   4.174
 1903WAT     H2 6229   5.195   3.577   4.200
 1904WAT      O 6230   4.216   3.125   3.991
 1904WAT     H1 6231   4.246   3.070   3.919
 1904WAT     H2 6232   4.123   3.139   3.972
 1905WAT      O 6233   4.771   4.697   4.220
 1905WAT     H1 6234   4.772   4.657   4.133
 1905WAT     H2 6235   4.716   4.774   4.209
 1906WAT      O 6236   4.900   4.369   3.729
 1906WAT     H1 6237   4.889   4.275   3.741
 1906WAT     H2 6238   4.900   4.405   3.817
 1907WAT      O 6239   5.105   4.027   4.362
 1907WAT     H1 6240   5.023   4.034   4.314
 1907WAT     H2 6241   5.165   4.086   4.315
 1908WAT      O 6242   4.802   3.706   4.456
 1908WAT     H1 6243   4.760   3.788   4.482
 1908WAT     H2 6244   4.729   3.647   4.437
 1909WAT      O 6245   4.871   4.710   4.525
 1909WAT     H1 6246   4.823   4.791   4.506
 1909WAT     H2 6247   4.802   4.645   4.540
 1910WAT      O 6248   3.971   4.327   4.824
 1910WAT     H1 6249   3.881   4.349   4.849
 1910WAT     H2 6250   3.974   4.339   4.729
 1911WAT      O 6251   4.486   4.506   3.812
 1911WAT     H1 6252   4.530   4.580   3.771
 1911WAT     H2 6253   4.480   4.530   3.904
 1912WAT      O 6254   4.034   4.608   4.902
 1912WAT     H1 6255   4.031   4.649   4.816
 1912WAT     H2 6256   4.017   4.515   4.886
 1913WAT      O 6257   5.033   3.137   3.247
 1913WAT     H1 6258   5.002   3.146   3.337
 1913WAT     H2 6259   5.109   3.195   3.242
 1914WAT      O 6260   5.229   4.686   5.032
 1914WAT     H1 6261   5.276   4.734   5.100
 1914WAT     H2 6262   5.291   4.680   4.959
 1915WAT      O 6263   5.169   4.406   4.748
 1915WAT     H1 6264   5.182   4.382   4.656
 1915WAT     H2 6265   5.173   4.322   4.795
 1916WAT      O 6266   4.555   4.776   4.605
 1916WAT     H1 6267   4.607   4.767   4.685
 1916WAT     H2 6268   4.471   4.810   4.634
 1917WAT      O 6269   4.753   4.804   3.548
 1917WAT     H1 6270   4.737   4.775   3.638
 1917WAT     H2 6271   4.736   4.727   3.494
 1918WAT      O 6272   4.001   4.782   3.725
 1918WAT     H1 6273   3.983   4.691   3.704
 1918WAT     H2 6274   3.915   4.818   3.749
 1919WAT      O 6275   4.723   4.555   3.404
 1919WAT     H1 6276   4.654   4.555   3.338
 1919WAT     H2 6277   4.797   4.513   3.361
 1920WAT      O 6278   4.680   4.718   3.811
 1920WAT     H1 6279   4.725   4.640   3.843
 1920WAT     H2 6280   4.713   4.789   3.866
 1921WAT      O 6281   5.154   3.611   4.844
 1921WAT     H1 6282   5.093   3.662   4.792
 1921WAT     H2 6283   5.122   3.521   4.839
 1922WAT      O 6284   3.455   4.295   4.527
 1922WAT     H1 6285   3.471   4.248   4.445
 1922WAT     H2 6286   3.501   4.244   4.594
 1923WAT      O 6287   4.360   3.495   4.591
 1923WAT     H1 6288   4.314   3.516   4.672
 1923WAT     H2 6289   4.320   3.413   4.561
 1924WAT      O 6290   4.861   3.617   4.704
 1924WAT     H1 6291   4.775   3.587   4.736
 1924WAT     H2 6292   4.845   3.641   4.613
 1925WAT      O 6293   4.570   3.767   4.914
 1925WAT     H1 6294   4.603   3.684   4.880
 1925WAT     H2 6295   4.649   3.819   4.929
 1926WAT      O 6296   4.243   3.170   3.519
 1926WAT     H1 6297   4.181   3.170   3.591
 1926WAT     H2 6298   4.235   3.084   3.479
 1927WAT      O 6299   4.136   3.263   4.217
 1927WAT     H1 6300   4.165   3.353   4.209
 1927WAT     H2 6301   4.190   3.214   4.155
 1928WAT      O 6302   4.155   3.810   4.870
 1928WAT     H1 6303   4.145   3.716   4.855
 1928WAT     H2 6304   4.239   3.832   4.831
 1929WAT      O 6305   3.668   3.451   4.685
 1929WAT     H1 6306   3.629   3.536   4.706
 1929WAT     H2 6307   3.599   3.388   4.705
 1930WAT      O 6308   4.325   3.460   4.992
 1930WAT     H1 6309   4.256   3.441   5.056
 1930WAT     H2 6310   4.400   3.488   5.046
 1931WAT      O 6311   4.599   3.389   4.217
 1931WAT     H1 6312   4.601   3.434   4.302
 1931WAT     H2 6313   4.574   3.299   4.239
 1932WAT      O 6314   4.942   3.130   4.801
 1932WAT     H1 6315   4.975   3.057   4.854
 1932WAT     H2 6316   4.946   3.099   4.711
 1933WAT      O 6317   3.612   4.233   4.743
 1933WAT     H1 6318   3.574   4.169   4.803
 1933WAT     H2 6319   3.643   4.303   4.800
 1934WAT      O 6320   3.859   4.242   3.583
 1934WAT     H1 6321   3.781   4.188   3.567
 1934WAT     H2 6322   3.932   4.190   3.549
 1935WAT      O 6323   4.473   4.149   4.751
 1935WAT     H1 6324   4.466   4.057   4.725
 1935WAT     H2 6325   4.410   4.159   4.822
 1936WAT      O 6326   3.612   3.905   4.638
 1936WAT     H1 6327   3.576   3.972   4.696
 1936WAT     H2 6328   3.582   3.822   4.675
 1937WAT      O 6329   3.932   3.951   4.926
 1937WAT     H1 6330   3.902   3.966   4.836
 1937WAT     H2 6331   4.009   3.895   4.917
 1938WAT      O 6332   4.466   4.431   4.726
 1938WAT     H1 6333   4.467   4.338   4.704
 1938WAT     H2 6334   4.395   4.440   4.790
 1939WAT      O 6335   5.087   4.095   4.660
 1939WAT     H1 6336   5.015   4.154   4.641
 1939WAT     H2 6337   5.140   4.094   4.580
 1940WAT      O 6338   5.082   4.535   3.625
 1940WAT     H1 6339   5.018   4.469   3.653
 1940WAT     H2 6340   5.044   4.575   3.548
 1941WAT      O 6341   4.409   4.595   4.435
 1941WAT     H1 6342   4.474   4.616   4.503
 1941WAT     H2 6343   4.446   4.519   4.390
 1942WAT      O 6344   4.537   4.396   4.307
 1942WAT     H1 6345   4.601   4.325   4.318
 1942WAT     H2 6346   4.589   4.473   4.289
 1943WAT      O 6347   4.921   4.424   3.279
 1943WAT     H1 6348   4.899   4.352   3.338
 1943WAT     H2 6349   4.882   4.399   3.195
 1944WAT      O 6350   4.714   4.475   4.627
 1944WAT     H1 6351   4.748   4.534   4.695
 1944WAT     H2 6352   4.622   4.462   4.650
 1945WAT      O 6353   3.499   4.827   3.357
 1945WAT     H1 6354   3.535   4.887   3.291
 1945WAT     H2 6355   3.485   4.881   3.434
 1946WAT      O 6356   3.469   3.254   4.705
 1946WAT     H1 6357   3.398   3.274   4.766
 1946WAT     H2 6358   3.511   3.177   4.743
 1947WAT      O 6359   4.879   4.216   3.445
 1947WAT     H1 6360   4.851   4.262   3.524
 1947WAT     H2 6361   4.959   4.170   3.472
 1948WAT      O 6362   3.498   4.653   4.804
 1948WAT     H1 6363   3.509   4.559   4.790
 1948WAT     H2 6364   3.433   4.680   4.739
 1949WAT      O 6365   4.297   4.480   4.944
 1949WAT     H1 6366   4.265   4.408   4.999
 1949WAT     H2 6367   4.229   4.548   4.951
 1950WAT      O 6368   4.101   4.565   3.438
 1950WAT     H1 6369   4.100   4.638   3.377
 1950WAT     H2 6370   4.009   4.540   3.448
 1951WAT      O 6371   4.618   3.504   4.480
 1951WAT     H1 6372   4.655   3.422   4.513
 1951WAT     H2 6373   4.532   3.510   4.522
 1952WAT      O 6374   4.955   3.399   3.561
 1952WAT     H1 6375   4.892   3.410   3.490
 1952WAT     H2 6376   4.906   3.421   3.640
 1953WAT      O 6377   4.400   4.571   3.305
 1953WAT     H1 6378   4.410   4.551   3.212
 1953WAT     H2 6379   4.310   4.546   3.325
 1954WAT      O 6380   4.264   4.823   3.774
 1954WAT     H1 6381   4.289   4.819   3.682
 1954WAT     H2 6382   4.169   4.810   3.773
 1955WAT      O 6383   5.035   3.391   4.587
 1955WAT     H1 6384   4.985   3.465   4.621
 1955WAT     H2 6385   5.117   3.430   4.555
 1956WAT      O 6386   5.065   4.632   4.099
 1956WAT     H1 6387   5.077   4.714   4.146
 1956WAT     H2 6388   5.151   4.611   4.064
 1957WAT      O 6389   3.812   4.841   4.066
 1957WAT     H1 6390   3.885   4.787   4.093
 1957WAT     H2 6391   3.850   4.928   4.052
 1958WAT      O 6392   3.500   4.448   3.654
 1958WAT     H1 6393   3.408   4.472   3.653
 1958WAT     H2 6394   3.547   4.531   3.642
 1959WAT      O 6395   3.712   4.760   4.985
 1959WAT     H1 6396   3.792   4.792   5.027
 1959WAT     H2 6397   3.661   4.724   5.057
 1960WAT      O 6398   4.123   4.759   3.249
 1960WAT     H1 6399   4.202   4.788   3.203
 1960WAT     H2 6400   4.071   4.716   3.181
 1961WAT      O 6401   4.596   4.371   4.980
 1961WAT     H1 6402   4.535   4.373   4.906
 1961WAT     H2 6403   4.566   4.298   5.034
 1962WAT      O 6404   4.739   4.744   4.841
 1962WAT     H1 6405   4.834   4.735   4.836
 1962WAT     H2 6406   4.724   4.810   4.908
 1963WAT      O 6407   5.028   4.681   3.391
 1963WAT     H1 6408   5.000   4.640   3.310
 1963WAT     H2 6409   5.008   4.774   3.379
 1964WAT      O 6410   3.484   4.009   4.880
 1964WAT     H1 6411   3.535   3.951   4.937
 1964WAT     H2 6412   3.410   4.037   4.933
 1965WAT      O 6413   4.175   4.281   3.235
 1965WAT     H1 6414   4.164   4.219   3.308
 1965WAT     H2 6415   4.158   4.228   3.157
 1966WAT      O 6416   4.190   4.149   4.833
 1966WAT     H1 6417   4.113   4.206   4.825
 1966WAT     H2 6418   4.208   4.120   4.744
 1967WAT      O 6419   4.904   4.322   4.889
 1967WAT     H1 6420   4.978   4.356   4.838
 1967WAT     H2 6421   4.828   4.339   4.833
 1968WAT      O 6422   3.688   3.823   4.969
 1968WAT     H1 6423   3.692   3.793   5.060
 1968WAT     H2 6424   3.773   3.863   4.953
 1969WAT      O 6425   4.771   4.128   4.742
 1969WAT     H1 6426   4.813   4.143   4.827
 1969WAT     H2 6427   4.678   4.140   4.759
 1970WAT      O 6428   4.819   3.862   4.943
 1970WAT     H1 6429   4.877   3.786   4.934
 1970WAT     H2 6430   4.836   3.915   4.865
 1971WAT      O 6431   3.930   3.377   4.774
 1971WAT     H1 6432   3.921   3.316   4.701
 1971WAT     H2 6433   3.872   3.450   4.751
 1972WAT      O 6434   4.207   3.233   4.477
 1972WAT     H1 6435   4.162   3.235   4.393
 1972WAT     H2 6436   4.144   3.193   4.537
 1973WAT      O 6437   4.481   3.896   4.678
 1973WAT     H1 6438   4.493   3.836   4.752
 1973WAT     H2 6439   4.567   3.900   4.636
 1974WAT      O 6440   4.715   3.951   4.535
 1974WAT     H1 6441   4.662   4.004   4.475
 1974WAT     H2 6442   4.749   4.015   4.598
 1975WAT      O 6443   4.033   4.753   4.651
 1975WAT     H1 6444   3.979   4.826   4.619
 1975WAT     H2 6445   4.058   4.706   4.572
 1976WAT      O 6446   4.158   3.550   4.803
 1976WAT     H1 6447   4.217   3.519   4.872
 1976WAT     H2 6448   4.076   3.503   4.819
 1977WAT      O 6449   4.640   3.512   4.827
 1977WAT     H1 6450   4.571   3.446   4.820
 1977WAT     H2 6451   4.712   3.467   4.871
 1978WAT      O 6452   4.703   3.171   3.433
 1978WAT     H1 6453   4.731   3.087   3.468
 1978WAT     H2 6454   4.625   3.195   3.484
 1979WAT      O 6455   4.318   4.877   4.677
 1979WAT     H1 6456   4.311   4.967   4.707
 1979WAT     H2 6457   4.228   4.845   4.674
 1980WAT      O 6458   4.157   3.295   3.277
 1980WAT     H1 6459   4.122   3.227   3.219
 1980WAT     H2 6460   4.177   3.248   3.359
 1981WAT      O 6461   4.373   4.793   3.439
 1981WAT     H1 6462   4.463   4.827   3.441
 1981WAT     H2 6463   4.376   4.721   3.376
 1982WAT      O 6464   3.459   4.610   4.007
 1982WAT     H1 6465   3.492   4.523   3.984
 1982WAT     H2 6466   3.501   4.630   4.090
 1983WAT      O 6467   3.918   4.443   3.773
 1983WAT     H1 6468   3.888   4.430   3.863
 1983WAT     H2 6469   3.908   4.357   3.732
 1984WAT      O 6470   3.507   4.696   4.281
 1984WAT     H1 6471   3.464   4.714   4.364
 1984WAT     H2 6472   3.564   4.772   4.267
 1985WAT      O 6473   5.071   4.646   4.710
 1985WAT     H1 6474   5.011   4.652   4.635
 1985WAT     H2 6475   5.084   4.552   4.723
 1986WAT      O 6476   5.195   4.421   3.243
 1986WAT     H1 6477   5.112   4.427   3.290
 1986WAT     H2 6478   5.213   4.510   3.213
 1987WAT      O 6479   5.141   4.095   3.494
 1987WAT     H1 6480   5.217   4.152   3.504
 1987WAT     H2 6481   5.142   4.038   3.571
 1988WAT      O 6482   5.241   4.181   3.978
 1988WAT     H1 6483   5.278   4.102   3.937
 1988WAT     H2 6484   5.305   4.249   3.960
 1989WAT      O 6485   4.940   4.319   4.519
 1989WAT     H1 6486   4.858   4.362   4.546
 1989WAT     H2 6487   4.980   4.380   4.458
 1990WAT      O 6488   5.146   4.124   3.209
 1990WAT     H1 6489   5.173   4.215   3.197
 1990WAT     H2 6490   5.127   4.118   3.303
 1991WAT      O 6491   4.786   3.427   3.339
 1991WAT     H1 6492   4.827   3.408   3.255
 1991WAT     H2 6493   4.755   3.342   3.370
 1992WAT      O 6494   5.074   3.833   4.672
 1992WAT     H1 6495   5.051   3.810   4.582
 1992WAT     H2 6496   5.101   3.925   4.668
 1993WAT      O 6497   3.550   3.677   4.761
 1993WAT     H1 6498   3.460   3.674   4.795
 1993WAT     H2 6499   3.604   3.697   4.838
 1994WAT      O 6500   4.918   3.355   4.950
 1994WAT     H1 6501   5.006   3.356   4.988
 1994WAT     H2 6502   4.920   3.282   4.889
 1995WAT      O 6503   5.081   3.749   4.391
 1995WAT     H1 6504   4.986   3.746   4.402
 1995WAT     H2 6505   5.099   3.840   4.367
 1996WAT      O 6506   5.155   3.530   3.886
 1996WAT     H1 6507   5.144   3.515   3.980
 1996WAT     H2 6508   5.231   3.477   3.862
 1997WAT      O 6509   4.990   3.124   4.532
 1997WAT     H1 6510   5.053   3.185   4.568
 1997WAT     H2 6511   5.004   3.128   4.437
 1998WAT      O 6512   5.244   3.313   3.210
 1998WAT     H1 6513   5.336   3.300   3.189
 1998WAT     H2 6514   5.242   3.321   3.305
 1999WAT      O 6515   5.251   3.390   3.473
 1999WAT     H1 6516   5.172   3.384   3.526
 1999WAT     H2 6517   5.272   3.484   3.472
 2000WAT      O 6518   4.945   4.794   3.872
 2000WAT     H1 6519   5.005   4.762   3.804
 2000WAT     H2 6520   4.971   4.747   3.951
 2001WAT      O 6521   3.575   3.120   4.470
 2001WAT     H1 6522   3.540   3.166   4.547
 2001WAT     H2 6523   3.542   3.031   4.479
 2002WAT      O 6524   3.736   4.437   4.887
 2002WAT     H1 6525   3.732   4.400   4.975
 2002WAT     H2 6526   3.749   4.531   4.901
 2003WAT      O 6527   4.106   4.593   4.447
 2003WAT     H1 6528   4.082   4.620   4.358
 2003WAT     H2 6529   4.200   4.610   4.453
 2004WAT      O 6530   4.327   3.239   4.823
 2004WAT     H1 6531   4.320   3.298   4.898
 2004WAT     H2 6532   4.421   3.228   4.808
 2005WAT      O 6533   4.590   3.205   4.787
 2005WAT     H1 6534   4.652   3.237   4.720
 2005WAT     H2 6535   4.645   3.156   4.849
 2006WAT      O 6536   5.232   4.795   4.527
 2006WAT     H1 6537   5.183   4.835   4.455
 2006WAT     H2 6538   5.171   4.732   4.567
 2007WAT      O 6539   3.643   3.073   4.798
 2007WAT     H1 6540   3.697   3.055   4.722
 2007WAT     H2 6541   3.649   2.994   4.852
 2008WAT      O 6542   3.720   4.732   4.599
 2008WAT     H1 6543   3.660   4.719   4.673
 2008WAT     H2 6544   3.719   4.648   4.552
 2009WAT      O 6545   4.664   3.061   4.419
 2009WAT     H1 6546   4.577   3.095   4.399
 2009WAT     H2 6547   4.653   3.014   4.502
 2010WAT      O 6548   4.755   3.282   4.558
 2010WAT     H1 6549   4.722   3.200   4.520
 2010WAT     H2 6550   4.850   3.278   4.545
 2011WAT      O 6551   5.000   4.859   4.255
 2011WAT     H1 6552   4.954   4.934   4.218
 2011WAT     H2 6553   4.938   4.787   4.249
 2012WAT      O 6554   4.043   4.690   4.173
 2012WAT     H1 6555   4.095   4.629   4.120
 2012WAT     H2 6556   4.108   4.740   4.222
 2013WAT      O 6557   4.317   4.779   4.255
 2013WAT     H1 6558   4.346   4.754   4.168
 2013WAT     H2 6559   4.369   4.724   4.314
 2014WAT      O 6560   4.439   3.153   4.313
 2014WAT     H1 6561   4.361   3.200   4.341
 2014WAT     H2 6562   4.410   3.062   4.302
 2015WAT      O 6563   4.894   3.223   4.118
 2015WAT     H1 6564   4.938   3.218   4.033
 2015WAT     H2 6565   4.867   3.315   4.125
 2016WAT      O 6566   5.081   3.186   3.919
 2016WAT     H1 6567   5.075   3.092   3.904
 2016WAT     H2 6568   5.159   3.197   3.973
 2017WAT      O 6569   3.511   4.800   3.815
 2017WAT     H1 6570   3.494   4.737   3.885
 2017WAT     H2 6571   3.425   4.821   3.780
 2018WAT      O 6572   4.678   3.061   3.988
 2018WAT     H1 6573   4.738   3.118   4.036
 2018WAT     H2 6574   4.604   3.118   3.966
 2019WAT      O 6575   4.992   3.101   3.516
 2019WAT     H1 6576   5.012   3.191   3.542
 2019WAT     H2 6577   4.914   3.078   3.565
 2020WAT      O 6578   3.672   4.670   3.559
 2020WAT     H1 6579   3.619   4.708   3.489
 2020WAT     H2 6580   3.664   4.732   3.632
 2021WAT      O 6581   4.324   4.871   4.992
 2021WAT     H1 6582   4.417   4.848   4.996
 2021WAT     H2 6583   4.323   4.954   4.944
 2022WAT      O 6584   5.148   4.825   3.692
 2022WAT     H1 6585   5.165   4.757   3.627
 2022WAT     H2 6586   5.078   4.878   3.652
 2023WAT      O 6587   4.043   3.138   4.968
 2023WAT     H1 6588   4.015   3.188   4.892
 2023WAT     H2 6589   4.081   3.058   4.932
 2024WAT      O 6590   3.932   4.864   3.447
 2024WAT     H1 6591   4.005   4.836   3.392
 2024WAT     H2 6592   3.958   4.841   3.536
 2025WAT      O 6593   3.848   4.476   3.447
 2025WAT     H1 6594   3.785   4.523   3.502
 2025WAT     H2 6595   3.859   4.392   3.491
 2026WAT      O 6596   4.703   3.079   5.026
 2026WAT     H1 6597   4.692   3.111   5.116
 2026WAT     H2 6598   4.785   3.119   4.996
 2027WAT      O 6599   4.981   4.794   4.974
 2027WAT     H1 6600   5.060   4.744   4.954
 2027WAT     H2 6601   5.010   4.862   5.035
 2028WAT      O 6602   4.593   3.881   2.062
 2028WAT     H1 6603   4.585   3.790   2.035
 2028WAT     H2 6604   4.552   3.931   1.992
 2029WAT      O 6605   4.407   4.059   2.251
 2029WAT     H1 6606   4.329   4.011   2.280
 2029WAT     H2 6607   4.472   3.991   2.233
 2030WAT      O 6608   3.808   4.090   2.338
 2030WAT     H1 6609   3.725   4.065   2.378
 2030WAT     H2 6610   3.869   4.097   2.412
 2031WAT      O 6611   4.809   4.500   2.129
 2031WAT     H1 6612   4.763   4.422   2.161
 2031WAT     H2 6613   4.890   4.502   2.179
 2032WAT      O 6614   3.806   4.494   2.358
 2032WAT     H1 6615   3.837   4.404   2.340
 2032WAT     H2 6616   3.881   4.549   2.335
 2033WAT      O 6617   3.649   3.586   1.717
 2033WAT     H1 6618   3.560   3.620   1.707
 2033WAT     H2 6619   3.678   3.566   1.628
 2034WAT      O 6620   3.446   3.846   2.305
 2034WAT     H1 6621   3.503   3.769   2.305
 2034WAT     H2 6622   3.446   3.876   2.214
 2035WAT      O 6623   4.431   4.728   2.091
 2035WAT     H1 6624   4.369   4.774   2.034
 2035WAT     H2 6625   4.517   4.744   2.050
 2036WAT      O 6626   4.351   4.326   2.251
 2036WAT     H1 6627   4.344   4.232   2.235
 2036WAT     H2 6628   4.427   4.335   2.308
 2037WAT      O 6629   3.570   3.387   2.484
 2037WAT     H1 6630   3.552   3.297   2.512
 2037WAT     H2 6631   3.530   3.442   2.551
 2038WAT      O 6632   4.454   3.607   2.274
 2038WAT     H1 6633   4.491   3.520   2.263
 2038WAT     H2 6634   4.444   3.641   2.185
 2039WAT      O 6635   3.867   3.444   1.820
 2039WAT     H1 6636   3.878   3.534   1.851
 2039WAT     H2 6637   3.776   3.440   1.791
 2040WAT      O 6638   4.832   3.357   1.967
 2040WAT     H1 6639   4.914   3.308   1.971
 2040WAT     H2 6640   4.835   3.416   2.043
 2041WAT      O 6641   3.632   3.637   2.345
 2041WAT     H1 6642   3.700   3.663   2.407
 2041WAT     H2 6643   3.600   3.553   2.378
 2042WAT      O 6644   4.051   3.741   2.253
 2042WAT     H1 6645   4.102   3.791   2.317
 2042WAT     H2 6646   4.104   3.664   2.236
 2043WAT      O 6647   5.261   3.558   2.624
 2043WAT     H1 6648   5.191   3.597   2.572
 2043WAT     H2 6649   5.288   3.628   2.684
 2044WAT      O 6650   3.879   3.205   2.680
 2044WAT     H1 6651   3.879   3.257   2.599
 2044WAT     H2 6652   3.796   3.158   2.678
 2045WAT      O 6653   4.518   4.216   1.830
 2045WAT     H1 6654   4.456   4.263   1.774
 2045WAT     H2 6655   4.569   4.286   1.872
 2046WAT      O 6656   4.004   4.169   2.498
 2046WAT     H1 6657   3.971   4.232   2.562
 2046WAT     H2 6658   4.022   4.222   2.420
 2047WAT      O 6659   4.856   3.551   2.245
 2047WAT     H1 6660   4.785   3.580   2.303
 2047WAT     H2 6661   4.892   3.632   2.208
 2048WAT      O 6662   3.847   3.376   2.481
 2048WAT     H1 6663   3.882   3.461   2.451
 2048WAT     H2 6664   3.754   3.391   2.492
 2049WAT      O 6665   3.925   4.366   2.679
 2049WAT     H1 6666   3.987   4.434   2.651
 2049WAT     H2 6667   3.839   4.407   2.670
 2050WAT      O 6668   3.455   4.285   1.567
 2050WAT     H1 6669   3.417   4.334   1.494
 2050WAT     H2 6670   3.481   4.352   1.630
 2051WAT      O 6671   5.017   4.512   2.471
 2051WAT     H1 6672   4.949   4.579   2.470
 2051WAT     H2 6673   5.071   4.532   2.394
 2052WAT      O 6674   5.163   3.495   2.284
 2052WAT     H1 6675   5.068   3.499   2.297
 2052WAT     H2 6676   5.195   3.577   2.322
 2053WAT      O 6677   4.216   3.125   2.113
 2053WAT     H1 6678   4.246   3.070   2.042
 2053WAT     H2 6679   4.123   3.139   2.095
 2054WAT      O 6680   4.771   4.697   2.342
 2054WAT     H1 6681   4.772   4.657   2.255
 2054WAT     H2 6682   4.716   4.774   2.332
 2055WAT      O 6683   4.900   4.369   1.851
 2055WAT     H1 6684   4.889   4.275   1.864
 2055WAT     H2 6685   4.900   4.405   1.940
 2056WAT      O 6686   4.711   4.187   2.475
 2056WAT     H1 6687   4.752   4.166   2.392
 2056WAT     H2 6688   4.783   4.213   2.532
 2057WAT      O 6689   4.455   3.932   1.787
 2057WAT     H1 6690   4.362   3.925   1.810
 2057WAT     H2 6691   4.470   4.026   1.775
 2058WAT      O 6692   4.453   3.559   1.486
 2058WAT     H1 6693   4.359   3.575   1.495
 2058WAT     H2 6694   4.485   3.631   1.432
 2059WAT      O 6695   5.105   4.027   2.484
 2059WAT     H1 6696   5.023   4.034   2.437
 2059WAT     H2 6697   5.165   4.086   2.437
 2060WAT      O 6698   4.857   4.088   1.837
 2060WAT     H1 6699   4.796   4.054   1.772
 2060WAT     H2 6700   4.856   4.024   1.908
 2061WAT      O 6701   4.802   3.706   2.579
 2061WAT     H1 6702   4.760   3.788   2.604
 2061WAT     H2 6703   4.729   3.647   2.560
 2062WAT      O 6704   4.015   3.984   2.065
 2062WAT     H1 6705   3.975   3.913   2.015
 2062WAT     H2 6706   4.024   3.950   2.154
 2063WAT      O 6707   4.062   4.353   2.281
 2063WAT     H1 6708   4.032   4.292   2.213
 2063WAT     H2 6709   4.157   4.357   2.270
 2064WAT      O 6710   3.886   3.662   2.443
 2064WAT     H1 6711   3.942   3.673   2.365
 2064WAT     H2 6712   3.938   3.699   2.514
 2065WAT      O 6713   4.871   4.710   2.648
 2065WAT     H1 6714   4.823   4.791   2.628
 2065WAT     H2 6715   4.802   4.645   2.663
 2066WAT      O 6716   3.971   4.327   2.946
 2066WAT     H1 6717   3.881   4.349   2.971
 2066WAT     H2 6718   3.974   4.339   2.852
 2067WAT      O 6719   4.675   4.012   1.538
 2067WAT     H1 6720   4.719   3.928   1.523
 2067WAT     H2 6721   4.746   4.075   1.546
 2068WAT      O 6722   3.854   4.014   2.804
 2068WAT     H1 6723   3.840   4.101   2.841
 2068WAT     H2 6724   3.766   3.980   2.789
 2069WAT      O 6725   4.486   4.506   1.935
 2069WAT     H1 6726   4.530   4.580   1.893
 2069WAT     H2 6727   4.480   4.530   2.027
 2070WAT      O 6728   4.034   4.608   3.025
 2070WAT     H1 6729   4.031   4.649   2.938
 2070WAT     H2 6730   4.017   4.515   3.009
 2071WAT      O 6731   5.033   3.137   1.369
 2071WAT     H1 6732   5.002   3.146   1.459
 2071WAT     H2 6733   5.109   3.195   1.364
 2072WAT      O 6734   3.685   3.874   1.815
 2072WAT     H1 6735   3.673   3.946   1.754
 2072WAT     H2 6736   3.654   3.797   1.767
 2073WAT      O 6737   5.229   4.686   3.154
 2073WAT     H1 6738   5.276   4.734   3.222
 2073WAT     H2 6739   5.291   4.680   3.082
 2074WAT      O 6740   3.449   4.191   2.396
 2074WAT     H1 6741   3.457   4.204   2.301
 2074WAT     H2 6742   3.510   4.120   2.415
 2075WAT      O 6743   3.573   4.361   2.037
 2075WAT     H1 6744   3.533   4.375   1.951
 2075WAT     H2 6745   3.663   4.333   2.016
 2076WAT      O 6746   5.169   4.406   2.870
 2076WAT     H1 6747   5.182   4.382   2.779
 2076WAT     H2 6748   5.173   4.322   2.918
 2077WAT      O 6749   4.555   4.776   2.727
 2077WAT     H1 6750   4.607   4.767   2.808
 2077WAT     H2 6751   4.471   4.810   2.757
 2078WAT      O 6752   4.753   4.804   1.670
 2078WAT     H1 6753   4.737   4.775   1.760
 2078WAT     H2 6754   4.736   4.727   1.617
 2079WAT      O 6755   4.001   4.782   1.848
 2079WAT     H1 6756   3.983   4.691   1.827
 2079WAT     H2 6757   3.915   4.818   1.872
 2080WAT      O 6758   4.723   4.555   1.526
 2080WAT     H1 6759   4.654   4.555   1.460
 2080WAT     H2 6760   4.797   4.513   1.483
 2081WAT      O 6761   4.680   4.718   1.934
 2081WAT     H1 6762   4.725   4.640   1.965
 2081WAT     H2 6763   4.713   4.789   1.988
 2082WAT      O 6764   5.154   3.611   2.967
 2082WAT     H1 6765   5.093   3.662   2.914
 2082WAT     H2 6766   5.122   3.521   2.961
 2083WAT      O 6767   3.455   4.295   2.650
 2083WAT     H1 6768   3.471   4.248   2.568
 2083WAT     H2 6769   3.501   4.244   2.716
 2084WAT      O 6770   3.932   3.208   2.153
 2084WAT     H1 6771   3.887   3.286   2.120
 2084WAT     H2 6772   3.988   3.240   2.224
 2085WAT      O 6773   4.360   3.495   2.714
 2085WAT     H1 6774   4.314   3.516   2.795
 2085WAT     H2 6775   4.320   3.413   2.683
 2086WAT      O 6776   4.861   3.617   2.827
 2086WAT     H1 6777   4.775   3.587   2.859
 2086WAT     H2 6778   4.845   3.641   2.735
 2087WAT      O 6779   4.570   3.767   3.037
 2087WAT     H1 6780   4.603   3.684   3.003
 2087WAT     H2 6781   4.649   3.819   3.051
 2088WAT      O 6782   4.243   3.170   1.641
 2088WAT     H1 6783   4.181   3.170   1.714
 2088WAT     H2 6784   4.235   3.084   1.602
 2089WAT      O 6785   4.136   3.263   2.339
 2089WAT     H1 6786   4.165   3.353   2.331
 2089WAT     H2 6787   4.190   3.214   2.278
 2090WAT      O 6788   3.911   3.720   1.926
 2090WAT     H1 6789   3.888   3.699   2.017
 2090WAT     H2 6790   3.833   3.764   1.892
 2091WAT      O 6791   4.634   3.721   1.786
 2091WAT     H1 6792   4.574   3.793   1.768
 2091WAT     H2 6793   4.689   3.715   1.708
 2092WAT      O 6794   4.155   3.810   2.993
 2092WAT     H1 6795   4.145   3.716   2.978
 2092WAT     H2 6796   4.239   3.832   2.953
 2093WAT      O 6797   4.495   3.585   1.989
 2093WAT     H1 6798   4.534   3.616   1.908
 2093WAT     H2 6799   4.531   3.497   2.000
 2094WAT      O 6800   4.325   3.460   3.115
 2094WAT     H1 6801   4.256   3.441   3.178
 2094WAT     H2 6802   4.400   3.488   3.168
 2095WAT      O 6803   3.417   3.638   1.332
 2095WAT     H1 6804   3.409   3.732   1.346
 2095WAT     H2 6805   3.382   3.624   1.244
 2096WAT      O 6806   4.553   3.844   2.399
 2096WAT     H1 6807   4.480   3.895   2.433
 2096WAT     H2 6808   4.513   3.762   2.368
 2097WAT      O 6809   4.197   3.511   2.239
 2097WAT     H1 6810   4.197   3.467   2.154
 2097WAT     H2 6811   4.286   3.544   2.250
 2098WAT      O 6812   3.782   3.500   2.135
 2098WAT     H1 6813   3.748   3.547   2.211
 2098WAT     H2 6814   3.706   3.454   2.099
 2099WAT      O 6815   4.203   3.611   1.538
 2099WAT     H1 6816   4.215   3.607   1.633
 2099WAT     H2 6817   4.165   3.698   1.523
 2100WAT      O 6818   4.599   3.389   2.340
 2100WAT     H1 6819   4.601   3.434   2.424
 2100WAT     H2 6820   4.574   3.299   2.361
 2101WAT      O 6821   4.104   3.842   1.478
 2101WAT     H1 6822   4.047   3.798   1.415
 2101WAT     H2 6823   4.175   3.878   1.425
 2102WAT      O 6824   4.942   3.130   2.924
 2102WAT     H1 6825   4.975   3.057   2.976
 2102WAT     H2 6826   4.946   3.099   2.833
 2103WAT      O 6827   3.612   4.233   2.866
 2103WAT     H1 6828   3.574   4.169   2.925
 2103WAT     H2 6829   3.643   4.303   2.923
 2104WAT      O 6830   4.227   3.917   2.414
 2104WAT     H1 6831   4.264   3.870   2.488
 2104WAT     H2 6832   4.208   4.005   2.448
 2105WAT      O 6833   4.006   3.821   2.646
 2105WAT     H1 6834   3.976   3.909   2.668
 2105WAT     H2 6835   4.101   3.827   2.649
 2106WAT      O 6836   3.859   4.242   1.705
 2106WAT     H1 6837   3.781   4.188   1.689
 2106WAT     H2 6838   3.932   4.190   1.671
 2107WAT      O 6839   4.935   4.142   2.284
 2107WAT     H1 6840   5.007   4.191   2.245
 2107WAT     H2 6841   4.914   4.074   2.220
 2108WAT      O 6842   4.481   3.281   1.699
 2108WAT     H1 6843   4.399   3.231   1.691
 2108WAT     H2 6844   4.461   3.365   1.657
 2109WAT      O 6845   4.473   4.149   2.873
 2109WAT     H1 6846   4.466   4.057   2.848
 2109WAT     H2 6847   4.410   4.159   2.945
 2110WAT      O 6848   4.752   3.718   1.528
 2110WAT     H1 6849   4.841   3.749   1.511
 2110WAT     H2 6850   4.749   3.631   1.489
 2111WAT      O 6851   3.863   4.209   2.069
 2111WAT     H1 6852   3.915   4.129   2.064
 2111WAT     H2 6853   3.818   4.203   2.153
 2112WAT      O 6854   4.352   4.336   1.596
 2112WAT     H1 6855   4.386   4.410   1.547
 2112WAT     H2 6856   4.269   4.367   1.633
 2113WAT      O 6857   3.612   3.905   2.760
 2113WAT     H1 6858   3.576   3.972   2.819
 2113WAT     H2 6859   3.582   3.822   2.797
 2114WAT      O 6860   4.466   4.431   2.848
 2114WAT     H1 6861   4.467   4.338   2.826
 2114WAT     H2 6862   4.395   4.440   2.912
 2115WAT      O 6863   4.979   3.849   1.475
 2115WAT     H1 6864   4.971   3.893   1.390
 2115WAT     H2 6865   5.051   3.895   1.518
 2116WAT      O 6866   5.087   4.095   2.783
 2116WAT     H1 6867   5.015   4.154   2.763
 2116WAT     H2 6868   5.140   4.094   2.703
 2117WAT      O 6869   5.082   4.535   1.748
 2117WAT     H1 6870   5.018   4.469   1.775
 2117WAT     H2 6871   5.044   4.575   1.670
 2118WAT      O 6872   4.640   4.268   2.133
 2118WAT     H1 6873   4.675   4.208   2.067
 2118WAT     H2 6874   4.552   4.235   2.150
 2119WAT      O 6875   4.249   4.344   1.873
 2119WAT     H1 6876   4.317   4.398   1.912
 2119WAT     H2 6877   4.170   4.398   1.877
 2120WAT      O 6878   3.463   3.905   1.423
 2120WAT     H1 6879   3.550   3.934   1.451
 2120WAT     H2 6880   3.414   3.987   1.411
 2121WAT      O 6881   4.179   4.044   1.835
 2121WAT     H1 6882   4.225   4.125   1.857
 2121WAT     H2 6883   4.144   4.012   1.918
 2122WAT      O 6884   4.409   4.595   2.558
 2122WAT     H1 6885   4.474   4.616   2.625
 2122WAT     H2 6886   4.446   4.519   2.512
 2123WAT      O 6887   3.769   3.079   1.882
 2123WAT     H1 6888   3.756   3.078   1.977
 2123WAT     H2 6889   3.687   3.112   1.847
 2124WAT      O 6890   4.537   4.396   2.429
 2124WAT     H1 6891   4.601   4.325   2.441
 2124WAT     H2 6892   4.589   4.473   2.411
 2125WAT      O 6893   4.921   4.424   1.402
 2125WAT     H1 6894   4.899   4.352   1.461
 2125WAT     H2 6895   4.882   4.399   1.318
 2126WAT      O 6896   4.714   4.475   2.750
 2126WAT     H1 6897   4.748   4.534   2.818
 2126WAT     H2 6898   4.622   4.462   2.773
 2127WAT      O 6899   3.499   4.827   1.479
 2127WAT     H1 6900   3.535   4.887   1.414
 2127WAT     H2 6901   3.485   4.881   1.557
 2128WAT      O 6902   4.879   4.216   1.568
 2128WAT     H1 6903   4.851   4.262   1.647
 2128WAT     H2 6904   4.959   4.170   1.595
 2129WAT      O 6905   3.498   4.653   2.927
 2129WAT     H1 6906   3.509   4.559   2.913
 2129WAT     H2 6907   3.433   4.680   2.862
 2130WAT      O 6908   4.297   4.480   3.067
 2130WAT     H1 6909   4.265   4.408   3.121
 2130WAT     H2 6910   4.229   4.548   3.074
 2131WAT      O 6911   4.101   4.565   1.561
 2131WAT     H1 6912   4.100   4.638   1.499
 2131WAT     H2 6913   4.009   4.540   1.570
 2132WAT      O 6914   3.661   4.087   1.635
 2132WAT     H1 6915   3.600   4.161   1.636
 2132WAT     H2 6916   3.709   4.096   1.553
 2133WAT      O 6917   4.618   3.504   2.603
 2133WAT     H1 6918   4.655   3.422   2.636
 2133WAT     H2 6919   4.532   3.510   2.645
 2134WAT      O 6920   4.955   3.399   1.684
 2134WAT     H1 6921   4.892   3.410   1.612
 2134WAT     H2 6922   4.906   3.421   1.763
 2135WAT      O 6923   4.400   4.571   1.427
 2135WAT     H1 6924   4.410   4.551   1.334
 2135WAT     H2 6925   4.310   4.546   1.448
 2136WAT      O 6926   4.152   3.627   1.825
 2136WAT     H1 6927   4.081   3.674   1.870
 2136WAT     H2 6928   4.180   3.561   1.889
 2137WAT      O 6929   4.314   3.769   2.625
 2137WAT     H1 6930   4.364   3.816   2.692
 2137WAT     H2 6931   4.329   3.677   2.646
 2138WAT      O 6932   4.555   3.300   1.969
 2138WAT     H1 6933   4.543   3.301   1.874
 2138WAT     H2 6934   4.650   3.304   1.981
 2139WAT      O 6935   4.264   4.823   1.897
 2139WAT     H1 6936   4.289   4.819   1.804
 2139WAT     H2 6937   4.169   4.810   1.896
 2140WAT      O 6938   3.972   3.458   1.563
 2140WAT     H1 6939   4.057   3.502   1.556
 2140WAT     H2 6940   3.936   3.489   1.646
 2141WAT      O 6941   5.035   3.391   2.710
 2141WAT     H1 6942   4.985   3.465   2.744
 2141WAT     H2 6943   5.117   3.430   2.678
 2142WAT      O 6944   4.864   3.915   2.054
 2142WAT     H1 6945   4.770   3.917   2.072
 2142WAT     H2 6946   4.896   3.836   2.099
 2143WAT      O 6947   3.862   4.083   1.410
 2143WAT     H1 6948   3.939   4.072   1.467
 2143WAT     H2 6949   3.870   4.014   1.345
 2144WAT      O 6950   3.732   3.826   1.479
 2144WAT     H1 6951   3.740   3.732   1.490
 2144WAT     H2 6952   3.821   3.860   1.489
 2145WAT      O 6953   5.065   4.632   2.222
 2145WAT     H1 6954   5.077   4.714   2.269
 2145WAT     H2 6955   5.151   4.611   2.187
 2146WAT      O 6956   3.812   4.841   2.189
 2146WAT     H1 6957   3.885   4.787   2.216
 2146WAT     H2 6958   3.850   4.928   2.175
 2147WAT      O 6959   3.500   4.448   1.776
 2147WAT     H1 6960   3.408   4.472   1.775
 2147WAT     H2 6961   3.547   4.531   1.764
 2148WAT      O 6962   3.712   4.760   3.108
 2148WAT     H1 6963   3.792   4.792   3.149
 2148WAT     H2 6964   3.661   4.724   3.180
 2149WAT      O 6965   4.123   4.759   1.371
 2149WAT     H1 6966   4.202   4.788   1.326
 2149WAT     H2 6967   4.071   4.716   1.303
 2150WAT      O 6968   4.596   4.371   3.103
 2150WAT     H1 6969   4.535   4.373   3.029
 2150WAT     H2 6970   4.566   4.298   3.156
 2151WAT      O 6971   4.739   4.744   2.964
 2151WAT     H1 6972   4.834   4.735   2.959
 2151WAT     H2 6973   4.724   4.810   3.031
 2152WAT      O 6974   5.028   4.681   1.514
 2152WAT     H1 6975   5.000   4.640   1.432
 2152WAT     H2 6976   5.008   4.774   1.502
 2153WAT      O 6977   4.175   4.281   1.358
 2153WAT     H1 6978   4.164   4.219   1.430
 2153WAT     H2 6979   4.158   4.228   1.279
 2154WAT      O 6980   4.190   4.149   2.956
 2154WAT     H1 6981   4.113   4.206   2.947
 2154WAT     H2 6982   4.208   4.120   2.866
 2155WAT      O 6983   4.499   4.187   1.418
 2155WAT     H1 6984   4.444   4.232   1.483
 2155WAT     H2 6985   4.561   4.136   1.470
 2156WAT      O 6986   4.904   4.322   3.011
 2156WAT     H1 6987   4.978   4.356   2.961
 2156WAT     H2 6988   4.828   4.339   2.956
 2157WAT      O 6989   4.065   4.083   1.608
 2157WAT     H1 6990   4.108   4.066   1.692
 2157WAT     H2 6991   4.078   4.002   1.558
 2158WAT      O 6992   3.882   3.681   2.888
 2158WAT     H1 6993   3.829   3.632   2.826
 2158WAT     H2 6994   3.949   3.724   2.835
 2159WAT      O 6995   4.317   3.985   1.333
 2159WAT     H1 6996   4.369   3.914   1.296
 2159WAT     H2 6997   4.381   4.049   1.363
 2160WAT      O 6998   4.771   4.128   2.865
 2160WAT     H1 6999   4.813   4.143   2.950
 2160WAT     H2 7000   4.678   4.140   2.881
 2161WAT      O 7001   4.819   3.862   3.065
 2161WAT     H1 7002   4.877   3.786   3.056
 2161WAT     H2 7003   4.836   3.915   2.988
 2162WAT      O 7004   3.930   3.377   2.896
 2162WAT     H1 7005   3.921   3.316   2.824
 2162WAT     H2 7006   3.872   3.450   2.874
 2163WAT      O 7007   4.207   3.233   2.600
 2163WAT     H1 7008   4.162   3.235   2.515
 2163WAT     H2 7009   4.144   3.193   2.659
 2164WAT      O 7010   4.248   4.123   2.662
 2164WAT     H1 7011   4.289   4.207   2.645
 2164WAT     H2 7012   4.156   4.136   2.639
 2165WAT      O 7013   4.481   3.896   2.800
 2165WAT     H1 7014   4.493   3.836   2.874
 2165WAT     H2 7015   4.567   3.900   2.758
 2166WAT      O 7016   4.715   3.951   2.658
 2166WAT     H1 7017   4.662   4.004   2.597
 2166WAT     H2 7018   4.749   4.015   2.721
 2167WAT      O 7019   3.955   3.690   1.302
 2167WAT     H1 7020   3.935   3.604   1.338
 2167WAT     H2 7021   3.938   3.682   1.209
 2168WAT      O 7022   4.033   4.753   2.773
 2168WAT     H1 7023   3.979   4.826   2.741
 2168WAT     H2 7024   4.058   4.706   2.694
 2169WAT      O 7025   4.158   3.550   2.926
 2169WAT     H1 7026   4.217   3.519   2.995
 2169WAT     H2 7027   4.076   3.503   2.942
 2170WAT      O 7028   4.640   3.512   2.949
 2170WAT     H1 7029   4.571   3.446   2.943
 2170WAT     H2 7030   4.712   3.467   2.994
 2171WAT      O 7031   4.703   3.171   1.555
 2171WAT     H1 7032   4.731   3.087   1.591
 2171WAT     H2 7033   4.625   3.195   1.607
 2172WAT      O 7034   3.835   3.400   1.301
 2172WAT     H1 7035   3.865   3.401   1.210
 2172WAT     H2 7036   3.909   3.365   1.351
 2173WAT      O 7037   4.318   4.877   2.799
 2173WAT     H1 7038   4.311   4.967   2.830
 2173WAT     H2 7039   4.228   4.845   2.796
 2174WAT      O 7040   4.157   3.295   1.400
 2174WAT     H1 7041   4.122   3.227   1.342
 2174WAT     H2 7042   4.177   3.248   1.481
 2175WAT      O 7043   4.373   4.793   1.562
 2175WAT     H1 7044   4.463   4.827   1.564
 2175WAT     H2 7045   4.376   4.721   1.499
 2176WAT      O 7046   3.737   4.331   1.384
 2176WAT     H1 7047   3.781   4.385   1.450
 2176WAT     H2 7048   3.786   4.248   1.385
 2177WAT      O 7049   3.459   4.610   2.130
 2177WAT     H1 7050   3.492   4.523   2.106
 2177WAT     H2 7051   3.501   4.630   2.213
 2178WAT      O 7052   3.918   4.443   1.896
 2178WAT     H1 7053   3.888   4.430   1.986
 2178WAT     H2 7054   3.908   4.357   1.855
 2179WAT      O 7055   3.507   4.696   2.403
 2179WAT     H1 7056   3.464   4.714   2.487
 2179WAT     H2 7057   3.564   4.772   2.389
 2180WAT      O 7058   5.071   4.646   2.832
 2180WAT     H1 7059   5.011   4.652   2.758
 2180WAT     H2 7060   5.084   4.552   2.845
 2181WAT      O 7061   5.195   4.421   1.366
 2181WAT     H1 7062   5.112   4.427   1.413
 2181WAT     H2 7063   5.213   4.510   1.336
 2182WAT      O 7064   5.141   4.095   1.616
 2182WAT     H1 7065   5.217   4.152   1.627
 2182WAT     H2 7066   5.142   4.038   1.693
 2183WAT      O 7067   3.491   3.947   2.039
 2183WAT     H1 7068   3.425   3.921   1.975
 2183WAT     H2 7069   3.574   3.936   1.994
 2184WAT      O 7070   5.241   4.181   2.101
 2184WAT     H1 7071   5.278   4.102   2.060
 2184WAT     H2 7072   5.305   4.249   2.083
 2185WAT      O 7073   4.940   4.319   2.642
 2185WAT     H1 7074   4.858   4.362   2.668
 2185WAT     H2 7075   4.980   4.380   2.581
 2186WAT      O 7076   5.146   4.124   1.332
 2186WAT     H1 7077   5.173   4.215   1.319
 2186WAT     H2 7078   5.127   4.118   1.426
 2187WAT      O 7079   4.786   3.427   1.461
 2187WAT     H1 7080   4.827   3.408   1.377
 2187WAT     H2 7081   4.755   3.342   1.493
 2188WAT      O 7082   5.135   3.918   1.831
 2188WAT     H1 7083   5.098   3.841   1.788
 2188WAT     H2 7084   5.063   3.956   1.880
 2189WAT      O 7085   3.594   3.986   2.493
 2189WAT     H1 7086   3.631   3.977   2.581
 2189WAT     H2 7087   3.538   3.910   2.483
 2190WAT      O 7088   5.074   3.833   2.795
 2190WAT     H1 7089   5.051   3.810   2.705
 2190WAT     H2 7090   5.101   3.925   2.790
 2191WAT      O 7091   4.918   3.355   3.072
 2191WAT     H1 7092   5.006   3.356   3.111
 2191WAT     H2 7093   4.920   3.282   3.011
 2192WAT      O 7094   3.412   3.668   1.634
 2192WAT     H1 7095   3.322   3.695   1.616
 2192WAT     H2 7096   3.460   3.696   1.556
 2193WAT      O 7097   5.063   3.741   2.161
 2193WAT     H1 7098   5.115   3.691   2.098
 2193WAT     H2 7099   5.122   3.754   2.236
 2194WAT      O 7100   5.081   3.749   2.514
 2194WAT     H1 7101   4.986   3.746   2.525
 2194WAT     H2 7102   5.099   3.840   2.490
 2195WAT      O 7103   3.666   3.574   1.424
 2195WAT     H1 7104   3.737   3.532   1.376
 2195WAT     H2 7105   3.595   3.581   1.361
 2196WAT      O 7106   3.631   3.179   1.329
 2196WAT     H1 7107   3.703   3.234   1.360
 2196WAT     H2 7108   3.658   3.152   1.241
 2197WAT      O 7109   5.012   3.666   1.755
 2197WAT     H1 7110   5.062   3.643   1.834
 2197WAT     H2 7111   4.992   3.583   1.714
 2198WAT      O 7112   5.155   3.530   2.009
 2198WAT     H1 7113   5.144   3.515   2.102
 2198WAT     H2 7114   5.231   3.477   1.984
 2199WAT      O 7115   4.990   3.124   2.654
 2199WAT     H1 7116   5.053   3.185   2.691
 2199WAT     H2 7117   5.004   3.128   2.560
 2200WAT      O 7118   5.244   3.313   1.333
 2200WAT     H1 7119   5.336   3.300   1.312
 2200WAT     H2 7120   5.242   3.321   1.428
 2201WAT      O 7121   5.251   3.390   1.595
 2201WAT     H1 7122   5.172   3.384   1.648
 2201WAT     H2 7123   5.272   3.484   1.594
 2202WAT      O 7124   4.945   4.794   1.995
 2202WAT     H1 7125   5.005   4.762   1.927
 2202WAT     H2 7126   4.971   4.747   2.074
 2203WAT      O 7127   3.575   3.120   2.593
 2203WAT     H1 7128   3.540   3.166   2.670
 2203WAT     H2 7129   3.542   3.031   2.601
 2204WAT      O 7130   3.736   4.437   3.010
 2204WAT     H1 7131   3.732   4.400   3.098
 2204WAT     H2 7132   3.749   4.531   3.024
 2205WAT      O 7133   4.106   4.593   2.570
 2205WAT     H1 7134   4.082   4.620   2.481
 2205WAT     H2 7135   4.200   4.610   2.575
 2206WAT      O 7136   4.327   3.239   2.945
 2206WAT     H1 7137   4.320   3.298   3.020
 2206WAT     H2 7138   4.421   3.228   2.931
 2207WAT      O 7139   4.590   3.205   2.909
 2207WAT     H1 7140   4.652   3.237   2.843
 2207WAT     H2 7141   4.645   3.156   2.971
 2208WAT      O 7142   5.232   4.795   2.650
 2208WAT     H1 7143   5.183   4.835   2.578
 2208WAT     H2 7144   5.171   4.732   2.689
 2209WAT      O 7145   3.720   4.732   2.722
 2209WAT     H1 7146   3.660   4.719   2.795
 2209WAT     H2 7147   3.719   4.648   2.675
 2210WAT      O 7148   4.664   3.061   2.542
 2210WAT     H1 7149   4.577   3.095   2.522
 2210WAT     H2 7150   4.653   3.014   2.624
 2211WAT      O 7151   4.755   3.282   2.680
 2211WAT     H1 7152   4.722   3.200   2.642
 2211WAT     H2 7153   4.850   3.278   2.668
 2212WAT      O 7154   5.000   4.859   2.378
 2212WAT     H1 7155   4.954   4.934   2.340
 2212WAT     H2 7156   4.938   4.787   2.372
 2213WAT      O 7157   3.683   4.469   2.617
 2213WAT     H1 7158   3.610   4.407   2.610
 2213WAT     H2 7159   3.689   4.508   2.530
 2214WAT      O 7160   4.043   4.690   2.295
 2214WAT     H1 7161   4.095   4.629   2.243
 2214WAT     H2 7162   4.108   4.740   2.344
 2215WAT      O 7163   4.317   4.779   2.378
 2215WAT     H1 7164   4.346   4.754   2.290
 2215WAT     H2 7165   4.369   4.724   2.437
 2216WAT      O 7166   4.439   3.153   2.436
 2216WAT     H1 7167   4.361   3.200   2.464
 2216WAT     H2 7168   4.410   3.062   2.425
 2217WAT      O 7169   4.894   3.223   2.240
 2217WAT     H1 7170   4.938   3.218   2.155
 2217WAT     H2 7171   4.867   3.315   2.247
 2218WAT      O 7172   5.081   3.186   2.041
 2218WAT     H1 7173   5.075   3.092   2.027
 2218WAT     H2 7174   5.159   3.197   2.096
 2219WAT      O 7175   3.511   4.800   1.938
 2219WAT     H1 7176   3.494   4.737   2.007
 2219WAT     H2 7177   3.425   4.821   1.902
 2220WAT      O 7178   3.574   3.183   1.688
 2220WAT     H1 7179   3.649   3.195   1.631
 2220WAT     H2 7180   3.527   3.267   1.683
 2221WAT      O 7181   4.228   3.395   1.987
 2221WAT     H1 7182   4.146   3.357   1.953
 2221WAT     H2 7183   4.278   3.319   2.017
 2222WAT      O 7184   4.678   3.061   2.111
 2222WAT     H1 7185   4.738   3.118   2.158
 2222WAT     H2 7186   4.604   3.118   2.088
 2223WAT      O 7187   4.992   3.101   1.638
 2223WAT     H1 7188   5.012   3.191   1.665
 2223WAT     H2 7189   4.914   3.078   1.687
 2224WAT      O 7190   3.672   4.670   1.682
 2224WAT     H1 7191   3.619   4.708   1.612
 2224WAT     H2 7192   3.664   4.732   1.754
 2225WAT      O 7193   3.811   3.236   1.542
 2225WAT     H1 7194   3.864   3.157   1.529
 2225WAT     H2 7195   3.874   3.304   1.565
 2226WAT      O 7196   4.030   3.210   1.847
 2226WAT     H1 7197   3.967   3.140   1.864
 2226WAT     H2 7198   3.976   3.286   1.826
 2227WAT      O 7199   4.324   4.871   3.114
 2227WAT     H1 7200   4.417   4.848   3.119
 2227WAT     H2 7201   4.323   4.954   3.066
 2228WAT      O 7202   5.148   4.825   1.814
 2228WAT     H1 7203   5.165   4.757   1.750
 2228WAT     H2 7204   5.078   4.878   1.775
 2229WAT      O 7205   4.043   3.138   3.091
 2229WAT     H1 7206   4.015   3.188   3.014
 2229WAT     H2 7207   4.081   3.058   3.054
 2230WAT      O 7208   3.932   4.864   1.570
 2230WAT     H1 7209   4.005   4.836   1.515
 2230WAT     H2 7210   3.958   4.841   1.659
 2231WAT      O 7211   3.848   4.476   1.570
 2231WAT     H1 7212   3.785   4.523   1.625
 2231WAT     H2 7213   3.859   4.392   1.613
 2232WAT      O 7214   4.703   3.079   3.149
 2232WAT     H1 7215   4.692   3.111   3.238
 2232WAT     H2 7216   4.785   3.119   3.119
 2233WAT      O 7217   4.981   4.794   3.097
 2233WAT     H1 7218   5.060   4.744   3.076
 2233WAT     H2 7219   5.010   4.862   3.158
 2234WAT      O 7220   4.407   4.059   0.373
 2234WAT     H1 7221   4.329   4.011   0.402
 2234WAT     H2 7222   4.472   3.991   0.356
 2235WAT      O 7223   3.808   4.090   0.461
 2235WAT     H1 7224   3.725   4.065   0.501
 2235WAT     H2 7225   3.869   4.097   0.534
 2236WAT      O 7226   4.809   4.500   0.251
 2236WAT     H1 7227   4.763   4.422   0.284
 2236WAT     H2 7228   4.890   4.502   0.302
 2237WAT      O 7229   3.806   4.494   0.480
 2237WAT     H1 7230   3.837   4.404   0.463
 2237WAT     H2 7231   3.881   4.549   0.458
 2238WAT      O 7232   3.446   3.846   0.428
 2238WAT     H1 7233   3.503   3.769   0.428
 2238WAT     H2 7234   3.446   3.876   0.337
 2239WAT      O 7235   4.351   4.326   0.374
 2239WAT     H1 7236   4.344   4.232   0.358
 2239WAT     H2 7237   4.427   4.335   0.431
 2240WAT      O 7238   3.570   3.387   0.606
 2240WAT     H1 7239   3.552   3.297   0.634
 2240WAT     H2 7240   3.530   3.442   0.674
 2241WAT      O 7241   4.454   3.607   0.397
 2241WAT     H1 7242   4.491   3.520   0.385
 2241WAT     H2 7243   4.444   3.641   0.307
 2242WAT      O 7244   3.632   3.637   0.467
 2242WAT     H1 7245   3.700   3.663   0.529
 2242WAT     H2 7246   3.600   3.553   0.501
 2243WAT      O 7247   4.051   3.741   0.376
 2243WAT     H1 7248   4.102   3.791   0.440
 2243WAT     H2 7249   4.104   3.664   0.358
 2244WAT      O 7250   5.261   3.558   0.746
 2244WAT     H1 7251   5.191   3.597   0.694
 2244WAT     H2 7252   5.288   3.628   0.806
 2245WAT      O 7253   3.879   3.205   0.803
 2245WAT     H1 7254   3.879   3.257   0.722
 2245WAT     H2 7255   3.796   3.158   0.800
 2246WAT      O 7256   4.004   4.169   0.620
 2246WAT     H1 7257   3.971   4.232   0.685
 2246WAT     H2 7258   4.022   4.222   0.542
 2247WAT      O 7259   4.856   3.551   0.367
 2247WAT     H1 7260   4.785   3.580   0.425
 2247WAT     H2 7261   4.892   3.632   0.331
 2248WAT      O 7262   3.847   3.376   0.603
 2248WAT     H1 7263   3.882   3.461   0.574
 2248WAT     H2 7264   3.754   3.391   0.615
 2249WAT      O 7265   3.925   4.366   0.802
 2249WAT     H1 7266   3.987   4.434   0.774
 2249WAT     H2 7267   3.839   4.407   0.793
 2250WAT      O 7268   5.017   4.512   0.593
 2250WAT     H1 7269   4.949   4.579   0.593
 2250WAT     H2 7270   5.071   4.532   0.517
 2251WAT      O 7271   5.163   3.495   0.406
 2251WAT     H1 7272   5.068   3.499   0.419
 2251WAT     H2 7273   5.195   3.577   0.445
 2252WAT      O 7274   4.771   4.697   0.465
 2252WAT     H1 7275   4.772   4.657   0.378
 2252WAT     H2 7276   4.716   4.774   0.454
 2253WAT      O 7277   4.711   4.187   0.598
 2253WAT     H1 7278   4.752   4.166   0.514
 2253WAT     H2 7279   4.783   4.213   0.655
 2254WAT      O 7280   5.105   4.027   0.607
 2254WAT     H1 7281   5.023   4.034   0.559
 2254WAT     H2 7282   5.165   4.086   0.560
 2255WAT      O 7283   4.802   3.706   0.701
 2255WAT     H1 7284   4.760   3.788   0.727
 2255WAT     H2 7285   4.729   3.647   0.682
 2256WAT      O 7286   4.062   4.353   0.404
 2256WAT     H1 7287   4.032   4.292   0.336
 2256WAT     H2 7288   4.157   4.357   0.393
 2257WAT      O 7289   3.886   3.662   0.566
 2257WAT     H1 7290   3.942   3.673   0.488
 2257WAT     H2 7291   3.938   3.699   0.637
 2258WAT      O 7292   4.871   4.710   0.770
 2258WAT     H1 7293   4.823   4.791   0.751
 2258WAT     H2 7294   4.802   4.645   0.785
 2259WAT      O 7295   3.971   4.327   1.069
 2259WAT     H1 7296   3.881   4.349   1.094
 2259WAT     H2 7297   3.974   4.339   0.974
 2260WAT      O 7298   3.854   4.014   0.927
 2260WAT     H1 7299   3.840   4.101   0.963
 2260WAT     H2 7300   3.766   3.980   0.912
 2261WAT      O 7301   4.034   4.608   1.147
 2261WAT     H1 7302   4.031   4.649   1.061
 2261WAT     H2 7303   4.017   4.515   1.131
 2262WAT      O 7304   5.229   4.686   1.277
 2262WAT     H1 7305   5.276   4.734   1.345
 2262WAT     H2 7306   5.291   4.680   1.205
 2263WAT      O 7307   3.449   4.191   0.518
 2263WAT     H1 7308   3.457   4.204   0.424
 2263WAT     H2 7309   3.510   4.120   0.538
 2264WAT      O 7310   5.169   4.406   0.993
 2264WAT     H1 7311   5.182   4.382   0.901
 2264WAT     H2 7312   5.173   4.322   1.040
 2265WAT      O 7313   4.555   4.776   0.850
 2265WAT     H1 7314   4.607   4.767   0.930
 2265WAT     H2 7315   4.471   4.810   0.879
 2266WAT      O 7316   5.154   3.611   1.090
 2266WAT     H1 7317   5.093   3.662   1.037
 2266WAT     H2 7318   5.122   3.521   1.084
 2267WAT      O 7319   3.455   4.295   0.772
 2267WAT     H1 7320   3.471   4.248   0.690
 2267WAT     H2 7321   3.501   4.244   0.839
 2268WAT      O 7322   3.932   3.208   0.276
 2268WAT     H1 7323   3.887   3.286   0.243
 2268WAT     H2 7324   3.988   3.240   0.347
 2269WAT      O 7325   4.360   3.495   0.836
 2269WAT     H1 7326   4.314   3.516   0.917
 2269WAT     H2 7327   4.320   3.413   0.806
 2270WAT      O 7328   4.861   3.617   0.949
 2270WAT     H1 7329   4.775   3.587   0.981
 2270WAT     H2 7330   4.845   3.641   0.858
 2271WAT      O 7331   4.570   3.767   1.159
 2271WAT     H1 7332   4.603   3.684   1.125
 2271WAT     H2 7333   4.649   3.819   1.174
 2272WAT      O 7334   4.136   3.263   0.462
 2272WAT     H1 7335   4.165   3.353   0.454
 2272WAT     H2 7336   4.190   3.214   0.400
 2273WAT      O 7337   4.155   3.810   1.115
 2273WAT     H1 7338   4.145   3.716   1.100
 2273WAT     H2 7339   4.239   3.832   1.076
 2274WAT      O 7340   3.668   3.451   0.931
 2274WAT     H1 7341   3.629   3.536   0.951
 2274WAT     H2 7342   3.599   3.388   0.950
 2275WAT      O 7343   4.325   3.460   1.238
 2275WAT     H1 7344   4.256   3.441   1.301
 2275WAT     H2 7345   4.400   3.488   1.291
 2276WAT      O 7346   3.398   3.244   0.334
 2276WAT     H1 7347   3.369   3.301   0.405
 2276WAT     H2 7348   3.473   3.196   0.370
 2277WAT      O 7349   4.553   3.844   0.521
 2277WAT     H1 7350   4.480   3.895   0.556
 2277WAT     H2 7351   4.513   3.762   0.491
 2278WAT      O 7352   4.197   3.511   0.362
 2278WAT     H1 7353   4.197   3.467   0.277
 2278WAT     H2 7354   4.286   3.544   0.372
 2279WAT      O 7355   3.782   3.500   0.258
 2279WAT     H1 7356   3.748   3.547   0.333
 2279WAT     H2 7357   3.706   3.454   0.222
 2280WAT      O 7358   4.599   3.389   0.462
 2280WAT     H1 7359   4.601   3.434   0.547
 2280WAT     H2 7360   4.574   3.299   0.484
 2281WAT      O 7361   4.942   3.130   1.046
 2281WAT     H1 7362   4.975   3.057   1.099
 2281WAT     H2 7363   4.946   3.099   0.956
 2282WAT      O 7364   3.612   4.233   0.988
 2282WAT     H1 7365   3.574   4.169   1.048
 2282WAT     H2 7366   3.643   4.303   1.045
 2283WAT      O 7367   4.227   3.917   0.536
 2283WAT     H1 7368   4.264   3.870   0.611
 2283WAT     H2 7369   4.208   4.005   0.570
 2284WAT      O 7370   4.006   3.821   0.768
 2284WAT     H1 7371   3.976   3.909   0.791
 2284WAT     H2 7372   4.101   3.827   0.772
 2285WAT      O 7373   4.935   4.142   0.407
 2285WAT     H1 7374   5.007   4.191   0.368
 2285WAT     H2 7375   4.914   4.074   0.343
 2286WAT      O 7376   4.473   4.149   0.996
 2286WAT     H1 7377   4.466   4.057   0.970
 2286WAT     H2 7378   4.410   4.159   1.067
 2287WAT      O 7379   3.863   4.209   0.192
 2287WAT     H1 7380   3.915   4.129   0.186
 2287WAT     H2 7381   3.818   4.203   0.276
 2288WAT      O 7382   3.612   3.905   0.883
 2288WAT     H1 7383   3.576   3.972   0.942
 2288WAT     H2 7384   3.582   3.822   0.920
 2289WAT      O 7385   3.932   3.951   1.171
 2289WAT     H1 7386   3.902   3.966   1.081
 2289WAT     H2 7387   4.009   3.895   1.162
 2290WAT      O 7388   4.466   4.431   0.971
 2290WAT     H1 7389   4.467   4.338   0.949
 2290WAT     H2 7390   4.395   4.440   1.035
 2291WAT      O 7391   5.087   4.095   0.905
 2291WAT     H1 7392   5.015   4.154   0.886
 2291WAT     H2 7393   5.140   4.094   0.826
 2292WAT      O 7394   4.640   4.268   0.255
 2292WAT     H1 7395   4.675   4.208   0.189
 2292WAT     H2 7396   4.552   4.235   0.272
 2293WAT      O 7397   4.409   4.595   0.680
 2293WAT     H1 7398   4.474   4.616   0.748
 2293WAT     H2 7399   4.446   4.519   0.635
 2294WAT      O 7400   4.537   4.396   0.552
 2294WAT     H1 7401   4.601   4.325   0.563
 2294WAT     H2 7402   4.589   4.473   0.534
 2295WAT      O 7403   4.714   4.475   0.872
 2295WAT     H1 7404   4.748   4.534   0.940
 2295WAT     H2 7405   4.622   4.462   0.895
 2296WAT      O 7406   3.469   3.254   0.951
 2296WAT     H1 7407   3.398   3.274   1.011
 2296WAT     H2 7408   3.511   3.177   0.988
 2297WAT      O 7409   3.498   4.653   1.049
 2297WAT     H1 7410   3.509   4.559   1.035
 2297WAT     H2 7411   3.433   4.680   0.984
 2298WAT      O 7412   4.297   4.480   1.189
 2298WAT     H1 7413   4.265   4.408   1.244
 2298WAT     H2 7414   4.229   4.548   1.197
 2299WAT      O 7415   4.618   3.504   0.726
 2299WAT     H1 7416   4.655   3.422   0.758
 2299WAT     H2 7417   4.532   3.510   0.767
 2300WAT      O 7418   4.314   3.769   0.748
 2300WAT     H1 7419   4.364   3.816   0.814
 2300WAT     H2 7420   4.329   3.677   0.769
 2301WAT      O 7421   5.035   3.391   0.832
 2301WAT     H1 7422   4.985   3.465   0.866
 2301WAT     H2 7423   5.117   3.430   0.801
 2302WAT      O 7424   4.864   3.915   0.177
 2302WAT     H1 7425   4.770   3.917   0.194
 2302WAT     H2 7426   4.896   3.836   0.221
 2303WAT      O 7427   5.065   4.632   0.344
 2303WAT     H1 7428   5.077   4.714   0.392
 2303WAT     H2 7429   5.151   4.611   0.310
 2304WAT      O 7430   3.812   4.841   0.312
 2304WAT     H1 7431   3.885   4.787   0.339
 2304WAT     H2 7432   3.850   4.928   0.298
 2305WAT      O 7433   3.712   4.760   1.230
 2305WAT     H1 7434   3.792   4.792   1.272
 2305WAT     H2 7435   3.661   4.724   1.303
 2306WAT      O 7436   4.596   4.371   1.225
 2306WAT     H1 7437   4.535   4.373   1.151
 2306WAT     H2 7438   4.566   4.298   1.279
 2307WAT      O 7439   4.739   4.744   1.086
 2307WAT     H1 7440   4.834   4.735   1.081
 2307WAT     H2 7441   4.724   4.810   1.154
 2308WAT      O 7442   3.484   4.009   1.125
 2308WAT     H1 7443   3.535   3.951   1.182
 2308WAT     H2 7444   3.410   4.037   1.179
 2309WAT      O 7445   4.190   4.149   1.078
 2309WAT     H1 7446   4.113   4.206   1.070
 2309WAT     H2 7447   4.208   4.120   0.989
 2310WAT      O 7448   4.904   4.322   1.134
 2310WAT     H1 7449   4.978   4.356   1.084
 2310WAT     H2 7450   4.828   4.339   1.079
 2311WAT      O 7451   3.688   3.823   1.214
 2311WAT     H1 7452   3.692   3.793   1.305
 2311WAT     H2 7453   3.773   3.863   1.198
 2312WAT      O 7454   3.882   3.681   1.011
 2312WAT     H1 7455   3.829   3.632   0.948
 2312WAT     H2 7456   3.949   3.724   0.958
 2313WAT      O 7457   4.771   4.128   0.987
 2313WAT     H1 7458   4.813   4.143   1.072
 2313WAT     H2 7459   4.678   4.140   1.004
 2314WAT      O 7460   4.819   3.862   1.188
 2314WAT     H1 7461   4.877   3.786   1.179
 2314WAT     H2 7462   4.836   3.915   1.110
 2315WAT      O 7463   3.930   3.377   1.019
 2315WAT     H1 7464   3.921   3.316   0.946
 2315WAT     H2 7465   3.872   3.450   0.996
 2316WAT      O 7466   4.207   3.233   0.722
 2316WAT     H1 7467   4.162   3.235   0.638
 2316WAT     H2 7468   4.144   3.193   0.782
 2317WAT      O 7469   4.248   4.123   0.784
 2317WAT     H1 7470   4.289   4.207   0.767
 2317WAT     H2 7471   4.156   4.136   0.761
 2318WAT      O 7472   4.481   3.896   0.923
 2318WAT     H1 7473   4.493   3.836   0.997
 2318WAT     H2 7474   4.567   3.900   0.881
 2319WAT      O 7475   4.715   3.951   0.780
 2319WAT     H1 7476   4.662   4.004   0.720
 2319WAT     H2 7477   4.749   4.015   0.843
 2320WAT      O 7478   4.033   4.753   0.896
 2320WAT     H1 7479   3.979   4.826   0.864
 2320WAT     H2 7480   4.058   4.706   0.817
 2321WAT      O 7481   4.158   3.550   1.049
 2321WAT     H1 7482   4.217   3.519   1.117
 2321WAT     H2 7483   4.076   3.503   1.064
 2322WAT      O 7484   4.640   3.512   1.072
 2322WAT     H1 7485   4.571   3.446   1.065
 2322WAT     H2 7486   4.712   3.467   1.116
 2323WAT      O 7487   4.318   4.877   0.922
 2323WAT     H1 7488   4.311   4.967   0.953
 2323WAT     H2 7489   4.228   4.845   0.919
 2324WAT      O 7490   3.459   4.610   0.252
 2324WAT     H1 7491   3.492   4.523   0.229
 2324WAT     H2 7492   3.501   4.630   0.335
 2325WAT      O 7493   3.507   4.696   0.526
 2325WAT     H1 7494   3.464   4.714   0.609
 2325WAT     H2 7495   3.564   4.772   0.512
 2326WAT      O 7496   5.071   4.646   0.955
 2326WAT     H1 7497   5.011   4.652   0.880
 2326WAT     H2 7498   5.084   4.552   0.968
 2327WAT      O 7499   5.241   4.181   0.223
 2327WAT     H1 7500   5.278   4.102   0.183
 2327WAT     H2 7501   5.305   4.249   0.205
 2328WAT      O 7502   4.940   4.319   0.765
 2328WAT     H1 7503   4.858   4.362   0.791
 2328WAT     H2 7504   4.980   4.380   0.703
 2329WAT      O 7505   3.594   3.986   0.616
 2329WAT     H1 7506   3.631   3.977   0.704
 2329WAT     H2 7507   3.538   3.910   0.606
 2330WAT      O 7508   5.074   3.833   0.917
 2330WAT     H1 7509   5.051   3.810   0.827
 2330WAT     H2 7510   5.101   3.925   0.913
 2331WAT      O 7511   3.550   3.677   1.006
 2331WAT     H1 7512   3.460   3.674   1.040
 2331WAT     H2 7513   3.604   3.697   1.083
 2332WAT      O 7514   4.918   3.355   1.195
 2332WAT     H1 7515   5.006   3.356   1.233
 2332WAT     H2 7516   4.920   3.282   1.134
 2333WAT      O 7517   5.063   3.741   0.284
 2333WAT     H1 7518   5.115   3.691   0.221
 2333WAT     H2 7519   5.122   3.754   0.358
 2334WAT      O 7520   5.081   3.749   0.636
 2334WAT     H1 7521   4.986   3.746   0.648
 2334WAT     H2 7522   5.099   3.840   0.613
 2335WAT      O 7523   3.600   3.105   0.441
 2335WAT     H1 7524   3.665   3.050   0.397
 2335WAT     H2 7525   3.642   3.130   0.523
 2336WAT      O 7526   4.990   3.124   0.777
 2336WAT     H1 7527   5.053   3.185   0.814
 2336WAT     H2 7528   5.004   3.128   0.683
 2337WAT      O 7529   3.575   3.120   0.716
 2337WAT     H1 7530   3.540   3.166   0.792
 2337WAT     H2 7531   3.542   3.031   0.724
 2338WAT      O 7532   3.736   4.437   1.132
 2338WAT     H1 7533   3.732   4.400   1.220
 2338WAT     H2 7534   3.749   4.531   1.146
 2339WAT      O 7535   4.106   4.593   0.692
 2339WAT     H1 7536   4.082   4.620   0.603
 2339WAT     H2 7537   4.200   4.610   0.698
 2340WAT      O 7538   4.327   3.239   1.068
 2340WAT     H1 7539   4.320   3.298   1.143
 2340WAT     H2 7540   4.421   3.228   1.053
 2341WAT      O 7541   4.590   3.205   1.032
 2341WAT     H1 7542   4.652   3.237   0.965
 2341WAT     H2 7543   4.645   3.156   1.094
 2342WAT      O 7544   5.232   4.795   0.772
 2342WAT     H1 7545   5.183   4.835   0.701
 2342WAT     H2 7546   5.171   4.732   0.812
 2343WAT      O 7547   3.643   3.073   1.043
 2343WAT     H1 7548   3.697   3.055   0.967
 2343WAT     H2 7549   3.649   2.994   1.097
 2344WAT      O 7550   3.720   4.732   0.844
 2344WAT     H1 7551   3.660   4.719   0.918
 2344WAT     H2 7552   3.719   4.648   0.797
 2345WAT      O 7553   4.664   3.061   0.664
 2345WAT     H1 7554   4.577   3.095   0.644
 2345WAT     H2 7555   4.653   3.014   0.747
 2346WAT      O 7556   4.755   3.282   0.803
 2346WAT     H1 7557   4.722   3.200   0.765
 2346WAT     H2 7558   4.850   3.278   0.790
 2347WAT      O 7559   5.000   4.859   0.500
 2347WAT     H1 7560   4.954   4.934   0.463
 2347WAT     H2 7561   4.938   4.787   0.494
 2348WAT      O 7562   3.683   4.469   0.739
 2348WAT     H1 7563   3.610   4.407   0.732
 2348WAT     H2 7564   3.689   4.508   0.652
 2349WAT      O 7565   4.043   4.690   0.418
 2349WAT     H1 7566   4.095   4.629   0.365
 2349WAT     H2 7567   4.108   4.740   0.467
 2350WAT      O 7568   4.317   4.779   0.500
 2350WAT     H1 7569   4.346   4.754   0.413
 2350WAT     H2 7570   4.369   4.724   0.559
 2351WAT      O 7571   4.439   3.153   0.558
 2351WAT     H1 7572   4.361   3.200   0.586
 2351WAT     H2 7573   4.410   3.062   0.547
 2352WAT      O 7574   4.894   3.223   0.363
 2352WAT     H1 7575   4.938   3.218   0.278
 2352WAT     H2 7576   4.867   3.315   0.370
 2353WAT      O 7577   4.678   3.061   0.233
 2353WAT     H1 7578   4.738   3.118   0.281
 2353WAT     H2 7579   4.604   3.118   0.211
 2354WAT      O 7580   4.324   4.871   1.237
 2354WAT     H1 7581   4.417   4.848   1.241
 2354WAT     H2 7582   4.323   4.954   1.189
 2355WAT      O 7583   4.043   3.138   1.213
 2355WAT     H1 7584   4.015   3.188   1.137
 2355WAT     H2 7585   4.081   3.058   1.177
 2356WAT      O 7586   4.703   3.079   1.271
 2356WAT     H1 7587   4.692   3.111   1.361
 2356WAT     H2 7588   4.785   3.119   1.242
 2357WAT      O 7589   4.981   4.794   1.219
 2357WAT     H1 7590   5.060   4.744   1.199
 2357WAT     H2 7591   5.010   4.862   1.280
 2358WAT      O 7592   4.593   2.004   5.817
 2358WAT     H1 7593   4.585   1.912   5.790
 2358WAT     H2 7594   4.552   2.053   5.747
 2359WAT      O 7595   4.407   2.181   6.005
 2359WAT     H1 7596   4.329   2.133   6.034
 2359WAT     H2 7597   4.472   2.114   5.988
 2360WAT      O 7598   4.809   2.622   5.883
 2360WAT     H1 7599   4.763   2.545   5.916
 2360WAT     H2 7600   4.890   2.625   5.934
 2361WAT      O 7601   3.806   2.616   6.113
 2361WAT     H1 7602   3.837   2.527   6.095
 2361WAT     H2 7603   3.881   2.672   6.090
 2362WAT      O 7604   3.649   1.709   5.472
 2362WAT     H1 7605   3.560   1.743   5.461
 2362WAT     H2 7606   3.678   1.689   5.382
 2363WAT      O 7607   3.446   1.969   6.060
 2363WAT     H1 7608   3.503   1.892   6.060
 2363WAT     H2 7609   3.446   1.999   5.969
 2364WAT      O 7610   4.431   2.851   5.845
 2364WAT     H1 7611   4.369   2.896   5.788
 2364WAT     H2 7612   4.517   2.866   5.805
 2365WAT      O 7613   4.351   2.449   6.006
 2365WAT     H1 7614   4.344   2.355   5.990
 2365WAT     H2 7615   4.427   2.458   6.063
 2366WAT      O 7616   4.454   1.730   6.029
 2366WAT     H1 7617   4.491   1.642   6.018
 2366WAT     H2 7618   4.444   1.763   5.940
 2367WAT      O 7619   3.867   1.567   5.575
 2367WAT     H1 7620   3.878   1.657   5.606
 2367WAT     H2 7621   3.776   1.562   5.546
 2368WAT      O 7622   4.832   1.479   5.722
 2368WAT     H1 7623   4.914   1.430   5.726
 2368WAT     H2 7624   4.835   1.538   5.797
 2369WAT      O 7625   4.051   1.864   6.008
 2369WAT     H1 7626   4.102   1.914   6.072
 2369WAT     H2 7627   4.104   1.786   5.991
 2370WAT      O 7628   4.518   2.339   5.585
 2370WAT     H1 7629   4.456   2.386   5.528
 2370WAT     H2 7630   4.569   2.408   5.626
 2371WAT      O 7631   4.856   1.673   5.999
 2371WAT     H1 7632   4.785   1.702   6.057
 2371WAT     H2 7633   4.892   1.754   5.963
 2372WAT      O 7634   3.455   2.408   5.322
 2372WAT     H1 7635   3.417   2.456   5.249
 2372WAT     H2 7636   3.481   2.475   5.385
 2373WAT      O 7637   5.163   1.618   6.038
 2373WAT     H1 7638   5.068   1.621   6.052
 2373WAT     H2 7639   5.195   1.699   6.077
 2374WAT      O 7640   4.216   1.248   5.868
 2374WAT     H1 7641   4.246   1.192   5.796
 2374WAT     H2 7642   4.123   1.261   5.850
 2375WAT      O 7643   4.771   2.819   6.097
 2375WAT     H1 7644   4.772   2.779   6.010
 2375WAT     H2 7645   4.716   2.897   6.087
 2376WAT      O 7646   4.900   2.492   5.606
 2376WAT     H1 7647   4.889   2.397   5.618
 2376WAT     H2 7648   4.900   2.528   5.695
 2377WAT      O 7649   4.455   2.054   5.542
 2377WAT     H1 7650   4.362   2.048   5.565
 2377WAT     H2 7651   4.470   2.148   5.530
 2378WAT      O 7652   4.453   1.681   5.241
 2378WAT     H1 7653   4.359   1.698   5.250
 2378WAT     H2 7654   4.485   1.753   5.187
 2379WAT      O 7655   4.857   2.210   5.592
 2379WAT     H1 7656   4.796   2.177   5.527
 2379WAT     H2 7657   4.856   2.146   5.663
 2380WAT      O 7658   4.015   2.107   5.820
 2380WAT     H1 7659   3.975   2.036   5.770
 2380WAT     H2 7660   4.024   2.072   5.909
 2381WAT      O 7661   4.062   2.476   6.036
 2381WAT     H1 7662   4.032   2.415   5.968
 2381WAT     H2 7663   4.157   2.479   6.025
 2382WAT      O 7664   4.675   2.134   5.293
 2382WAT     H1 7665   4.719   2.051   5.278
 2382WAT     H2 7666   4.746   2.198   5.301
 2383WAT      O 7667   4.486   2.628   5.690
 2383WAT     H1 7668   4.530   2.703   5.648
 2383WAT     H2 7669   4.480   2.653   5.782
 2384WAT      O 7670   5.033   1.260   5.124
 2384WAT     H1 7671   5.002   1.269   5.214
 2384WAT     H2 7672   5.109   1.318   5.119
 2385WAT      O 7673   3.685   1.996   5.570
 2385WAT     H1 7674   3.673   2.069   5.509
 2385WAT     H2 7675   3.654   1.919   5.522
 2386WAT      O 7676   3.573   2.484   5.792
 2386WAT     H1 7677   3.533   2.498   5.706
 2386WAT     H2 7678   3.663   2.455   5.771
 2387WAT      O 7679   4.753   2.927   5.425
 2387WAT     H1 7680   4.737   2.898   5.515
 2387WAT     H2 7681   4.736   2.849   5.372
 2388WAT      O 7682   4.001   2.905   5.603
 2388WAT     H1 7683   3.983   2.813   5.582
 2388WAT     H2 7684   3.915   2.941   5.627
 2389WAT      O 7685   4.723   2.678   5.281
 2389WAT     H1 7686   4.654   2.678   5.215
 2389WAT     H2 7687   4.797   2.635   5.238
 2390WAT      O 7688   4.680   2.840   5.689
 2390WAT     H1 7689   4.725   2.762   5.720
 2390WAT     H2 7690   4.713   2.912   5.743
 2391WAT      O 7691   3.932   1.331   5.908
 2391WAT     H1 7692   3.887   1.409   5.875
 2391WAT     H2 7693   3.988   1.363   5.979
 2392WAT      O 7694   4.243   1.293   5.396
 2392WAT     H1 7695   4.181   1.292   5.469
 2392WAT     H2 7696   4.235   1.206   5.357
 2393WAT      O 7697   4.136   1.385   6.094
 2393WAT     H1 7698   4.165   1.476   6.086
 2393WAT     H2 7699   4.190   1.336   6.033
 2394WAT      O 7700   3.911   1.843   5.681
 2394WAT     H1 7701   3.888   1.821   5.771
 2394WAT     H2 7702   3.833   1.886   5.646
 2395WAT      O 7703   4.634   1.844   5.541
 2395WAT     H1 7704   4.574   1.916   5.522
 2395WAT     H2 7705   4.689   1.837   5.463
 2396WAT      O 7706   4.495   1.707   5.744
 2396WAT     H1 7707   4.534   1.739   5.663
 2396WAT     H2 7708   4.531   1.619   5.755
 2397WAT      O 7709   3.398   1.366   5.966
 2397WAT     H1 7710   3.369   1.423   6.037
 2397WAT     H2 7711   3.473   1.318   6.002
 2398WAT      O 7712   3.417   1.761   5.087
 2398WAT     H1 7713   3.409   1.855   5.101
 2398WAT     H2 7714   3.382   1.746   4.999
 2399WAT      O 7715   4.197   1.634   5.994
 2399WAT     H1 7716   4.197   1.590   5.909
 2399WAT     H2 7717   4.286   1.666   6.005
 2400WAT      O 7718   3.782   1.622   5.890
 2400WAT     H1 7719   3.748   1.670   5.966
 2400WAT     H2 7720   3.706   1.577   5.854
 2401WAT      O 7721   4.203   1.734   5.293
 2401WAT     H1 7722   4.215   1.730   5.388
 2401WAT     H2 7723   4.165   1.820   5.277
 2402WAT      O 7724   4.104   1.965   5.233
 2402WAT     H1 7725   4.047   1.920   5.170
 2402WAT     H2 7726   4.175   2.001   5.179
 2403WAT      O 7727   3.513   1.514   5.782
 2403WAT     H1 7728   3.485   1.478   5.865
 2403WAT     H2 7729   3.507   1.441   5.720
 2404WAT      O 7730   3.859   2.365   5.460
 2404WAT     H1 7731   3.781   2.311   5.444
 2404WAT     H2 7732   3.932   2.313   5.426
 2405WAT      O 7733   4.935   2.264   6.039
 2405WAT     H1 7734   5.007   2.314   6.000
 2405WAT     H2 7735   4.914   2.196   5.975
 2406WAT      O 7736   4.481   1.404   5.454
 2406WAT     H1 7737   4.399   1.354   5.446
 2406WAT     H2 7738   4.461   1.488   5.412
 2407WAT      O 7739   4.752   1.841   5.283
 2407WAT     H1 7740   4.841   1.872   5.266
 2407WAT     H2 7741   4.749   1.754   5.244
 2408WAT      O 7742   3.863   2.331   5.824
 2408WAT     H1 7743   3.915   2.251   5.818
 2408WAT     H2 7744   3.818   2.325   5.908
 2409WAT      O 7745   4.352   2.458   5.351
 2409WAT     H1 7746   4.386   2.533   5.302
 2409WAT     H2 7747   4.269   2.489   5.387
 2410WAT      O 7748   4.979   1.972   5.230
 2410WAT     H1 7749   4.971   2.015   5.145
 2410WAT     H2 7750   5.051   2.018   5.273
 2411WAT      O 7751   5.082   2.657   5.503
 2411WAT     H1 7752   5.018   2.592   5.530
 2411WAT     H2 7753   5.044   2.698   5.425
 2412WAT      O 7754   4.640   2.390   5.888
 2412WAT     H1 7755   4.675   2.331   5.822
 2412WAT     H2 7756   4.552   2.358   5.905
 2413WAT      O 7757   4.249   2.466   5.628
 2413WAT     H1 7758   4.317   2.521   5.666
 2413WAT     H2 7759   4.170   2.521   5.632
 2414WAT      O 7760   3.463   2.028   5.177
 2414WAT     H1 7761   3.550   2.056   5.206
 2414WAT     H2 7762   3.414   2.109   5.166
 2415WAT      O 7763   4.179   2.167   5.590
 2415WAT     H1 7764   4.225   2.248   5.612
 2415WAT     H2 7765   4.144   2.135   5.673
 2416WAT      O 7766   3.769   1.201   5.637
 2416WAT     H1 7767   3.756   1.200   5.732
 2416WAT     H2 7768   3.687   1.235   5.602
 2417WAT      O 7769   4.921   2.547   5.157
 2417WAT     H1 7770   4.899   2.475   5.216
 2417WAT     H2 7771   4.882   2.522   5.073
 2418WAT      O 7772   3.499   2.949   5.234
 2418WAT     H1 7773   3.535   3.009   5.169
 2418WAT     H2 7774   3.485   3.004   5.311
 2419WAT      O 7775   4.879   2.338   5.323
 2419WAT     H1 7776   4.851   2.384   5.402
 2419WAT     H2 7777   4.959   2.292   5.350
 2420WAT      O 7778   4.101   2.688   5.316
 2420WAT     H1 7779   4.100   2.761   5.254
 2420WAT     H2 7780   4.009   2.663   5.325
 2421WAT      O 7781   3.661   2.210   5.390
 2421WAT     H1 7782   3.600   2.284   5.391
 2421WAT     H2 7783   3.709   2.219   5.308
 2422WAT      O 7784   4.955   1.522   5.439
 2422WAT     H1 7785   4.892   1.532   5.367
 2422WAT     H2 7786   4.906   1.544   5.518
 2423WAT      O 7787   4.400   2.694   5.182
 2423WAT     H1 7788   4.410   2.673   5.089
 2423WAT     H2 7789   4.310   2.668   5.203
 2424WAT      O 7790   4.152   1.750   5.580
 2424WAT     H1 7791   4.081   1.796   5.624
 2424WAT     H2 7792   4.180   1.684   5.644
 2425WAT      O 7793   4.555   1.422   5.724
 2425WAT     H1 7794   4.543   1.424   5.629
 2425WAT     H2 7795   4.650   1.427   5.736
 2426WAT      O 7796   4.264   2.946   5.652
 2426WAT     H1 7797   4.289   2.942   5.559
 2426WAT     H2 7798   4.169   2.933   5.651
 2427WAT      O 7799   3.972   1.580   5.318
 2427WAT     H1 7800   4.057   1.624   5.311
 2427WAT     H2 7801   3.936   1.612   5.401
 2428WAT      O 7802   4.864   2.038   5.809
 2428WAT     H1 7803   4.770   2.039   5.827
 2428WAT     H2 7804   4.896   1.959   5.854
 2429WAT      O 7805   3.862   2.206   5.165
 2429WAT     H1 7806   3.939   2.195   5.221
 2429WAT     H2 7807   3.870   2.136   5.100
 2430WAT      O 7808   3.732   1.949   5.234
 2430WAT     H1 7809   3.740   1.854   5.245
 2430WAT     H2 7810   3.821   1.982   5.244
 2431WAT      O 7811   5.065   2.755   5.977
 2431WAT     H1 7812   5.077   2.837   6.024
 2431WAT     H2 7813   5.151   2.734   5.942
 2432WAT      O 7814   3.812   2.964   5.944
 2432WAT     H1 7815   3.885   2.909   5.971
 2432WAT     H2 7816   3.850   3.051   5.930
 2433WAT      O 7817   3.500   2.571   5.531
 2433WAT     H1 7818   3.408   2.595   5.530
 2433WAT     H2 7819   3.547   2.653   5.519
 2434WAT      O 7820   4.123   2.881   5.126
 2434WAT     H1 7821   4.202   2.910   5.081
 2434WAT     H2 7822   4.071   2.838   5.058
 2435WAT      O 7823   5.028   2.804   5.268
 2435WAT     H1 7824   5.000   2.763   5.187
 2435WAT     H2 7825   5.008   2.897   5.256
 2436WAT      O 7826   4.175   2.403   5.113
 2436WAT     H1 7827   4.164   2.342   5.185
 2436WAT     H2 7828   4.158   2.351   5.034
 2437WAT      O 7829   4.499   2.310   5.173
 2437WAT     H1 7830   4.444   2.354   5.237
 2437WAT     H2 7831   4.561   2.259   5.225
 2438WAT      O 7832   4.065   2.205   5.363
 2438WAT     H1 7833   4.108   2.189   5.447
 2438WAT     H2 7834   4.078   2.124   5.313
 2439WAT      O 7835   4.317   2.108   5.087
 2439WAT     H1 7836   4.369   2.036   5.051
 2439WAT     H2 7837   4.381   2.172   5.117
 2440WAT      O 7838   3.955   1.813   5.057
 2440WAT     H1 7839   3.935   1.726   5.093
 2440WAT     H2 7840   3.938   1.804   4.963
 2441WAT      O 7841   4.703   1.294   5.310
 2441WAT     H1 7842   4.731   1.210   5.346
 2441WAT     H2 7843   4.625   1.317   5.361
 2442WAT      O 7844   3.835   1.523   5.056
 2442WAT     H1 7845   3.865   1.523   4.965
 2442WAT     H2 7846   3.909   1.488   5.106
 2443WAT      O 7847   4.157   1.417   5.155
 2443WAT     H1 7848   4.122   1.349   5.097
 2443WAT     H2 7849   4.177   1.371   5.236
 2444WAT      O 7850   4.373   2.916   5.316
 2444WAT     H1 7851   4.463   2.950   5.319
 2444WAT     H2 7852   4.376   2.844   5.254
 2445WAT      O 7853   3.737   2.453   5.139
 2445WAT     H1 7854   3.781   2.508   5.205
 2445WAT     H2 7855   3.786   2.371   5.140
 2446WAT      O 7856   3.459   2.732   5.884
 2446WAT     H1 7857   3.492   2.645   5.861
 2446WAT     H2 7858   3.501   2.753   5.968
 2447WAT      O 7859   3.918   2.565   5.650
 2447WAT     H1 7860   3.888   2.553   5.741
 2447WAT     H2 7861   3.908   2.479   5.610
 2448WAT      O 7862   5.195   2.543   5.121
 2448WAT     H1 7863   5.112   2.550   5.168
 2448WAT     H2 7864   5.213   2.632   5.090
 2449WAT      O 7865   5.141   2.218   5.371
 2449WAT     H1 7866   5.217   2.275   5.382
 2449WAT     H2 7867   5.142   2.161   5.448
 2450WAT      O 7868   3.491   2.070   5.794
 2450WAT     H1 7869   3.425   2.043   5.730
 2450WAT     H2 7870   3.574   2.059   5.749
 2451WAT      O 7871   5.241   2.303   5.856
 2451WAT     H1 7872   5.278   2.225   5.815
 2451WAT     H2 7873   5.305   2.372   5.838
 2452WAT      O 7874   5.146   2.247   5.087
 2452WAT     H1 7875   5.173   2.338   5.074
 2452WAT     H2 7876   5.127   2.241   5.180
 2453WAT      O 7877   4.786   1.549   5.216
 2453WAT     H1 7878   4.827   1.531   5.132
 2453WAT     H2 7879   4.755   1.464   5.247
 2454WAT      O 7880   5.135   2.041   5.586
 2454WAT     H1 7881   5.098   1.964   5.543
 2454WAT     H2 7882   5.063   2.079   5.635
 2455WAT      O 7883   3.412   1.791   5.388
 2455WAT     H1 7884   3.322   1.817   5.371
 2455WAT     H2 7885   3.460   1.818   5.310
 2456WAT      O 7886   5.063   1.863   5.916
 2456WAT     H1 7887   5.115   1.814   5.853
 2456WAT     H2 7888   5.122   1.877   5.991
 2457WAT      O 7889   3.666   1.697   5.179
 2457WAT     H1 7890   3.737   1.654   5.131
 2457WAT     H2 7891   3.595   1.703   5.116
 2458WAT      O 7892   3.631   1.302   5.083
 2458WAT     H1 7893   3.703   1.356   5.115
 2458WAT     H2 7894   3.658   1.275   4.996
 2459WAT      O 7895   5.012   1.789   5.510
 2459WAT     H1 7896   5.062   1.766   5.589
 2459WAT     H2 7897   4.992   1.705   5.468
 2460WAT      O 7898   5.155   1.653   5.763
 2460WAT     H1 7899   5.144   1.637   5.857
 2460WAT     H2 7900   5.231   1.600   5.739
 2461WAT      O 7901   5.244   1.436   5.088
 2461WAT     H1 7902   5.336   1.422   5.067
 2461WAT     H2 7903   5.242   1.444   5.183
 2462WAT      O 7904   5.251   1.513   5.350
 2462WAT     H1 7905   5.172   1.506   5.403
 2462WAT     H2 7906   5.272   1.606   5.349
 2463WAT      O 7907   4.945   2.917   5.749
 2463WAT     H1 7908   5.005   2.885   5.682
 2463WAT     H2 7909   4.971   2.869   5.829
 2464WAT      O 7910   5.000   2.982   6.132
 2464WAT     H1 7911   4.954   3.057   6.095
 2464WAT     H2 7912   4.938   2.910   6.127
 2465WAT      O 7913   4.043   2.813   6.050
 2465WAT     H1 7914   4.095   2.751   5.997
 2465WAT     H2 7915   4.108   2.863   6.099
 2466WAT      O 7916   4.894   1.346   5.995
 2466WAT     H1 7917   4.938   1.340   5.910
 2466WAT     H2 7918   4.867   1.437   6.002
 2467WAT      O 7919   5.081   1.309   5.796
 2467WAT     H1 7920   5.075   1.215   5.781
 2467WAT     H2 7921   5.159   1.320   5.851
 2468WAT      O 7922   3.511   2.923   5.692
 2468WAT     H1 7923   3.494   2.860   5.762
 2468WAT     H2 7924   3.425   2.943   5.657
 2469WAT      O 7925   3.574   1.306   5.443
 2469WAT     H1 7926   3.649   1.317   5.385
 2469WAT     H2 7927   3.527   1.390   5.438
 2470WAT      O 7928   4.228   1.517   5.742
 2470WAT     H1 7929   4.146   1.480   5.708
 2470WAT     H2 7930   4.278   1.442   5.772
 2471WAT      O 7931   4.678   1.184   5.866
 2471WAT     H1 7932   4.738   1.241   5.913
 2471WAT     H2 7933   4.604   1.240   5.843
 2472WAT      O 7934   4.992   1.224   5.393
 2472WAT     H1 7935   5.012   1.314   5.420
 2472WAT     H2 7936   4.914   1.201   5.442
 2473WAT      O 7937   3.672   2.792   5.437
 2473WAT     H1 7938   3.619   2.830   5.367
 2473WAT     H2 7939   3.664   2.855   5.509
 2474WAT      O 7940   3.811   1.359   5.297
 2474WAT     H1 7941   3.864   1.280   5.284
 2474WAT     H2 7942   3.874   1.427   5.320
 2475WAT      O 7943   4.030   1.332   5.602
 2475WAT     H1 7944   3.967   1.262   5.619
 2475WAT     H2 7945   3.976   1.408   5.581
 2476WAT      O 7946   5.148   2.948   5.569
 2476WAT     H1 7947   5.165   2.879   5.505
 2476WAT     H2 7948   5.078   3.001   5.530
 2477WAT      O 7949   3.932   2.987   5.324
 2477WAT     H1 7950   4.005   2.959   5.270
 2477WAT     H2 7951   3.958   2.963   5.413
 2478WAT      O 7952   3.848   2.599   5.325
 2478WAT     H1 7953   3.785   2.645   5.380
 2478WAT     H2 7954   3.859   2.514   5.368
 2479WAT      O 7955   4.593   2.004   3.940
 2479WAT     H1 7956   4.585   1.912   3.913
 2479WAT     H2 7957   4.552   2.053   3.869
 2480WAT      O 7958   4.407   2.181   4.128
 2480WAT     H1 7959   4.329   2.133   4.157
 2480WAT     H2 7960   4.472   2.114   4.111
 2481WAT      O 7961   3.808   2.213   4.216
 2481WAT     H1 7962   3.725   2.187   4.256
 2481WAT     H2 7963   3.869   2.220   4.289
 2482WAT      O 7964   4.809   2.622   4.006
 2482WAT     H1 7965   4.763   2.545   4.039
 2482WAT     H2 7966   4.890   2.625   4.057
 2483WAT      O 7967   3.806   2.616   4.235
 2483WAT     H1 7968   3.837   2.527   4.217
 2483WAT     H2 7969   3.881   2.672   4.213
 2484WAT      O 7970   3.446   1.969   4.183
 2484WAT     H1 7971   3.503   1.892   4.183
 2484WAT     H2 7972   3.446   1.999   4.092
 2485WAT      O 7973   4.431   2.851   3.968
 2485WAT     H1 7974   4.369   2.896   3.911
 2485WAT     H2 7975   4.517   2.866   3.928
 2486WAT      O 7976   4.351   2.449   4.129
 2486WAT     H1 7977   4.344   2.355   4.113
 2486WAT     H2 7978   4.427   2.458   4.186
 2487WAT      O 7979   3.570   1.510   4.361
 2487WAT     H1 7980   3.552   1.420   4.389
 2487WAT     H2 7981   3.530   1.564   4.429
 2488WAT      O 7982   4.454   1.730   4.151
 2488WAT     H1 7983   4.491   1.642   4.140
 2488WAT     H2 7984   4.444   1.763   4.062
 2489WAT      O 7985   3.867   1.567   3.698
 2489WAT     H1 7986   3.878   1.657   3.728
 2489WAT     H2 7987   3.776   1.562   3.669
 2490WAT      O 7988   4.832   1.479   3.845
 2490WAT     H1 7989   4.914   1.430   3.849
 2490WAT     H2 7990   4.835   1.538   3.920
 2491WAT      O 7991   3.632   1.759   4.222
 2491WAT     H1 7992   3.700   1.786   4.284
 2491WAT     H2 7993   3.600   1.675   4.255
 2492WAT      O 7994   4.051   1.864   4.131
 2492WAT     H1 7995   4.102   1.914   4.195
 2492WAT     H2 7996   4.104   1.786   4.113
 2493WAT      O 7997   5.261   1.681   4.501
 2493WAT     H1 7998   5.191   1.720   4.449
 2493WAT     H2 7999   5.288   1.750   4.561
 2494WAT      O 8000   3.879   1.328   4.557
 2494WAT     H1 8001   3.879   1.380   4.477
 2494WAT     H2 8002   3.796   1.280   4.555
 2495WAT      O 8003   4.518   2.339   3.707
 2495WAT     H1 8004   4.456   2.386   3.651
 2495WAT     H2 8005   4.569   2.408   3.749
 2496WAT      O 8006   4.004   2.292   4.375
 2496WAT     H1 8007   3.971   2.354   4.439
 2496WAT     H2 8008   4.022   2.344   4.297
 2497WAT      O 8009   4.856   1.673   4.122
 2497WAT     H1 8010   4.785   1.702   4.180
 2497WAT     H2 8011   4.892   1.754   4.086
 2498WAT      O 8012   3.847   1.499   4.358
 2498WAT     H1 8013   3.882   1.583   4.329
 2498WAT     H2 8014   3.754   1.514   4.370
 2499WAT      O 8015   3.925   2.489   4.557
 2499WAT     H1 8016   3.987   2.556   4.529
 2499WAT     H2 8017   3.839   2.529   4.548
 2500WAT      O 8018   5.017   2.635   4.348
 2500WAT     H1 8019   4.949   2.702   4.347
 2500WAT     H2 8020   5.071   2.655   4.272
 2501WAT      O 8021   5.163   1.618   4.161
 2501WAT     H1 8022   5.068   1.621   4.174
 2501WAT     H2 8023   5.195   1.699   4.200
 2502WAT      O 8024   4.216   1.248   3.991
 2502WAT     H1 8025   4.246   1.192   3.919
 2502WAT     H2 8026   4.123   1.261   3.972
 2503WAT      O 8027   4.771   2.819   4.220
 2503WAT     H1 8028   4.772   2.779   4.133
 2503WAT     H2 8029   4.716   2.897   4.209
 2504WAT      O 8030   4.900   2.492   3.729
 2504WAT     H1 8031   4.889   2.397   3.741
 2504WAT     H2 8032   4.900   2.528   3.817
 2505WAT      O 8033   4.711   2.310   4.352
 2505WAT     H1 8034   4.752   2.288   4.269
 2505WAT     H2 8035   4.783   2.335   4.410
 2506WAT      O 8036   4.455   2.054   3.664
 2506WAT     H1 8037   4.362   2.048   3.687
 2506WAT     H2 8038   4.470   2.148   3.653
 2507WAT      O 8039   4.453   1.681   3.364
 2507WAT     H1 8040   4.359   1.698   3.372
 2507WAT     H2 8041   4.485   1.753   3.309
 2508WAT      O 8042   5.105   2.150   4.362
 2508WAT     H1 8043   5.023   2.157   4.314
 2508WAT     H2 8044   5.165   2.208   4.315
 2509WAT      O 8045   4.857   2.210   3.715
 2509WAT     H1 8046   4.796   2.177   3.650
 2509WAT     H2 8047   4.856   2.146   3.785
 2510WAT      O 8048   4.802   1.828   4.456
 2510WAT     H1 8049   4.760   1.911   4.482
 2510WAT     H2 8050   4.729   1.770   4.437
 2511WAT      O 8051   4.015   2.107   3.942
 2511WAT     H1 8052   3.975   2.036   3.893
 2511WAT     H2 8053   4.024   2.072   4.031
 2512WAT      O 8054   4.062   2.476   4.159
 2512WAT     H1 8055   4.032   2.415   4.091
 2512WAT     H2 8056   4.157   2.479   4.148
 2513WAT      O 8057   3.886   1.784   4.320
 2513WAT     H1 8058   3.942   1.795   4.243
 2513WAT     H2 8059   3.938   1.822   4.392
 2514WAT      O 8060   4.871   2.833   4.525
 2514WAT     H1 8061   4.823   2.914   4.506
 2514WAT     H2 8062   4.802   2.768   4.540
 2515WAT      O 8063   3.971   2.449   4.824
 2515WAT     H1 8064   3.881   2.472   4.849
 2515WAT     H2 8065   3.974   2.462   4.729
 2516WAT      O 8066   4.675   2.134   3.415
 2516WAT     H1 8067   4.719   2.051   3.401
 2516WAT     H2 8068   4.746   2.198   3.424
 2517WAT      O 8069   3.854   2.137   4.681
 2517WAT     H1 8070   3.840   2.224   4.718
 2517WAT     H2 8071   3.766   2.102   4.667
 2518WAT      O 8072   4.486   2.628   3.812
 2518WAT     H1 8073   4.530   2.703   3.771
 2518WAT     H2 8074   4.480   2.653   3.904
 2519WAT      O 8075   4.034   2.731   4.902
 2519WAT     H1 8076   4.031   2.771   4.816
 2519WAT     H2 8077   4.017   2.638   4.886
 2520WAT      O 8078   5.033   1.260   3.247
 2520WAT     H1 8079   5.002   1.269   3.337
 2520WAT     H2 8080   5.109   1.318   3.242
 2521WAT      O 8081   5.229   2.809   5.032
 2521WAT     H1 8082   5.276   2.857   5.100
 2521WAT     H2 8083   5.291   2.802   4.959
 2522WAT      O 8084   3.449   2.314   4.273
 2522WAT     H1 8085   3.457   2.327   4.179
 2522WAT     H2 8086   3.510   2.243   4.292
 2523WAT      O 8087   5.169   2.528   4.748
 2523WAT     H1 8088   5.182   2.504   4.656
 2523WAT     H2 8089   5.173   2.445   4.795
 2524WAT      O 8090   4.555   2.898   4.605
 2524WAT     H1 8091   4.607   2.890   4.685
 2524WAT     H2 8092   4.471   2.933   4.634
 2525WAT      O 8093   4.753   2.927   3.548
 2525WAT     H1 8094   4.737   2.898   3.638
 2525WAT     H2 8095   4.736   2.849   3.494
 2526WAT      O 8096   4.723   2.678   3.404
 2526WAT     H1 8097   4.654   2.678   3.338
 2526WAT     H2 8098   4.797   2.635   3.361
 2527WAT      O 8099   4.680   2.840   3.811
 2527WAT     H1 8100   4.725   2.762   3.843
 2527WAT     H2 8101   4.713   2.912   3.866
 2528WAT      O 8102   5.154   1.733   4.844
 2528WAT     H1 8103   5.093   1.784   4.792
 2528WAT     H2 8104   5.122   1.643   4.839
 2529WAT      O 8105   3.455   2.418   4.527
 2529WAT     H1 8106   3.471   2.371   4.445
 2529WAT     H2 8107   3.501   2.367   4.594
 2530WAT      O 8108   3.932   1.331   4.031
 2530WAT     H1 8109   3.887   1.409   3.998
 2530WAT     H2 8110   3.988   1.363   4.101
 2531WAT      O 8111   4.360   1.617   4.591
 2531WAT     H1 8112   4.314   1.638   4.672
 2531WAT     H2 8113   4.320   1.536   4.561
 2532WAT      O 8114   4.861   1.739   4.704
 2532WAT     H1 8115   4.775   1.710   4.736
 2532WAT     H2 8116   4.845   1.764   4.613
 2533WAT      O 8117   4.570   1.890   4.914
 2533WAT     H1 8118   4.603   1.806   4.880
 2533WAT     H2 8119   4.649   1.942   4.929
 2534WAT      O 8120   4.243   1.293   3.519
 2534WAT     H1 8121   4.181   1.292   3.591
 2534WAT     H2 8122   4.235   1.206   3.479
 2535WAT      O 8123   4.136   1.385   4.217
 2535WAT     H1 8124   4.165   1.476   4.209
 2535WAT     H2 8125   4.190   1.336   4.155
 2536WAT      O 8126   3.911   1.843   3.804
 2536WAT     H1 8127   3.888   1.821   3.894
 2536WAT     H2 8128   3.833   1.886   3.769
 2537WAT      O 8129   4.634   1.844   3.663
 2537WAT     H1 8130   4.574   1.916   3.645
 2537WAT     H2 8131   4.689   1.837   3.585
 2538WAT      O 8132   4.155   1.933   4.870
 2538WAT     H1 8133   4.145   1.839   4.855
 2538WAT     H2 8134   4.239   1.955   4.831
 2539WAT      O 8135   4.495   1.707   3.866
 2539WAT     H1 8136   4.534   1.739   3.785
 2539WAT     H2 8137   4.531   1.619   3.878
 2540WAT      O 8138   3.668   1.574   4.685
 2540WAT     H1 8139   3.629   1.659   4.706
 2540WAT     H2 8140   3.599   1.510   4.705
 2541WAT      O 8141   4.325   1.582   4.992
 2541WAT     H1 8142   4.256   1.563   5.056
 2541WAT     H2 8143   4.400   1.611   5.046
 2542WAT      O 8144   3.398   1.366   4.089
 2542WAT     H1 8145   3.369   1.423   4.160
 2542WAT     H2 8146   3.473   1.318   4.125
 2543WAT      O 8147   4.553   1.966   4.276
 2543WAT     H1 8148   4.480   2.017   4.311
 2543WAT     H2 8149   4.513   1.885   4.246
 2544WAT      O 8150   4.197   1.634   4.116
 2544WAT     H1 8151   4.197   1.590   4.032
 2544WAT     H2 8152   4.286   1.666   4.127
 2545WAT      O 8153   3.782   1.622   4.012
 2545WAT     H1 8154   3.748   1.670   4.088
 2545WAT     H2 8155   3.706   1.577   3.976
 2546WAT      O 8156   4.203   1.734   3.416
 2546WAT     H1 8157   4.215   1.730   3.510
 2546WAT     H2 8158   4.165   1.820   3.400
 2547WAT      O 8159   4.599   1.512   4.217
 2547WAT     H1 8160   4.601   1.557   4.302
 2547WAT     H2 8161   4.574   1.422   4.239
 2548WAT      O 8162   4.942   1.253   4.801
 2548WAT     H1 8163   4.975   1.180   4.854
 2548WAT     H2 8164   4.946   1.221   4.711
 2549WAT      O 8165   3.612   2.355   4.743
 2549WAT     H1 8166   3.574   2.291   4.803
 2549WAT     H2 8167   3.643   2.426   4.800
 2550WAT      O 8168   4.227   2.040   4.291
 2550WAT     H1 8169   4.264   1.993   4.366
 2550WAT     H2 8170   4.208   2.127   4.325
 2551WAT      O 8171   3.513   1.514   3.904
 2551WAT     H1 8172   3.485   1.478   3.988
 2551WAT     H2 8173   3.507   1.441   3.843
 2552WAT      O 8174   4.006   1.944   4.523
 2552WAT     H1 8175   3.976   2.032   4.545
 2552WAT     H2 8176   4.101   1.950   4.527
 2553WAT      O 8177   4.935   2.264   4.162
 2553WAT     H1 8178   5.007   2.314   4.123
 2553WAT     H2 8179   4.914   2.196   4.097
 2554WAT      O 8180   4.481   1.404   3.576
 2554WAT     H1 8181   4.399   1.354   3.569
 2554WAT     H2 8182   4.461   1.488   3.535
 2555WAT      O 8183   4.473   2.271   4.751
 2555WAT     H1 8184   4.466   2.179   4.725
 2555WAT     H2 8185   4.410   2.281   4.822
 2556WAT      O 8186   4.752   1.841   3.406
 2556WAT     H1 8187   4.841   1.872   3.388
 2556WAT     H2 8188   4.749   1.754   3.367
 2557WAT      O 8189   3.863   2.331   3.946
 2557WAT     H1 8190   3.915   2.251   3.941
 2557WAT     H2 8191   3.818   2.325   4.031
 2558WAT      O 8192   3.612   2.028   4.638
 2558WAT     H1 8193   3.576   2.095   4.696
 2558WAT     H2 8194   3.582   1.945   4.675
 2559WAT      O 8195   3.932   2.074   4.926
 2559WAT     H1 8196   3.902   2.088   4.836
 2559WAT     H2 8197   4.009   2.018   4.917
 2560WAT      O 8198   4.466   2.554   4.726
 2560WAT     H1 8199   4.467   2.460   4.704
 2560WAT     H2 8200   4.395   2.562   4.790
 2561WAT      O 8201   4.979   1.972   3.353
 2561WAT     H1 8202   4.971   2.015   3.268
 2561WAT     H2 8203   5.051   2.018   3.396
 2562WAT      O 8204   5.087   2.218   4.660
 2562WAT     H1 8205   5.015   2.277   4.641
 2562WAT     H2 8206   5.140   2.217   4.580
 2563WAT      O 8207   5.082   2.657   3.625
 2563WAT     H1 8208   5.018   2.592   3.653
 2563WAT     H2 8209   5.044   2.698   3.548
 2564WAT      O 8210   4.640   2.390   4.010
 2564WAT     H1 8211   4.675   2.331   3.944
 2564WAT     H2 8212   4.552   2.358   4.027
 2565WAT      O 8213   4.179   2.167   3.712
 2565WAT     H1 8214   4.225   2.248   3.735
 2565WAT     H2 8215   4.144   2.135   3.795
 2566WAT      O 8216   4.409   2.718   4.435
 2566WAT     H1 8217   4.474   2.738   4.503
 2566WAT     H2 8218   4.446   2.642   4.390
 2567WAT      O 8219   3.769   1.201   3.759
 2567WAT     H1 8220   3.756   1.200   3.854
 2567WAT     H2 8221   3.687   1.235   3.724
 2568WAT      O 8222   4.537   2.518   4.307
 2568WAT     H1 8223   4.601   2.448   4.318
 2568WAT     H2 8224   4.589   2.596   4.289
 2569WAT      O 8225   4.921   2.547   3.279
 2569WAT     H1 8226   4.899   2.475   3.338
 2569WAT     H2 8227   4.882   2.522   3.195
 2570WAT      O 8228   4.714   2.598   4.627
 2570WAT     H1 8229   4.748   2.657   4.695
 2570WAT     H2 8230   4.622   2.585   4.650
 2571WAT      O 8231   3.469   1.377   4.705
 2571WAT     H1 8232   3.398   1.397   4.766
 2571WAT     H2 8233   3.511   1.299   4.743
 2572WAT      O 8234   4.879   2.338   3.445
 2572WAT     H1 8235   4.851   2.384   3.524
 2572WAT     H2 8236   4.959   2.292   3.472
 2573WAT      O 8237   3.498   2.776   4.804
 2573WAT     H1 8238   3.509   2.682   4.790
 2573WAT     H2 8239   3.433   2.802   4.739
 2574WAT      O 8240   4.297   2.603   4.944
 2574WAT     H1 8241   4.265   2.531   4.999
 2574WAT     H2 8242   4.229   2.670   4.951
 2575WAT      O 8243   4.618   1.626   4.480
 2575WAT     H1 8244   4.655   1.544   4.513
 2575WAT     H2 8245   4.532   1.632   4.522
 2576WAT      O 8246   4.955   1.522   3.561
 2576WAT     H1 8247   4.892   1.532   3.490
 2576WAT     H2 8248   4.906   1.544   3.640
 2577WAT      O 8249   4.152   1.750   3.703
 2577WAT     H1 8250   4.081   1.796   3.747
 2577WAT     H2 8251   4.180   1.684   3.766
 2578WAT      O 8252   4.314   1.892   4.503
 2578WAT     H1 8253   4.364   1.939   4.569
 2578WAT     H2 8254   4.329   1.799   4.524
 2579WAT      O 8255   4.555   1.422   3.847
 2579WAT     H1 8256   4.543   1.424   3.752
 2579WAT     H2 8257   4.650   1.427   3.859
 2580WAT      O 8258   3.972   1.580   3.440
 2580WAT     H1 8259   4.057   1.624   3.434
 2580WAT     H2 8260   3.936   1.612   3.523
 2581WAT      O 8261   5.035   1.513   4.587
 2581WAT     H1 8262   4.985   1.587   4.621
 2581WAT     H2 8263   5.117   1.552   4.555
 2582WAT      O 8264   4.864   2.038   3.932
 2582WAT     H1 8265   4.770   2.039   3.949
 2582WAT     H2 8266   4.896   1.959   3.976
 2583WAT      O 8267   5.065   2.755   4.099
 2583WAT     H1 8268   5.077   2.837   4.146
 2583WAT     H2 8269   5.151   2.734   4.064
 2584WAT      O 8270   3.812   2.964   4.066
 2584WAT     H1 8271   3.885   2.909   4.093
 2584WAT     H2 8272   3.850   3.051   4.052
 2585WAT      O 8273   3.712   2.882   4.985
 2585WAT     H1 8274   3.792   2.915   5.027
 2585WAT     H2 8275   3.661   2.846   5.057
 2586WAT      O 8276   4.596   2.493   4.980
 2586WAT     H1 8277   4.535   2.496   4.906
 2586WAT     H2 8278   4.566   2.420   5.034
 2587WAT      O 8279   4.739   2.866   4.841
 2587WAT     H1 8280   4.834   2.858   4.836
 2587WAT     H2 8281   4.724   2.932   4.908
 2588WAT      O 8282   5.028   2.804   3.391
 2588WAT     H1 8283   5.000   2.763   3.310
 2588WAT     H2 8284   5.008   2.897   3.379
 2589WAT      O 8285   3.484   2.131   4.880
 2589WAT     H1 8286   3.535   2.073   4.937
 2589WAT     H2 8287   3.410   2.160   4.933
 2590WAT      O 8288   4.190   2.272   4.833
 2590WAT     H1 8289   4.113   2.329   4.825
 2590WAT     H2 8290   4.208   2.243   4.744
 2591WAT      O 8291   4.499   2.310   3.296
 2591WAT     H1 8292   4.444   2.354   3.360
 2591WAT     H2 8293   4.561   2.259   3.348
 2592WAT      O 8294   4.904   2.445   4.889
 2592WAT     H1 8295   4.978   2.479   4.838
 2592WAT     H2 8296   4.828   2.462   4.833
 2593WAT      O 8297   3.688   1.946   4.969
 2593WAT     H1 8298   3.692   1.916   5.060
 2593WAT     H2 8299   3.773   1.986   4.953
 2594WAT      O 8300   3.882   1.803   4.766
 2594WAT     H1 8301   3.829   1.754   4.703
 2594WAT     H2 8302   3.949   1.846   4.712
 2595WAT      O 8303   4.317   2.108   3.210
 2595WAT     H1 8304   4.369   2.036   3.173
 2595WAT     H2 8305   4.381   2.172   3.240
 2596WAT      O 8306   4.771   2.250   4.742
 2596WAT     H1 8307   4.813   2.266   4.827
 2596WAT     H2 8308   4.678   2.263   4.759
 2597WAT      O 8309   4.819   1.984   4.943
 2597WAT     H1 8310   4.877   1.909   4.934
 2597WAT     H2 8311   4.836   2.037   4.865
 2598WAT      O 8312   3.930   1.500   4.774
 2598WAT     H1 8313   3.921   1.438   4.701
 2598WAT     H2 8314   3.872   1.573   4.751
 2599WAT      O 8315   4.207   1.356   4.477
 2599WAT     H1 8316   4.162   1.358   4.393
 2599WAT     H2 8317   4.144   1.316   4.537
 2600WAT      O 8318   4.248   2.245   4.539
 2600WAT     H1 8319   4.289   2.330   4.522
 2600WAT     H2 8320   4.156   2.259   4.516
 2601WAT      O 8321   4.481   2.018   4.678
 2601WAT     H1 8322   4.493   1.959   4.752
 2601WAT     H2 8323   4.567   2.022   4.636
 2602WAT      O 8324   4.715   2.074   4.535
 2602WAT     H1 8325   4.662   2.126   4.475
 2602WAT     H2 8326   4.749   2.137   4.598
 2603WAT      O 8327   4.033   2.876   4.651
 2603WAT     H1 8328   3.979   2.948   4.619
 2603WAT     H2 8329   4.058   2.828   4.572
 2604WAT      O 8330   4.158   1.673   4.803
 2604WAT     H1 8331   4.217   1.642   4.872
 2604WAT     H2 8332   4.076   1.625   4.819
 2605WAT      O 8333   4.640   1.634   4.827
 2605WAT     H1 8334   4.571   1.568   4.820
 2605WAT     H2 8335   4.712   1.590   4.871
 2606WAT      O 8336   4.703   1.294   3.433
 2606WAT     H1 8337   4.731   1.210   3.468
 2606WAT     H2 8338   4.625   1.317   3.484
 2607WAT      O 8339   3.835   1.523   3.179
 2607WAT     H1 8340   3.865   1.523   3.088
 2607WAT     H2 8341   3.909   1.488   3.228
 2608WAT      O 8342   4.318   2.999   4.677
 2608WAT     H1 8343   4.311   3.090   4.707
 2608WAT     H2 8344   4.228   2.967   4.674
 2609WAT      O 8345   4.157   1.417   3.277
 2609WAT     H1 8346   4.122   1.349   3.219
 2609WAT     H2 8347   4.177   1.371   3.359
 2610WAT      O 8348   3.459   2.732   4.007
 2610WAT     H1 8349   3.492   2.645   3.984
 2610WAT     H2 8350   3.501   2.753   4.090
 2611WAT      O 8351   3.507   2.819   4.281
 2611WAT     H1 8352   3.464   2.837   4.364
 2611WAT     H2 8353   3.564   2.895   4.267
 2612WAT      O 8354   5.071   2.769   4.710
 2612WAT     H1 8355   5.011   2.775   4.635
 2612WAT     H2 8356   5.084   2.675   4.723
 2613WAT      O 8357   5.195   2.543   3.243
 2613WAT     H1 8358   5.112   2.550   3.290
 2613WAT     H2 8359   5.213   2.632   3.213
 2614WAT      O 8360   5.141   2.218   3.494
 2614WAT     H1 8361   5.217   2.275   3.504
 2614WAT     H2 8362   5.142   2.161   3.571
 2615WAT      O 8363   3.491   2.070   3.917
 2615WAT     H1 8364   3.425   2.043   3.852
 2615WAT     H2 8365   3.574   2.059   3.872
 2616WAT      O 8366   5.241   2.303   3.978
 2616WAT     H1 8367   5.278   2.225   3.937
 2616WAT     H2 8368   5.305   2.372   3.960
 2617WAT      O 8369   4.940   2.442   4.519
 2617WAT     H1 8370   4.858   2.484   4.546
 2617WAT     H2 8371   4.980   2.503   4.458
 2618WAT      O 8372   5.146   2.247   3.209
 2618WAT     H1 8373   5.173   2.338   3.197
 2618WAT     H2 8374   5.127   2.241   3.303
 2619WAT      O 8375   4.786   1.549   3.339
 2619WAT     H1 8376   4.827   1.531   3.255
 2619WAT     H2 8377   4.755   1.464   3.370
 2620WAT      O 8378   5.135   2.041   3.709
 2620WAT     H1 8379   5.098   1.964   3.665
 2620WAT     H2 8380   5.063   2.079   3.757
 2621WAT      O 8381   3.594   2.109   4.371
 2621WAT     H1 8382   3.631   2.100   4.459
 2621WAT     H2 8383   3.538   2.032   4.361
 2622WAT      O 8384   5.074   1.955   4.672
 2622WAT     H1 8385   5.051   1.933   4.582
 2622WAT     H2 8386   5.101   2.047   4.668
 2623WAT      O 8387   3.550   1.800   4.761
 2623WAT     H1 8388   3.460   1.796   4.795
 2623WAT     H2 8389   3.604   1.820   4.838
 2624WAT      O 8390   4.918   1.478   4.950
 2624WAT     H1 8391   5.006   1.479   4.988
 2624WAT     H2 8392   4.920   1.404   4.889
 2625WAT      O 8393   5.063   1.863   4.039
 2625WAT     H1 8394   5.115   1.814   3.976
 2625WAT     H2 8395   5.122   1.877   4.113
 2626WAT      O 8396   5.081   1.872   4.391
 2626WAT     H1 8397   4.986   1.868   4.402
 2626WAT     H2 8398   5.099   1.963   4.367
 2627WAT      O 8399   3.631   1.302   3.206
 2627WAT     H1 8400   3.703   1.356   3.238
 2627WAT     H2 8401   3.658   1.275   3.118
 2628WAT      O 8402   5.012   1.789   3.633
 2628WAT     H1 8403   5.062   1.766   3.711
 2628WAT     H2 8404   4.992   1.705   3.591
 2629WAT      O 8405   3.600   1.227   4.196
 2629WAT     H1 8406   3.665   1.172   4.152
 2629WAT     H2 8407   3.642   1.253   4.278
 2630WAT      O 8408   5.155   1.653   3.886
 2630WAT     H1 8409   5.144   1.637   3.980
 2630WAT     H2 8410   5.231   1.600   3.862
 2631WAT      O 8411   4.990   1.247   4.532
 2631WAT     H1 8412   5.053   1.308   4.568
 2631WAT     H2 8413   5.004   1.250   4.437
 2632WAT      O 8414   5.244   1.436   3.210
 2632WAT     H1 8415   5.336   1.422   3.189
 2632WAT     H2 8416   5.242   1.444   3.305
 2633WAT      O 8417   5.251   1.513   3.473
 2633WAT     H1 8418   5.172   1.506   3.526
 2633WAT     H2 8419   5.272   1.606   3.472
 2634WAT      O 8420   4.945   2.917   3.872
 2634WAT     H1 8421   5.005   2.885   3.804
 2634WAT     H2 8422   4.971   2.869   3.951
 2635WAT      O 8423   3.575   1.243   4.470
 2635WAT     H1 8424   3.540   1.288   4.547
 2635WAT     H2 8425   3.542   1.153   4.479
 2636WAT      O 8426   3.736   2.560   4.887
 2636WAT     H1 8427   3.732   2.523   4.975
 2636WAT     H2 8428   3.749   2.654   4.901
 2637WAT      O 8429   4.106   2.715   4.447
 2637WAT     H1 8430   4.082   2.742   4.358
 2637WAT     H2 8431   4.200   2.733   4.453
 2638WAT      O 8432   4.327   1.362   4.823
 2638WAT     H1 8433   4.320   1.421   4.898
 2638WAT     H2 8434   4.421   1.351   4.808
 2639WAT      O 8435   4.590   1.327   4.787
 2639WAT     H1 8436   4.652   1.359   4.720
 2639WAT     H2 8437   4.645   1.279   4.849
 2640WAT      O 8438   5.232   2.917   4.527
 2640WAT     H1 8439   5.183   2.957   4.455
 2640WAT     H2 8440   5.171   2.855   4.567
 2641WAT      O 8441   3.643   1.195   4.798
 2641WAT     H1 8442   3.697   1.177   4.722
 2641WAT     H2 8443   3.649   1.116   4.852
 2642WAT      O 8444   3.720   2.854   4.599
 2642WAT     H1 8445   3.660   2.841   4.673
 2642WAT     H2 8446   3.719   2.771   4.552
 2643WAT      O 8447   4.664   1.184   4.419
 2643WAT     H1 8448   4.577   1.217   4.399
 2643WAT     H2 8449   4.653   1.137   4.502
 2644WAT      O 8450   4.755   1.405   4.558
 2644WAT     H1 8451   4.722   1.323   4.520
 2644WAT     H2 8452   4.850   1.400   4.545
 2645WAT      O 8453   5.000   2.982   4.255
 2645WAT     H1 8454   4.954   3.057   4.218
 2645WAT     H2 8455   4.938   2.910   4.249
 2646WAT      O 8456   3.683   2.591   4.494
 2646WAT     H1 8457   3.610   2.529   4.487
 2646WAT     H2 8458   3.689   2.630   4.407
 2647WAT      O 8459   4.043   2.813   4.173
 2647WAT     H1 8460   4.095   2.751   4.120
 2647WAT     H2 8461   4.108   2.863   4.222
 2648WAT      O 8462   4.317   2.902   4.255
 2648WAT     H1 8463   4.346   2.876   4.168
 2648WAT     H2 8464   4.369   2.846   4.314
 2649WAT      O 8465   4.439   1.276   4.313
 2649WAT     H1 8466   4.361   1.323   4.341
 2649WAT     H2 8467   4.410   1.185   4.302
 2650WAT      O 8468   4.894   1.346   4.118
 2650WAT     H1 8469   4.938   1.340   4.033
 2650WAT     H2 8470   4.867   1.437   4.125
 2651WAT      O 8471   5.081   1.309   3.919
 2651WAT     H1 8472   5.075   1.215   3.904
 2651WAT     H2 8473   5.159   1.320   3.973
 2652WAT      O 8474   3.574   1.306   3.565
 2652WAT     H1 8475   3.649   1.317   3.508
 2652WAT     H2 8476   3.527   1.390   3.561
 2653WAT      O 8477   4.228   1.517   3.864
 2653WAT     H1 8478   4.146   1.480   3.830
 2653WAT     H2 8479   4.278   1.442   3.895
 2654WAT      O 8480   4.678   1.184   3.988
 2654WAT     H1 8481   4.738   1.241   4.036
 2654WAT     H2 8482   4.604   1.240   3.966
 2655WAT      O 8483   4.992   1.224   3.516
 2655WAT     H1 8484   5.012   1.314   3.542
 2655WAT     H2 8485   4.914   1.201   3.565
 2656WAT      O 8486   3.811   1.359   3.419
 2656WAT     H1 8487   3.864   1.280   3.406
 2656WAT     H2 8488   3.874   1.427   3.443
 2657WAT      O 8489   4.030   1.332   3.725
 2657WAT     H1 8490   3.967   1.262   3.741
 2657WAT     H2 8491   3.976   1.408   3.703
 2658WAT      O 8492   4.324   2.994   4.992
 2658WAT     H1 8493   4.417   2.970   4.996
 2658WAT     H2 8494   4.323   3.076   4.944
 2659WAT      O 8495   5.148   2.948   3.692
 2659WAT     H1 8496   5.165   2.879   3.627
 2659WAT     H2 8497   5.078   3.001   3.652
 2660WAT      O 8498   4.043   1.260   4.968
 2660WAT     H1 8499   4.015   1.311   4.892
 2660WAT     H2 8500   4.081   1.180   4.932
 2661WAT      O 8501   4.703   1.202   5.026
 2661WAT     H1 8502   4.692   1.234   5.116
 2661WAT     H2 8503   4.785   1.242   4.996
 2662WAT      O 8504   4.981   2.916   4.974
 2662WAT     H1 8505   5.060   2.867   4.954
 2662WAT     H2 8506   5.010   2.984   5.035
 2663WAT      O 8507   4.593   2.004   2.062
 2663WAT     H1 8508   4.585   1.912   2.035
 2663WAT     H2 8509   4.552   2.053   1.992
 2664WAT      O 8510   4.407   2.181   2.251
 2664WAT     H1 8511   4.329   2.133   2.280
 2664WAT     H2 8512   4.472   2.114   2.233
 2665WAT      O 8513   4.809   2.622   2.129
 2665WAT     H1 8514   4.763   2.545   2.161
 2665WAT     H2 8515   4.890   2.625   2.179
 2666WAT      O 8516   3.649   1.709   1.717
 2666WAT     H1 8517   3.560   1.743   1.707
 2666WAT     H2 8518   3.678   1.689   1.628
 2667WAT      O 8519   4.431   2.851   2.091
 2667WAT     H1 8520   4.369   2.896   2.034
 2667WAT     H2 8521   4.517   2.866   2.050
 2668WAT      O 8522   4.351   2.449   2.251
 2668WAT     H1 8523   4.344   2.355   2.235
 2668WAT     H2 8524   4.427   2.458   2.308
 2669WAT      O 8525   3.570   1.510   2.484
 2669WAT     H1 8526   3.552   1.420   2.512
 2669WAT     H2 8527   3.530   1.564   2.551
 2670WAT      O 8528   4.454   1.730   2.274
 2670WAT     H1 8529   4.491   1.642   2.263
 2670WAT     H2 8530   4.444   1.763   2.185
 2671WAT      O 8531   3.867   1.567   1.820
 2671WAT     H1 8532   3.878   1.657   1.851
 2671WAT     H2 8533   3.776   1.562   1.791
 2672WAT      O 8534   4.832   1.479   1.967
 2672WAT     H1 8535   4.914   1.430   1.971
 2672WAT     H2 8536   4.835   1.538   2.043
 2673WAT      O 8537   3.632   1.759   2.345
 2673WAT     H1 8538   3.700   1.786   2.407
 2673WAT     H2 8539   3.600   1.675   2.378
 2674WAT      O 8540   4.051   1.864   2.253
 2674WAT     H1 8541   4.102   1.914   2.317
 2674WAT     H2 8542   4.104   1.786   2.236
 2675WAT      O 8543   5.261   1.681   2.624
 2675WAT     H1 8544   5.191   1.720   2.572
 2675WAT     H2 8545   5.288   1.750   2.684
 2676WAT      O 8546   3.879   1.328   2.680
 2676WAT     H1 8547   3.879   1.380   2.599
 2676WAT     H2 8548   3.796   1.280   2.678
 2677WAT      O 8549   4.518   2.339   1.830
 2677WAT     H1 8550   4.456   2.386   1.774
 2677WAT     H2 8551   4.569   2.408   1.872
 2678WAT      O 8552   4.856   1.673   2.245
 2678WAT     H1 8553   4.785   1.702   2.303
 2678WAT     H2 8554   4.892   1.754   2.208
 2679WAT      O 8555   3.847   1.499   2.481
 2679WAT     H1 8556   3.882   1.583   2.451
 2679WAT     H2 8557   3.754   1.514   2.492
 2680WAT      O 8558   3.455   2.408   1.567
 2680WAT     H1 8559   3.417   2.456   1.494
 2680WAT     H2 8560   3.481   2.475   1.630
 2681WAT      O 8561   5.017   2.635   2.471
 2681WAT     H1 8562   4.949   2.702   2.470
 2681WAT     H2 8563   5.071   2.655   2.394
 2682WAT      O 8564   5.163   1.618   2.284
 2682WAT     H1 8565   5.068   1.621   2.297
 2682WAT     H2 8566   5.195   1.699   2.322
 2683WAT      O 8567   4.216   1.248   2.113
 2683WAT     H1 8568   4.246   1.192   2.042
 2683WAT     H2 8569   4.123   1.261   2.095
 2684WAT      O 8570   4.771   2.819   2.342
 2684WAT     H1 8571   4.772   2.779   2.255
 2684WAT     H2 8572   4.716   2.897   2.332
 2685WAT      O 8573   4.900   2.492   1.851
 2685WAT     H1 8574   4.889   2.397   1.864
 2685WAT     H2 8575   4.900   2.528   1.940
 2686WAT      O 8576   4.711   2.310   2.475
 2686WAT     H1 8577   4.752   2.288   2.392
 2686WAT     H2 8578   4.783   2.335   2.532
 2687WAT      O 8579   4.455   2.054   1.787
 2687WAT     H1 8580   4.362   2.048   1.810
 2687WAT     H2 8581   4.470   2.148   1.775
 2688WAT      O 8582   4.453   1.681   1.486
 2688WAT     H1 8583   4.359   1.698   1.495
 2688WAT     H2 8584   4.485   1.753   1.432
 2689WAT      O 8585   5.105   2.150   2.484
 2689WAT     H1 8586   5.023   2.157   2.437
 2689WAT     H2 8587   5.165   2.208   2.437
 2690WAT      O 8588   4.857   2.210   1.837
 2690WAT     H1 8589   4.796   2.177   1.772
 2690WAT     H2 8590   4.856   2.146   1.908
 2691WAT      O 8591   4.802   1.828   2.579
 2691WAT     H1 8592   4.760   1.911   2.604
 2691WAT     H2 8593   4.729   1.770   2.560
 2692WAT      O 8594   4.015   2.107   2.065
 2692WAT     H1 8595   3.975   2.036   2.015
 2692WAT     H2 8596   4.024   2.072   2.154
 2693WAT      O 8597   3.886   1.784   2.443
 2693WAT     H1 8598   3.942   1.795   2.365
 2693WAT     H2 8599   3.938   1.822   2.514
 2694WAT      O 8600   4.871   2.833   2.648
 2694WAT     H1 8601   4.823   2.914   2.628
 2694WAT     H2 8602   4.802   2.768   2.663
 2695WAT      O 8603   4.675   2.134   1.538
 2695WAT     H1 8604   4.719   2.051   1.523
 2695WAT     H2 8605   4.746   2.198   1.546
 2696WAT      O 8606   4.486   2.628   1.935
 2696WAT     H1 8607   4.530   2.703   1.893
 2696WAT     H2 8608   4.480   2.653   2.027
 2697WAT      O 8609   4.034   2.731   3.025
 2697WAT     H1 8610   4.031   2.771   2.938
 2697WAT     H2 8611   4.017   2.638   3.009
 2698WAT      O 8612   5.033   1.260   1.369
 2698WAT     H1 8613   5.002   1.269   1.459
 2698WAT     H2 8614   5.109   1.318   1.364
 2699WAT      O 8615   5.229   2.809   3.154
 2699WAT     H1 8616   5.276   2.857   3.222
 2699WAT     H2 8617   5.291   2.802   3.082
 2700WAT      O 8618   5.169   2.528   2.870
 2700WAT     H1 8619   5.182   2.504   2.779
 2700WAT     H2 8620   5.173   2.445   2.918
 2701WAT      O 8621   4.555   2.898   2.727
 2701WAT     H1 8622   4.607   2.890   2.808
 2701WAT     H2 8623   4.471   2.933   2.757
 2702WAT      O 8624   4.753   2.927   1.670
 2702WAT     H1 8625   4.737   2.898   1.760
 2702WAT     H2 8626   4.736   2.849   1.617
 2703WAT      O 8627   4.001   2.905   1.848
 2703WAT     H1 8628   3.983   2.813   1.827
 2703WAT     H2 8629   3.915   2.941   1.872
 2704WAT      O 8630   4.723   2.678   1.526
 2704WAT     H1 8631   4.654   2.678   1.460
 2704WAT     H2 8632   4.797   2.635   1.483
 2705WAT      O 8633   4.680   2.840   1.934
 2705WAT     H1 8634   4.725   2.762   1.965
 2705WAT     H2 8635   4.713   2.912   1.988
 2706WAT      O 8636   5.154   1.733   2.967
 2706WAT     H1 8637   5.093   1.784   2.914
 2706WAT     H2 8638   5.122   1.643   2.961
 2707WAT      O 8639   3.932   1.331   2.153
 2707WAT     H1 8640   3.887   1.409   2.120
 2707WAT     H2 8641   3.988   1.363   2.224
 2708WAT      O 8642   4.360   1.617   2.714
 2708WAT     H1 8643   4.314   1.638   2.795
 2708WAT     H2 8644   4.320   1.536   2.683
 2709WAT      O 8645   4.861   1.739   2.827
 2709WAT     H1 8646   4.775   1.710   2.859
 2709WAT     H2 8647   4.845   1.764   2.735
 2710WAT      O 8648   4.570   1.890   3.037
 2710WAT     H1 8649   4.603   1.806   3.003
 2710WAT     H2 8650   4.649   1.942   3.051
 2711WAT      O 8651   4.243   1.293   1.641
 2711WAT     H1 8652   4.181   1.292   1.714
 2711WAT     H2 8653   4.235   1.206   1.602
 2712WAT      O 8654   4.136   1.385   2.339
 2712WAT     H1 8655   4.165   1.476   2.331
 2712WAT     H2 8656   4.190   1.336   2.278
 2713WAT      O 8657   3.911   1.843   1.926
 2713WAT     H1 8658   3.888   1.821   2.017
 2713WAT     H2 8659   3.833   1.886   1.892
 2714WAT      O 8660   4.634   1.844   1.786
 2714WAT     H1 8661   4.574   1.916   1.768
 2714WAT     H2 8662   4.689   1.837   1.708
 2715WAT      O 8663   4.495   1.707   1.989
 2715WAT     H1 8664   4.534   1.739   1.908
 2715WAT     H2 8665   4.531   1.619   2.000
 2716WAT      O 8666   3.668   1.574   2.808
 2716WAT     H1 8667   3.629   1.659   2.829
 2716WAT     H2 8668   3.599   1.510   2.827
 2717WAT      O 8669   4.325   1.582   3.115
 2717WAT     H1 8670   4.256   1.563   3.178
 2717WAT     H2 8671   4.400   1.611   3.168
 2718WAT      O 8672   3.398   1.366   2.211
 2718WAT     H1 8673   3.369   1.423   2.283
 2718WAT     H2 8674   3.473   1.318   2.248
 2719WAT      O 8675   3.417   1.761   1.332
 2719WAT     H1 8676   3.409   1.855   1.346
 2719WAT     H2 8677   3.382   1.746   1.244
 2720WAT      O 8678   4.553   1.966   2.399
 2720WAT     H1 8679   4.480   2.017   2.433
 2720WAT     H2 8680   4.513   1.885   2.368
 2721WAT      O 8681   4.197   1.634   2.239
 2721WAT     H1 8682   4.197   1.590   2.154
 2721WAT     H2 8683   4.286   1.666   2.250
 2722WAT      O 8684   3.782   1.622   2.135
 2722WAT     H1 8685   3.748   1.670   2.211
 2722WAT     H2 8686   3.706   1.577   2.099
 2723WAT      O 8687   4.203   1.734   1.538
 2723WAT     H1 8688   4.215   1.730   1.633
 2723WAT     H2 8689   4.165   1.820   1.523
 2724WAT      O 8690   4.599   1.512   2.340
 2724WAT     H1 8691   4.601   1.557   2.424
 2724WAT     H2 8692   4.574   1.422   2.361
 2725WAT      O 8693   4.104   1.965   1.478
 2725WAT     H1 8694   4.047   1.920   1.415
 2725WAT     H2 8695   4.175   2.001   1.425
 2726WAT      O 8696   4.942   1.253   2.924
 2726WAT     H1 8697   4.975   1.180   2.976
 2726WAT     H2 8698   4.946   1.221   2.833
 2727WAT      O 8699   4.227   2.040   2.414
 2727WAT     H1 8700   4.264   1.993   2.488
 2727WAT     H2 8701   4.208   2.127   2.448
 2728WAT      O 8702   3.513   1.514   2.027
 2728WAT     H1 8703   3.485   1.478   2.110
 2728WAT     H2 8704   3.507   1.441   1.965
 2729WAT      O 8705   4.006   1.944   2.646
 2729WAT     H1 8706   3.976   2.032   2.668
 2729WAT     H2 8707   4.101   1.950   2.649
 2730WAT      O 8708   3.859   2.365   1.705
 2730WAT     H1 8709   3.781   2.311   1.689
 2730WAT     H2 8710   3.932   2.313   1.671
 2731WAT      O 8711   4.935   2.264   2.284
 2731WAT     H1 8712   5.007   2.314   2.245
 2731WAT     H2 8713   4.914   2.196   2.220
 2732WAT      O 8714   4.481   1.404   1.699
 2732WAT     H1 8715   4.399   1.354   1.691
 2732WAT     H2 8716   4.461   1.488   1.657
 2733WAT      O 8717   4.473   2.271   2.873
 2733WAT     H1 8718   4.466   2.179   2.848
 2733WAT     H2 8719   4.410   2.281   2.945
 2734WAT      O 8720   4.752   1.841   1.528
 2734WAT     H1 8721   4.841   1.872   1.511
 2734WAT     H2 8722   4.749   1.754   1.489
 2735WAT      O 8723   4.352   2.458   1.596
 2735WAT     H1 8724   4.386   2.533   1.547
 2735WAT     H2 8725   4.269   2.489   1.633
 2736WAT      O 8726   4.466   2.554   2.848
 2736WAT     H1 8727   4.467   2.460   2.826
 2736WAT     H2 8728   4.395   2.562   2.912
 2737WAT      O 8729   4.979   1.972   1.475
 2737WAT     H1 8730   4.971   2.015   1.390
 2737WAT     H2 8731   5.051   2.018   1.518
 2738WAT      O 8732   5.087   2.218   2.783
 2738WAT     H1 8733   5.015   2.277   2.763
 2738WAT     H2 8734   5.140   2.217   2.703
 2739WAT      O 8735   5.082   2.657   1.748
 2739WAT     H1 8736   5.018   2.592   1.775
 2739WAT     H2 8737   5.044   2.698   1.670
 2740WAT      O 8738   4.640   2.390   2.133
 2740WAT     H1 8739   4.675   2.331   2.067
 2740WAT     H2 8740   4.552   2.358   2.150
 2741WAT      O 8741   4.249   2.466   1.873
 2741WAT     H1 8742   4.317   2.521   1.912
 2741WAT     H2 8743   4.170   2.521   1.877
 2742WAT      O 8744   3.463   2.028   1.423
 2742WAT     H1 8745   3.550   2.056   1.451
 2742WAT     H2 8746   3.414   2.109   1.411
 2743WAT      O 8747   4.179   2.167   1.835
 2743WAT     H1 8748   4.225   2.248   1.857
 2743WAT     H2 8749   4.144   2.135   1.918
 2744WAT      O 8750   4.409   2.718   2.558
 2744WAT     H1 8751   4.474   2.738   2.625
 2744WAT     H2 8752   4.446   2.642   2.512
 2745WAT      O 8753   3.769   1.201   1.882
 2745WAT     H1 8754   3.756   1.200   1.977
 2745WAT     H2 8755   3.687   1.235   1.847
 2746WAT      O 8756   4.537   2.518   2.429
 2746WAT     H1 8757   4.601   2.448   2.441
 2746WAT     H2 8758   4.589   2.596   2.411
 2747WAT      O 8759   4.921   2.547   1.402
 2747WAT     H1 8760   4.899   2.475   1.461
 2747WAT     H2 8761   4.882   2.522   1.318
 2748WAT      O 8762   4.714   2.598   2.750
 2748WAT     H1 8763   4.748   2.657   2.818
 2748WAT     H2 8764   4.622   2.585   2.773
 2749WAT      O 8765   3.499   2.949   1.479
 2749WAT     H1 8766   3.535   3.009   1.414
 2749WAT     H2 8767   3.485   3.004   1.557
 2750WAT      O 8768   3.469   1.377   2.828
 2750WAT     H1 8769   3.398   1.397   2.888
 2750WAT     H2 8770   3.511   1.299   2.865
 2751WAT      O 8771   4.879   2.338   1.568
 2751WAT     H1 8772   4.851   2.384   1.647
 2751WAT     H2 8773   4.959   2.292   1.595
 2752WAT      O 8774   4.297   2.603   3.067
 2752WAT     H1 8775   4.265   2.531   3.121
 2752WAT     H2 8776   4.229   2.670   3.074
 2753WAT      O 8777   4.101   2.688   1.561
 2753WAT     H1 8778   4.100   2.761   1.499
 2753WAT     H2 8779   4.009   2.663   1.570
 2754WAT      O 8780   3.661   2.210   1.635
 2754WAT     H1 8781   3.600   2.284   1.636
 2754WAT     H2 8782   3.709   2.219   1.553
 2755WAT      O 8783   4.618   1.626   2.603
 2755WAT     H1 8784   4.655   1.544   2.636
 2755WAT     H2 8785   4.532   1.632   2.645
 2756WAT      O 8786   4.955   1.522   1.684
 2756WAT     H1 8787   4.892   1.532   1.612
 2756WAT     H2 8788   4.906   1.544   1.763
 2757WAT      O 8789   4.400   2.694   1.427
 2757WAT     H1 8790   4.410   2.673   1.334
 2757WAT     H2 8791   4.310   2.668   1.448
 2758WAT      O 8792   4.152   1.750   1.825
 2758WAT     H1 8793   4.081   1.796   1.870
 2758WAT     H2 8794   4.180   1.684   1.889
 2759WAT      O 8795   4.314   1.892   2.625
 2759WAT     H1 8796   4.364   1.939   2.692
 2759WAT     H2 8797   4.329   1.799   2.646
 2760WAT      O 8798   4.555   1.422   1.969
 2760WAT     H1 8799   4.543   1.424   1.874
 2760WAT     H2 8800   4.650   1.427   1.981
 2761WAT      O 8801   4.264   2.946   1.897
 2761WAT     H1 8802   4.289   2.942   1.804
 2761WAT     H2 8803   4.169   2.933   1.896
 2762WAT      O 8804   3.972   1.580   1.563
 2762WAT     H1 8805   4.057   1.624   1.556
 2762WAT     H2 8806   3.936   1.612   1.646
 2763WAT      O 8807   5.035   1.513   2.710
 2763WAT     H1 8808   4.985   1.587   2.744
 2763WAT     H2 8809   5.117   1.552   2.678
 2764WAT      O 8810   4.864   2.038   2.054
 2764WAT     H1 8811   4.770   2.039   2.072
 2764WAT     H2 8812   4.896   1.959   2.099
 2765WAT      O 8813   3.862   2.206   1.410
 2765WAT     H1 8814   3.939   2.195   1.467
 2765WAT     H2 8815   3.870   2.136   1.345
 2766WAT      O 8816   3.732   1.949   1.479
 2766WAT     H1 8817   3.740   1.854   1.490
 2766WAT     H2 8818   3.821   1.982   1.489
 2767WAT      O 8819   5.065   2.755   2.222
 2767WAT     H1 8820   5.077   2.837   2.269
 2767WAT     H2 8821   5.151   2.734   2.187
 2768WAT      O 8822   3.812   2.964   2.189
 2768WAT     H1 8823   3.885   2.909   2.216
 2768WAT     H2 8824   3.850   3.051   2.175
 2769WAT      O 8825   3.500   2.571   1.776
 2769WAT     H1 8826   3.408   2.595   1.775
 2769WAT     H2 8827   3.547   2.653   1.764
 2770WAT      O 8828   4.123   2.881   1.371
 2770WAT     H1 8829   4.202   2.910   1.326
 2770WAT     H2 8830   4.071   2.838   1.303
 2771WAT      O 8831   4.596   2.493   3.103
 2771WAT     H1 8832   4.535   2.496   3.029
 2771WAT     H2 8833   4.566   2.420   3.156
 2772WAT      O 8834   4.739   2.866   2.964
 2772WAT     H1 8835   4.834   2.858   2.959
 2772WAT     H2 8836   4.724   2.932   3.031
 2773WAT      O 8837   5.028   2.804   1.514
 2773WAT     H1 8838   5.000   2.763   1.432
 2773WAT     H2 8839   5.008   2.897   1.502
 2774WAT      O 8840   4.175   2.403   1.358
 2774WAT     H1 8841   4.164   2.342   1.430
 2774WAT     H2 8842   4.158   2.351   1.279
 2775WAT      O 8843   4.499   2.310   1.418
 2775WAT     H1 8844   4.444   2.354   1.483
 2775WAT     H2 8845   4.561   2.259   1.470
 2776WAT      O 8846   4.904   2.445   3.011
 2776WAT     H1 8847   4.978   2.479   2.961
 2776WAT     H2 8848   4.828   2.462   2.956
 2777WAT      O 8849   4.065   2.205   1.608
 2777WAT     H1 8850   4.108   2.189   1.692
 2777WAT     H2 8851   4.078   2.124   1.558
 2778WAT      O 8852   4.317   2.108   1.333
 2778WAT     H1 8853   4.369   2.036   1.296
 2778WAT     H2 8854   4.381   2.172   1.363
 2779WAT      O 8855   4.771   2.250   2.865
 2779WAT     H1 8856   4.813   2.266   2.950
 2779WAT     H2 8857   4.678   2.263   2.881
 2780WAT      O 8858   4.819   1.984   3.065
 2780WAT     H1 8859   4.877   1.909   3.056
 2780WAT     H2 8860   4.836   2.037   2.988
 2781WAT      O 8861   3.930   1.500   2.896
 2781WAT     H1 8862   3.921   1.438   2.824
 2781WAT     H2 8863   3.872   1.573   2.874
 2782WAT      O 8864   4.207   1.356   2.600
 2782WAT     H1 8865   4.162   1.358   2.515
 2782WAT     H2 8866   4.144   1.316   2.659
 2783WAT      O 8867   4.248   2.245   2.662
 2783WAT     H1 8868   4.289   2.330   2.645
 2783WAT     H2 8869   4.156   2.259   2.639
 2784WAT      O 8870   4.481   2.018   2.800
 2784WAT     H1 8871   4.493   1.959   2.874
 2784WAT     H2 8872   4.567   2.022   2.758
 2785WAT      O 8873   4.715   2.074   2.658
 2785WAT     H1 8874   4.662   2.126   2.597
 2785WAT     H2 8875   4.749   2.137   2.721
 2786WAT      O 8876   3.955   1.813   1.302
 2786WAT     H1 8877   3.935   1.726   1.338
 2786WAT     H2 8878   3.938   1.804   1.209
 2787WAT      O 8879   4.033   2.876   2.773
 2787WAT     H1 8880   3.979   2.948   2.741
 2787WAT     H2 8881   4.058   2.828   2.694
 2788WAT      O 8882   4.158   1.673   2.926
 2788WAT     H1 8883   4.217   1.642   2.995
 2788WAT     H2 8884   4.076   1.625   2.942
 2789WAT      O 8885   4.640   1.634   2.949
 2789WAT     H1 8886   4.571   1.568   2.943
 2789WAT     H2 8887   4.712   1.590   2.994
 2790WAT      O 8888   4.703   1.294   1.555
 2790WAT     H1 8889   4.731   1.210   1.591
 2790WAT     H2 8890   4.625   1.317   1.607
 2791WAT      O 8891   3.835   1.523   1.301
 2791WAT     H1 8892   3.865   1.523   1.210
 2791WAT     H2 8893   3.909   1.488   1.351
 2792WAT      O 8894   4.318   2.999   2.799
 2792WAT     H1 8895   4.311   3.090   2.830
 2792WAT     H2 8896   4.228   2.967   2.796
 2793WAT      O 8897   4.157   1.417   1.400
 2793WAT     H1 8898   4.122   1.349   1.342
 2793WAT     H2 8899   4.177   1.371   1.481
 2794WAT      O 8900   4.373   2.916   1.562
 2794WAT     H1 8901   4.463   2.950   1.564
 2794WAT     H2 8902   4.376   2.844   1.499
 2795WAT      O 8903   3.737   2.453   1.384
 2795WAT     H1 8904   3.781   2.508   1.450
 2795WAT     H2 8905   3.786   2.371   1.385
 2796WAT      O 8906   3.918   2.565   1.896
 2796WAT     H1 8907   3.888   2.553   1.986
 2796WAT     H2 8908   3.908   2.479   1.855
 2797WAT      O 8909   5.071   2.769   2.832
 2797WAT     H1 8910   5.011   2.775   2.758
 2797WAT     H2 8911   5.084   2.675   2.845
 2798WAT      O 8912   5.195   2.543   1.366
 2798WAT     H1 8913   5.112   2.550   1.413
 2798WAT     H2 8914   5.213   2.632   1.336
 2799WAT      O 8915   5.141   2.218   1.616
 2799WAT     H1 8916   5.217   2.275   1.627
 2799WAT     H2 8917   5.142   2.161   1.693
 2800WAT      O 8918   5.241   2.303   2.101
 2800WAT     H1 8919   5.278   2.225   2.060
 2800WAT     H2 8920   5.305   2.372   2.083
 2801WAT      O 8921   4.940   2.442   2.642
 2801WAT     H1 8922   4.858   2.484   2.668
 2801WAT     H2 8923   4.980   2.503   2.581
 2802WAT      O 8924   5.146   2.247   1.332
 2802WAT     H1 8925   5.173   2.338   1.319
 2802WAT     H2 8926   5.127   2.241   1.426
 2803WAT      O 8927   4.786   1.549   1.461
 2803WAT     H1 8928   4.827   1.531   1.377
 2803WAT     H2 8929   4.755   1.464   1.493
 2804WAT      O 8930   5.135   2.041   1.831
 2804WAT     H1 8931   5.098   1.964   1.788
 2804WAT     H2 8932   5.063   2.079   1.880
 2805WAT      O 8933   5.074   1.955   2.795
 2805WAT     H1 8934   5.051   1.933   2.705
 2805WAT     H2 8935   5.101   2.047   2.790
 2806WAT      O 8936   4.918   1.478   3.072
 2806WAT     H1 8937   5.006   1.479   3.111
 2806WAT     H2 8938   4.920   1.404   3.011
 2807WAT      O 8939   3.412   1.791   1.634
 2807WAT     H1 8940   3.322   1.817   1.616
 2807WAT     H2 8941   3.460   1.818   1.556
 2808WAT      O 8942   5.063   1.863   2.161
 2808WAT     H1 8943   5.115   1.814   2.098
 2808WAT     H2 8944   5.122   1.877   2.236
 2809WAT      O 8945   5.081   1.872   2.514
 2809WAT     H1 8946   4.986   1.868   2.525
 2809WAT     H2 8947   5.099   1.963   2.490
 2810WAT      O 8948   3.666   1.697   1.424
 2810WAT     H1 8949   3.737   1.654   1.376
 2810WAT     H2 8950   3.595   1.703   1.361
 2811WAT      O 8951   3.631   1.302   1.329
 2811WAT     H1 8952   3.703   1.356   1.360
 2811WAT     H2 8953   3.658   1.275   1.241
 2812WAT      O 8954   5.012   1.789   1.755
 2812WAT     H1 8955   5.062   1.766   1.834
 2812WAT     H2 8956   4.992   1.705   1.714
 2813WAT      O 8957   3.600   1.227   2.319
 2813WAT     H1 8958   3.665   1.172   2.275
 2813WAT     H2 8959   3.642   1.253   2.401
 2814WAT      O 8960   5.155   1.653   2.009
 2814WAT     H1 8961   5.144   1.637   2.102
 2814WAT     H2 8962   5.231   1.600   1.984
 2815WAT      O 8963   4.990   1.247   2.654
 2815WAT     H1 8964   5.053   1.308   2.691
 2815WAT     H2 8965   5.004   1.250   2.560
 2816WAT      O 8966   5.244   1.436   1.333
 2816WAT     H1 8967   5.336   1.422   1.312
 2816WAT     H2 8968   5.242   1.444   1.428
 2817WAT      O 8969   5.251   1.513   1.595
 2817WAT     H1 8970   5.172   1.506   1.648
 2817WAT     H2 8971   5.272   1.606   1.594
 2818WAT      O 8972   4.945   2.917   1.995
 2818WAT     H1 8973   5.005   2.885   1.927
 2818WAT     H2 8974   4.971   2.869   2.074
 2819WAT      O 8975   3.575   1.243   2.593
 2819WAT     H1 8976   3.540   1.288   2.670
 2819WAT     H2 8977   3.542   1.153   2.601
 2820WAT      O 8978   4.106   2.715   2.570
 2820WAT     H1 8979   4.082   2.742   2.481
 2820WAT     H2 8980   4.200   2.733   2.575
 2821WAT      O 8981   4.327   1.362   2.945
 2821WAT     H1 8982   4.320   1.421   3.020
 2821WAT     H2 8983   4.421   1.351   2.931
 2822WAT      O 8984   4.590   1.327   2.909
 2822WAT     H1 8985   4.652   1.359   2.843
 2822WAT     H2 8986   4.645   1.279   2.971
 2823WAT      O 8987   5.232   2.917   2.650
 2823WAT     H1 8988   5.183   2.957   2.578
 2823WAT     H2 8989   5.171   2.855   2.689
 2824WAT      O 8990   3.643   1.195   2.921
 2824WAT     H1 8991   3.697   1.177   2.844
 2824WAT     H2 8992   3.649   1.116   2.974
 2825WAT      O 8993   3.720   2.854   2.722
 2825WAT     H1 8994   3.660   2.841   2.795
 2825WAT     H2 8995   3.719   2.771   2.675
 2826WAT      O 8996   4.664   1.184   2.542
 2826WAT     H1 8997   4.577   1.217   2.522
 2826WAT     H2 8998   4.653   1.137   2.624
 2827WAT      O 8999   4.755   1.405   2.680
 2827WAT     H1 9000   4.722   1.323   2.642
 2827WAT     H2 9001   4.850   1.400   2.668
 2828WAT      O 9002   5.000   2.982   2.378
 2828WAT     H1 9003   4.954   3.057   2.340
 2828WAT     H2 9004   4.938   2.910   2.372
 2829WAT      O 9005   4.043   2.813   2.295
 2829WAT     H1 9006   4.095   2.751   2.243
 2829WAT     H2 9007   4.108   2.863   2.344
 2830WAT      O 9008   4.317   2.902   2.378
 2830WAT     H1 9009   4.346   2.876   2.290
 2830WAT     H2 9010   4.369   2.846   2.437
 2831WAT      O 9011   4.439   1.276   2.436
 2831WAT     H1 9012   4.361   1.323   2.464
 2831WAT     H2 9013   4.410   1.185   2.425
 2832WAT      O 9014   4.894   1.346   2.240
 2832WAT     H1 9015   4.938   1.340   2.155
 2832WAT     H2 9016   4.867   1.437   2.247
 2833WAT      O 9017   5.081   1.309   2.041
 2833WAT     H1 9018   5.075   1.215   2.027
 2833WAT     H2 9019   5.159   1.320   2.096
 2834WAT      O 9020   3.511   2.923   1.938
 2834WAT     H1 9021   3.494   2.860   2.007
 2834WAT     H2 9022   3.425   2.943   1.902
 2835WAT      O 9023   3.574   1.306   1.688
 2835WAT     H1 9024   3.649   1.317   1.631
 2835WAT     H2 9025   3.527   1.390   1.683
 2836WAT      O 9026   4.228   1.517   1.987
 2836WAT     H1 9027   4.146   1.480   1.953
 2836WAT     H2 9028   4.278   1.442   2.017
 2837WAT      O 9029   4.678   1.184   2.111
 2837WAT     H1 9030   4.738   1.241   2.158
 2837WAT     H2 9031   4.604   1.240   2.088
 2838WAT      O 9032   4.992   1.224   1.638
 2838WAT     H1 9033   5.012   1.314   1.665
 2838WAT     H2 9034   4.914   1.201   1.687
 2839WAT      O 9035   3.672   2.792   1.682
 2839WAT     H1 9036   3.619   2.830   1.612
 2839WAT     H2 9037   3.664   2.855   1.754
 2840WAT      O 9038   3.811   1.359   1.542
 2840WAT     H1 9039   3.864   1.280   1.529
 2840WAT     H2 9040   3.874   1.427   1.565
 2841WAT      O 9041   4.030   1.332   1.847
 2841WAT     H1 9042   3.967   1.262   1.864
 2841WAT     H2 9043   3.976   1.408   1.826
 2842WAT      O 9044   4.324   2.994   3.114
 2842WAT     H1 9045   4.417   2.970   3.119
 2842WAT     H2 9046   4.323   3.076   3.066
 2843WAT      O 9047   5.148   2.948   1.814
 2843WAT     H1 9048   5.165   2.879   1.750
 2843WAT     H2 9049   5.078   3.001   1.775
 2844WAT      O 9050   4.043   1.260   3.091
 2844WAT     H1 9051   4.015   1.311   3.014
 2844WAT     H2 9052   4.081   1.180   3.054
 2845WAT      O 9053   3.932   2.987   1.570
 2845WAT     H1 9054   4.005   2.959   1.515
 2845WAT     H2 9055   3.958   2.963   1.659
 2846WAT      O 9056   3.848   2.599   1.570
 2846WAT     H1 9057   3.785   2.645   1.625
 2846WAT     H2 9058   3.859   2.514   1.613
 2847WAT      O 9059   4.703   1.202   3.149
 2847WAT     H1 9060   4.692   1.234   3.238
 2847WAT     H2 9061   4.785   1.242   3.119
 2848WAT      O 9062   4.981   2.916   3.097
 2848WAT     H1 9063   5.060   2.867   3.076
 2848WAT     H2 9064   5.010   2.984   3.158
 2849WAT      O 9065   4.407   2.181   0.373
 2849WAT     H1 9066   4.329   2.133   0.402
 2849WAT     H2 9067   4.472   2.114   0.356
 2850WAT      O 9068   3.808   2.213   0.461
 2850WAT     H1 9069   3.725   2.187   0.501
 2850WAT     H2 9070   3.869   2.220   0.534
 2851WAT      O 9071   4.809   2.622   0.251
 2851WAT     H1 9072   4.763   2.545   0.284
 2851WAT     H2 9073   4.890   2.625   0.302
 2852WAT      O 9074   3.806   2.616   0.480
 2852WAT     H1 9075   3.837   2.527   0.463
 2852WAT     H2 9076   3.881   2.672   0.458
 2853WAT      O 9077   3.446   1.969   0.428
 2853WAT     H1 9078   3.503   1.892   0.428
 2853WAT     H2 9079   3.446   1.999   0.337
 2854WAT      O 9080   4.351   2.449   0.374
 2854WAT     H1 9081   4.344   2.355   0.358
 2854WAT     H2 9082   4.427   2.458   0.431
 2855WAT      O 9083   3.570   1.510   0.606
 2855WAT     H1 9084   3.552   1.420   0.634
 2855WAT     H2 9085   3.530   1.564   0.674
 2856WAT      O 9086   4.454   1.730   0.397
 2856WAT     H1 9087   4.491   1.642   0.385
 2856WAT     H2 9088   4.444   1.763   0.307
 2857WAT      O 9089   3.632   1.759   0.467
 2857WAT     H1 9090   3.700   1.786   0.529
 2857WAT     H2 9091   3.600   1.675   0.501
 2858WAT      O 9092   4.051   1.864   0.376
 2858WAT     H1 9093   4.102   1.914   0.440
 2858WAT     H2 9094   4.104   1.786   0.358
 2859WAT      O 9095   5.261   1.681   0.746
 2859WAT     H1 9096   5.191   1.720   0.694
 2859WAT     H2 9097   5.288   1.750   0.806
 2860WAT      O 9098   3.879   1.328   0.803
 2860WAT     H1 9099   3.879   1.380   0.722
 2860WAT     H2 9100   3.796   1.280   0.800
 2861WAT      O 9101   4.004   2.292   0.620
 2861WAT     H1 9102   3.971   2.354   0.685
 2861WAT     H2 9103   4.022   2.344   0.542
 2862WAT      O 9104   4.856   1.673   0.367
 2862WAT     H1 9105   4.785   1.702   0.425
 2862WAT     H2 9106   4.892   1.754   0.331
 2863WAT      O 9107   3.847   1.499   0.603
 2863WAT     H1 9108   3.882   1.583   0.574
 2863WAT     H2 9109   3.754   1.514   0.615
 2864WAT      O 9110   3.925   2.489   0.802
 2864WAT     H1 9111   3.987   2.556   0.774
 2864WAT     H2 9112   3.839   2.529   0.793
 2865WAT      O 9113   5.017   2.635   0.593
 2865WAT     H1 9114   4.949   2.702   0.593
 2865WAT     H2 9115   5.071   2.655   0.517
 2866WAT      O 9116   5.163   1.618   0.406
 2866WAT     H1 9117   5.068   1.621   0.419
 2866WAT     H2 9118   5.195   1.699   0.445
 2867WAT      O 9119   4.771   2.819   0.465
 2867WAT     H1 9120   4.772   2.779   0.378
 2867WAT     H2 9121   4.716   2.897   0.454
 2868WAT      O 9122   4.711   2.310   0.598
 2868WAT     H1 9123   4.752   2.288   0.514
 2868WAT     H2 9124   4.783   2.335   0.655
 2869WAT      O 9125   5.105   2.150   0.607
 2869WAT     H1 9126   5.023   2.157   0.559
 2869WAT     H2 9127   5.165   2.208   0.560
 2870WAT      O 9128   4.802   1.828   0.701
 2870WAT     H1 9129   4.760   1.911   0.727
 2870WAT     H2 9130   4.729   1.770   0.682
 2871WAT      O 9131   4.062   2.476   0.404
 2871WAT     H1 9132   4.032   2.415   0.336
 2871WAT     H2 9133   4.157   2.479   0.393
 2872WAT      O 9134   3.886   1.784   0.566
 2872WAT     H1 9135   3.942   1.795   0.488
 2872WAT     H2 9136   3.938   1.822   0.637
 2873WAT      O 9137   4.871   2.833   0.770
 2873WAT     H1 9138   4.823   2.914   0.751
 2873WAT     H2 9139   4.802   2.768   0.785
 2874WAT      O 9140   3.971   2.449   1.069
 2874WAT     H1 9141   3.881   2.472   1.094
 2874WAT     H2 9142   3.974   2.462   0.974
 2875WAT      O 9143   3.854   2.137   0.927
 2875WAT     H1 9144   3.840   2.224   0.963
 2875WAT     H2 9145   3.766   2.102   0.912
 2876WAT      O 9146   4.034   2.731   1.147
 2876WAT     H1 9147   4.031   2.771   1.061
 2876WAT     H2 9148   4.017   2.638   1.131
 2877WAT      O 9149   5.229   2.809   1.277
 2877WAT     H1 9150   5.276   2.857   1.345
 2877WAT     H2 9151   5.291   2.802   1.205
 2878WAT      O 9152   3.449   2.314   0.518
 2878WAT     H1 9153   3.457   2.327   0.424
 2878WAT     H2 9154   3.510   2.243   0.538
 2879WAT      O 9155   5.169   2.528   0.993
 2879WAT     H1 9156   5.182   2.504   0.901
 2879WAT     H2 9157   5.173   2.445   1.040
 2880WAT      O 9158   4.555   2.898   0.850
 2880WAT     H1 9159   4.607   2.890   0.930
 2880WAT     H2 9160   4.471   2.933   0.879
 2881WAT      O 9161   5.154   1.733   1.090
 2881WAT     H1 9162   5.093   1.784   1.037
 2881WAT     H2 9163   5.122   1.643   1.084
 2882WAT      O 9164   3.455   2.418   0.772
 2882WAT     H1 9165   3.471   2.371   0.690
 2882WAT     H2 9166   3.501   2.367   0.839
 2883WAT      O 9167   3.932   1.331   0.276
 2883WAT     H1 9168   3.887   1.409   0.243
 2883WAT     H2 9169   3.988   1.363   0.347
 2884WAT      O 9170   4.360   1.617   0.836
 2884WAT     H1 9171   4.314   1.638   0.917
 2884WAT     H2 9172   4.320   1.536   0.806
 2885WAT      O 9173   4.861   1.739   0.949
 2885WAT     H1 9174   4.775   1.710   0.981
 2885WAT     H2 9175   4.845   1.764   0.858
 2886WAT      O 9176   4.570   1.890   1.159
 2886WAT     H1 9177   4.603   1.806   1.125
 2886WAT     H2 9178   4.649   1.942   1.174
 2887WAT      O 9179   4.136   1.385   0.462
 2887WAT     H1 9180   4.165   1.476   0.454
 2887WAT     H2 9181   4.190   1.336   0.400
 2888WAT      O 9182   4.155   1.933   1.115
 2888WAT     H1 9183   4.145   1.839   1.100
 2888WAT     H2 9184   4.239   1.955   1.076
 2889WAT      O 9185   3.668   1.574   0.931
 2889WAT     H1 9186   3.629   1.659   0.951
 2889WAT     H2 9187   3.599   1.510   0.950
 2890WAT      O 9188   4.325   1.582   1.238
 2890WAT     H1 9189   4.256   1.563   1.301
 2890WAT     H2 9190   4.400   1.611   1.291
 2891WAT      O 9191   3.398   1.366   0.334
 2891WAT     H1 9192   3.369   1.423   0.405
 2891WAT     H2 9193   3.473   1.318   0.370
 2892WAT      O 9194   4.553   1.966   0.521
 2892WAT     H1 9195   4.480   2.017   0.556
 2892WAT     H2 9196   4.513   1.885   0.491
 2893WAT      O 9197   4.197   1.634   0.362
 2893WAT     H1 9198   4.197   1.590   0.277
 2893WAT     H2 9199   4.286   1.666   0.372
 2894WAT      O 9200   3.782   1.622   0.258
 2894WAT     H1 9201   3.748   1.670   0.333
 2894WAT     H2 9202   3.706   1.577   0.222
 2895WAT      O 9203   4.599   1.512   0.462
 2895WAT     H1 9204   4.601   1.557   0.547
 2895WAT     H2 9205   4.574   1.422   0.484
 2896WAT      O 9206   4.942   1.253   1.046
 2896WAT     H1 9207   4.975   1.180   1.099
 2896WAT     H2 9208   4.946   1.221   0.956
 2897WAT      O 9209   3.612   2.355   0.988
 2897WAT     H1 9210   3.574   2.291   1.048
 2897WAT     H2 9211   3.643   2.426   1.045
 2898WAT      O 9212   4.227   2.040   0.536
 2898WAT     H1 9213   4.264   1.993   0.611
 2898WAT     H2 9214   4.208   2.127   0.570
 2899WAT      O 9215   4.006   1.944   0.768
 2899WAT     H1 9216   3.976   2.032   0.791
 2899WAT     H2 9217   4.101   1.950   0.772
 2900WAT      O 9218   4.935   2.264   0.407
 2900WAT     H1 9219   5.007   2.314   0.368
 2900WAT     H2 9220   4.914   2.196   0.343
 2901WAT      O 9221   4.473   2.271   0.996
 2901WAT     H1 9222   4.466   2.179   0.970
 2901WAT     H2 9223   4.410   2.281   1.067
 2902WAT      O 9224   3.863   2.331   0.192
 2902WAT     H1 9225   3.915   2.251   0.186
 2902WAT     H2 9226   3.818   2.325   0.276
 2903WAT      O 9227   3.612   2.028   0.883
 2903WAT     H1 9228   3.576   2.095   0.942
 2903WAT     H2 9229   3.582   1.945   0.920
 2904WAT      O 9230   3.932   2.074   1.171
 2904WAT     H1 9231   3.902   2.088   1.081
 2904WAT     H2 9232   4.009   2.018   1.162
 2905WAT      O 9233   4.466   2.554   0.971
 2905WAT     H1 9234   4.467   2.460   0.949
 2905WAT     H2 9235   4.395   2.562   1.035
 2906WAT      O 9236   5.087   2.218   0.905
 2906WAT     H1 9237   5.015   2.277   0.886
 2906WAT     H2 9238   5.140   2.217   0.826
 2907WAT      O 9239   4.640   2.390   0.255
 2907WAT     H1 9240   4.675   2.331   0.189
 2907WAT     H2 9241   4.552   2.358   0.272
 2908WAT      O 9242   4.409   2.718   0.680
 2908WAT     H1 9243   4.474   2.738   0.748
 2908WAT     H2 9244   4.446   2.642   0.635
 2909WAT      O 9245   4.537   2.518   0.552
 2909WAT     H1 9246   4.601   2.448   0.563
 2909WAT     H2 9247   4.589   2.596   0.534
 2910WAT      O 9248   4.714   2.598   0.872
 2910WAT     H1 9249   4.748   2.657   0.940
 2910WAT     H2 9250   4.622   2.585   0.895
 2911WAT      O 9251   3.469   1.377   0.951
 2911WAT     H1 9252   3.398   1.397   1.011
 2911WAT     H2 9253   3.511   1.299   0.988
 2912WAT      O 9254   3.498   2.776   1.049
 2912WAT     H1 9255   3.509   2.682   1.035
 2912WAT     H2 9256   3.433   2.802   0.984
 2913WAT      O 9257   4.297   2.603   1.189
 2913WAT     H1 9258   4.265   2.531   1.244
 2913WAT     H2 9259   4.229   2.670   1.197
 2914WAT      O 9260   4.618   1.626   0.726
 2914WAT     H1 9261   4.655   1.544   0.758
 2914WAT     H2 9262   4.532   1.632   0.767
 2915WAT      O 9263   4.314   1.892   0.748
 2915WAT     H1 9264   4.364   1.939   0.814
 2915WAT     H2 9265   4.329   1.799   0.769
 2916WAT      O 9266   5.035   1.513   0.832
 2916WAT     H1 9267   4.985   1.587   0.866
 2916WAT     H2 9268   5.117   1.552   0.801
 2917WAT      O 9269   4.864   2.038   0.177
 2917WAT     H1 9270   4.770   2.039   0.194
 2917WAT     H2 9271   4.896   1.959   0.221
 2918WAT      O 9272   5.065   2.755   0.344
 2918WAT     H1 9273   5.077   2.837   0.392
 2918WAT     H2 9274   5.151   2.734   0.310
 2919WAT      O 9275   3.812   2.964   0.312
 2919WAT     H1 9276   3.885   2.909   0.339
 2919WAT     H2 9277   3.850   3.051   0.298
 2920WAT      O 9278   3.712   2.882   1.230
 2920WAT     H1 9279   3.792   2.915   1.272
 2920WAT     H2 9280   3.661   2.846   1.303
 2921WAT      O 9281   4.596   2.493   1.225
 2921WAT     H1 9282   4.535   2.496   1.151
 2921WAT     H2 9283   4.566   2.420   1.279
 2922WAT      O 9284   4.739   2.866   1.086
 2922WAT     H1 9285   4.834   2.858   1.081
 2922WAT     H2 9286   4.724   2.932   1.154
 2923WAT      O 9287   3.484   2.131   1.125
 2923WAT     H1 9288   3.535   2.073   1.182
 2923WAT     H2 9289   3.410   2.160   1.179
 2924WAT      O 9290   4.190   2.272   1.078
 2924WAT     H1 9291   4.113   2.329   1.070
 2924WAT     H2 9292   4.208   2.243   0.989
 2925WAT      O 9293   4.904   2.445   1.134
 2925WAT     H1 9294   4.978   2.479   1.084
 2925WAT     H2 9295   4.828   2.462   1.079
 2926WAT      O 9296   3.688   1.946   1.214
 2926WAT     H1 9297   3.692   1.916   1.305
 2926WAT     H2 9298   3.773   1.986   1.198
 2927WAT      O 9299   3.882   1.803   1.011
 2927WAT     H1 9300   3.829   1.754   0.948
 2927WAT     H2 9301   3.949   1.846   0.958
 2928WAT      O 9302   4.771   2.250   0.987
 2928WAT     H1 9303   4.813   2.266   1.072
 2928WAT     H2 9304   4.678   2.263   1.004
 2929WAT      O 9305   4.819   1.984   1.188
 2929WAT     H1 9306   4.877   1.909   1.179
 2929WAT     H2 9307   4.836   2.037   1.110
 2930WAT      O 9308   3.930   1.500   1.019
 2930WAT     H1 9309   3.921   1.438   0.946
 2930WAT     H2 9310   3.872   1.573   0.996
 2931WAT      O 9311   4.207   1.356   0.722
 2931WAT     H1 9312   4.162   1.358   0.638
 2931WAT     H2 9313   4.144   1.316   0.782
 2932WAT      O 9314   4.248   2.245   0.784
 2932WAT     H1 9315   4.289   2.330   0.767
 2932WAT     H2 9316   4.156   2.259   0.761
 2933WAT      O 9317   4.481   2.018   0.923
 2933WAT     H1 9318   4.493   1.959   0.997
 2933WAT     H2 9319   4.567   2.022   0.881
 2934WAT      O 9320   4.715   2.074   0.780
 2934WAT     H1 9321   4.662   2.126   0.720
 2934WAT     H2 9322   4.749   2.137   0.843
 2935WAT      O 9323   4.033   2.876   0.896
 2935WAT     H1 9324   3.979   2.948   0.864
 2935WAT     H2 9325   4.058   2.828   0.817
 2936WAT      O 9326   4.158   1.673   1.049
 2936WAT     H1 9327   4.217   1.642   1.117
 2936WAT     H2 9328   4.076   1.625   1.064
 2937WAT      O 9329   4.640   1.634   1.072
 2937WAT     H1 9330   4.571   1.568   1.065
 2937WAT     H2 9331   4.712   1.590   1.116
 2938WAT      O 9332   4.318   2.999   0.922
 2938WAT     H1 9333   4.311   3.090   0.953
 2938WAT     H2 9334   4.228   2.967   0.919
 2939WAT      O 9335   3.459   2.732   0.252
 2939WAT     H1 9336   3.492   2.645   0.229
 2939WAT     H2 9337   3.501   2.753   0.335
 2940WAT      O 9338   3.507   2.819   0.526
 2940WAT     H1 9339   3.464   2.837   0.609
 2940WAT     H2 9340   3.564   2.895   0.512
 2941WAT      O 9341   5.071   2.769   0.955
 2941WAT     H1 9342   5.011   2.775   0.880
 2941WAT     H2 9343   5.084   2.675   0.968
 2942WAT      O 9344   5.241   2.303   0.223
 2942WAT     H1 9345   5.278   2.225   0.183
 2942WAT     H2 9346   5.305   2.372   0.205
 2943WAT      O 9347   4.940   2.442   0.765
 2943WAT     H1 9348   4.858   2.484   0.791
 2943WAT     H2 9349   4.980   2.503   0.703
 2944WAT      O 9350   3.594   2.109   0.616
 2944WAT     H1 9351   3.631   2.100   0.704
 2944WAT     H2 9352   3.538   2.032   0.606
 2945WAT      O 9353   5.074   1.955   0.917
 2945WAT     H1 9354   5.051   1.933   0.827
 2945WAT     H2 9355   5.101   2.047   0.913
 2946WAT      O 9356   3.550   1.800   1.006
 2946WAT     H1 9357   3.460   1.796   1.040
 2946WAT     H2 9358   3.604   1.820   1.083
 2947WAT      O 9359   4.918   1.478   1.195
 2947WAT     H1 9360   5.006   1.479   1.233
 2947WAT     H2 9361   4.920   1.404   1.134
 2948WAT      O 9362   5.063   1.863   0.284
 2948WAT     H1 9363   5.115   1.814   0.221
 2948WAT     H2 9364   5.122   1.877   0.358
 2949WAT      O 9365   5.081   1.872   0.636
 2949WAT     H1 9366   4.986   1.868   0.648
 2949WAT     H2 9367   5.099   1.963   0.613
 2950WAT      O 9368   3.600   1.227   0.441
 2950WAT     H1 9369   3.665   1.172   0.397
 2950WAT     H2 9370   3.642   1.253   0.523
 2951WAT      O 9371   4.990   1.247   0.777
 2951WAT     H1 9372   5.053   1.308   0.814
 2951WAT     H2 9373   5.004   1.250   0.683
 2952WAT      O 9374   3.575   1.243   0.716
 2952WAT     H1 9375   3.540   1.288   0.792
 2952WAT     H2 9376   3.542   1.153   0.724
 2953WAT      O 9377   3.736   2.560   1.132
 2953WAT     H1 9378   3.732   2.523   1.220
 2953WAT     H2 9379   3.749   2.654   1.146
 2954WAT      O 9380   4.106   2.715   0.692
 2954WAT     H1 9381   4.082   2.742   0.603
 2954WAT     H2 9382   4.200   2.733   0.698
 2955WAT      O 9383   4.327   1.362   1.068
 2955WAT     H1 9384   4.320   1.421   1.143
 2955WAT     H2 9385   4.421   1.351   1.053
 2956WAT      O 9386   4.590   1.327   1.032
 2956WAT     H1 9387   4.652   1.359   0.965
 2956WAT     H2 9388   4.645   1.279   1.094
 2957WAT      O 9389   5.232   2.917   0.772
 2957WAT     H1 9390   5.183   2.957   0.701
 2957WAT     H2 9391   5.171   2.855   0.812
 2958WAT      O 9392   3.643   1.195   1.043
 2958WAT     H1 9393   3.697   1.177   0.967
 2958WAT     H2 9394   3.649   1.116   1.097
 2959WAT      O 9395   3.720   2.854   0.844
 2959WAT     H1 9396   3.660   2.841   0.918
 2959WAT     H2 9397   3.719   2.771   0.797
 2960WAT      O 9398   4.664   1.184   0.664
 2960WAT     H1 9399   4.577   1.217   0.644
 2960WAT     H2 9400   4.653   1.137   0.747
 2961WAT      O 9401   4.755   1.405   0.803
 2961WAT     H1 9402   4.722   1.323   0.765
 2961WAT     H2 9403   4.850   1.400   0.790
 2962WAT      O 9404   5.000   2.982   0.500
 2962WAT     H1 9405   4.954   3.057   0.463
 2962WAT     H2 9406   4.938   2.910   0.494
 2963WAT      O 9407   3.683   2.591   0.739
 2963WAT     H1 9408   3.610   2.529   0.732
 2963WAT     H2 9409   3.689   2.630   0.652
 2964WAT      O 9410   4.043   2.813   0.418
 2964WAT     H1 9411   4.095   2.751   0.365
 2964WAT     H2 9412   4.108   2.863   0.467
 2965WAT      O 9413   4.317   2.902   0.500
 2965WAT     H1 9414   4.346   2.876   0.413
 2965WAT     H2 9415   4.369   2.846   0.559
 2966WAT      O 9416   4.439   1.276   0.558
 2966WAT     H1 9417   4.361   1.323   0.586
 2966WAT     H2 9418   4.410   1.185   0.547
 2967WAT      O 9419   4.894   1.346   0.363
 2967WAT     H1 9420   4.938   1.340   0.278
 2967WAT     H2 9421   4.867   1.437   0.370
 2968WAT      O 9422   4.678   1.184   0.233
 2968WAT     H1 9423   4.738   1.241   0.281
 2968WAT     H2 9424   4.604   1.240   0.211
 2969WAT      O 9425   4.324   2.994   1.237
 2969WAT     H1 9426   4.417   2.970   1.241
 2969WAT     H2 9427   4.323   3.076   1.189
 2970WAT      O 9428   4.043   1.260   1.213
 2970WAT     H1 9429   4.015   1.311   1.137
 2970WAT     H2 9430   4.081   1.180   1.177
 2971WAT      O 9431   4.703   1.202   1.271
 2971WAT     H1 9432   4.692   1.234   1.361
 2971WAT     H2 9433   4.785   1.242   1.242
 2972WAT      O 9434   4.981   2.916   1.219
 2972WAT     H1 9435   5.060   2.867   1.199
 2972WAT     H2 9436   5.010   2.984   1.280
 2973WAT      O 9437   4.407   0.304   6.005
 2973WAT     H1 9438   4.329   0.256   6.034
 2973WAT     H2 9439   4.472   0.236   5.988
 2974WAT      O 9440   4.809   0.745   5.883
 2974WAT     H1 9441   4.763   0.668   5.916
 2974WAT     H2 9442   4.890   0.747   5.934
 2975WAT      O 9443   3.806   0.739   6.113
 2975WAT     H1 9444   3.837   0.650   6.095
 2975WAT     H2 9445   3.881   0.794   6.090
 2976WAT      O 9446   4.431   0.973   5.845
 2976WAT     H1 9447   4.369   1.019   5.788
 2976WAT     H2 9448   4.517   0.989   5.805
 2977WAT      O 9449   4.351   0.572   6.006
 2977WAT     H1 9450   4.344   0.478   5.990
 2977WAT     H2 9451   4.427   0.581   6.063
 2978WAT      O 9452   4.518   0.462   5.585
 2978WAT     H1 9453   4.456   0.508   5.528
 2978WAT     H2 9454   4.569   0.531   5.626
 2979WAT      O 9455   3.455   0.530   5.322
 2979WAT     H1 9456   3.417   0.579   5.249
 2979WAT     H2 9457   3.481   0.597   5.385
 2980WAT      O 9458   4.771   0.942   6.097
 2980WAT     H1 9459   4.772   0.902   6.010
 2980WAT     H2 9460   4.716   1.019   6.087
 2981WAT      O 9461   4.900   0.614   5.606
 2981WAT     H1 9462   4.889   0.520   5.618
 2981WAT     H2 9463   4.900   0.650   5.695
 2982WAT      O 9464   4.455   0.177   5.542
 2982WAT     H1 9465   4.362   0.170   5.565
 2982WAT     H2 9466   4.470   0.271   5.530
 2983WAT      O 9467   4.857   0.333   5.592
 2983WAT     H1 9468   4.796   0.299   5.527
 2983WAT     H2 9469   4.856   0.269   5.663
 2984WAT      O 9470   4.015   0.229   5.820
 2984WAT     H1 9471   3.975   0.158   5.770
 2984WAT     H2 9472   4.024   0.195   5.909
 2985WAT      O 9473   4.062   0.598   6.036
 2985WAT     H1 9474   4.032   0.538   5.968
 2985WAT     H2 9475   4.157   0.602   6.025
 2986WAT      O 9476   4.675   0.257   5.293
 2986WAT     H1 9477   4.719   0.173   5.278
 2986WAT     H2 9478   4.746   0.320   5.301
 2987WAT      O 9479   4.486   0.751   5.690
 2987WAT     H1 9480   4.530   0.825   5.648
 2987WAT     H2 9481   4.480   0.775   5.782
 2988WAT      O 9482   3.573   0.606   5.792
 2988WAT     H1 9483   3.533   0.620   5.706
 2988WAT     H2 9484   3.663   0.578   5.771
 2989WAT      O 9485   4.753   1.050   5.425
 2989WAT     H1 9486   4.737   1.021   5.515
 2989WAT     H2 9487   4.736   0.972   5.372
 2990WAT      O 9488   4.001   1.028   5.603
 2990WAT     H1 9489   3.983   0.936   5.582
 2990WAT     H2 9490   3.915   1.063   5.627
 2991WAT      O 9491   4.723   0.800   5.281
 2991WAT     H1 9492   4.654   0.800   5.215
 2991WAT     H2 9493   4.797   0.758   5.238
 2992WAT      O 9494   4.680   0.963   5.689
 2992WAT     H1 9495   4.725   0.885   5.720
 2992WAT     H2 9496   4.713   1.034   5.743
 2993WAT      O 9497   3.859   0.487   5.460
 2993WAT     H1 9498   3.781   0.433   5.444
 2993WAT     H2 9499   3.932   0.435   5.426
 2994WAT      O 9500   4.935   0.387   6.039
 2994WAT     H1 9501   5.007   0.436   6.000
 2994WAT     H2 9502   4.914   0.319   5.975
 2995WAT      O 9503   3.863   0.454   5.824
 2995WAT     H1 9504   3.915   0.374   5.818
 2995WAT     H2 9505   3.818   0.448   5.908
 2996WAT      O 9506   4.352   0.581   5.351
 2996WAT     H1 9507   4.386   0.655   5.302
 2996WAT     H2 9508   4.269   0.612   5.387
 2997WAT      O 9509   5.082   0.780   5.503
 2997WAT     H1 9510   5.018   0.715   5.530
 2997WAT     H2 9511   5.044   0.821   5.425
 2998WAT      O 9512   4.640   0.513   5.888
 2998WAT     H1 9513   4.675   0.453   5.822
 2998WAT     H2 9514   4.552   0.480   5.905
 2999WAT      O 9515   4.249   0.589   5.628
 2999WAT     H1 9516   4.317   0.643   5.666
 2999WAT     H2 9517   4.170   0.643   5.632
 3000WAT      O 9518   4.179   0.289   5.590
 3000WAT     H1 9519   4.225   0.370   5.612
 3000WAT     H2 9520   4.144   0.257   5.673
 3001WAT      O 9521   4.921   0.669   5.157
 3001WAT     H1 9522   4.899   0.597   5.216
 3001WAT     H2 9523   4.882   0.644   5.073
 3002WAT      O 9524   3.499   1.072   5.234
 3002WAT     H1 9525   3.535   1.132   5.169
 3002WAT     H2 9526   3.485   1.126   5.311
 3003WAT      O 9527   4.879   0.461   5.323
 3003WAT     H1 9528   4.851   0.507   5.402
 3003WAT     H2 9529   4.959   0.415   5.350
 3004WAT      O 9530   4.101   0.810   5.316
 3004WAT     H1 9531   4.100   0.883   5.254
 3004WAT     H2 9532   4.009   0.785   5.325
 3005WAT      O 9533   3.661   0.332   5.390
 3005WAT     H1 9534   3.600   0.406   5.391
 3005WAT     H2 9535   3.709   0.341   5.308
 3006WAT      O 9536   4.400   0.816   5.182
 3006WAT     H1 9537   4.410   0.796   5.089
 3006WAT     H2 9538   4.310   0.791   5.203
 3007WAT      O 9539   4.264   1.068   5.652
 3007WAT     H1 9540   4.289   1.064   5.559
 3007WAT     H2 9541   4.169   1.056   5.651
 3008WAT      O 9542   3.862   0.328   5.165
 3008WAT     H1 9543   3.939   0.317   5.221
 3008WAT     H2 9544   3.870   0.259   5.100
 3009WAT      O 9545   5.065   0.877   5.977
 3009WAT     H1 9546   5.077   0.960   6.024
 3009WAT     H2 9547   5.151   0.856   5.942
 3010WAT      O 9548   3.812   1.087   5.944
 3010WAT     H1 9549   3.885   1.032   5.971
 3010WAT     H2 9550   3.850   1.173   5.930
 3011WAT      O 9551   3.500   0.693   5.531
 3011WAT     H1 9552   3.408   0.718   5.530
 3011WAT     H2 9553   3.547   0.776   5.519
 3012WAT      O 9554   4.123   1.004   5.126
 3012WAT     H1 9555   4.202   1.033   5.081
 3012WAT     H2 9556   4.071   0.961   5.058
 3013WAT      O 9557   5.028   0.927   5.268
 3013WAT     H1 9558   5.000   0.885   5.187
 3013WAT     H2 9559   5.008   1.019   5.256
 3014WAT      O 9560   4.175   0.526   5.113
 3014WAT     H1 9561   4.164   0.464   5.185
 3014WAT     H2 9562   4.158   0.474   5.034
 3015WAT      O 9563   4.499   0.432   5.173
 3015WAT     H1 9564   4.444   0.477   5.237
 3015WAT     H2 9565   4.561   0.382   5.225
 3016WAT      O 9566   4.065   0.328   5.363
 3016WAT     H1 9567   4.108   0.311   5.447
 3016WAT     H2 9568   4.078   0.247   5.313
 3017WAT      O 9569   4.317   0.230   5.087
 3017WAT     H1 9570   4.369   0.159   5.051
 3017WAT     H2 9571   4.381   0.294   5.117
 3018WAT      O 9572   4.373   1.039   5.316
 3018WAT     H1 9573   4.463   1.072   5.319
 3018WAT     H2 9574   4.376   0.966   5.254
 3019WAT      O 9575   3.737   0.576   5.139
 3019WAT     H1 9576   3.781   0.630   5.205
 3019WAT     H2 9577   3.786   0.493   5.140
 3020WAT      O 9578   3.459   0.855   5.884
 3020WAT     H1 9579   3.492   0.768   5.861
 3020WAT     H2 9580   3.501   0.875   5.968
 3021WAT      O 9581   3.918   0.688   5.650
 3021WAT     H1 9582   3.888   0.675   5.741
 3021WAT     H2 9583   3.908   0.602   5.610
 3022WAT      O 9584   5.195   0.666   5.121
 3022WAT     H1 9585   5.112   0.672   5.168
 3022WAT     H2 9586   5.213   0.755   5.090
 3023WAT      O 9587   5.141   0.340   5.371
 3023WAT     H1 9588   5.217   0.397   5.382
 3023WAT     H2 9589   5.142   0.283   5.448
 3024WAT      O 9590   3.491   0.193   5.794
 3024WAT     H1 9591   3.425   0.166   5.730
 3024WAT     H2 9592   3.574   0.182   5.749
 3025WAT      O 9593   5.241   0.426   5.856
 3025WAT     H1 9594   5.278   0.347   5.815
 3025WAT     H2 9595   5.305   0.495   5.838
 3026WAT      O 9596   5.146   0.370   5.087
 3026WAT     H1 9597   5.173   0.460   5.074
 3026WAT     H2 9598   5.127   0.363   5.180
 3027WAT      O 9599   4.945   1.039   5.749
 3027WAT     H1 9600   5.005   1.007   5.682
 3027WAT     H2 9601   4.971   0.992   5.829
 3028WAT      O 9602   5.000   1.104   6.132
 3028WAT     H1 9603   4.954   1.179   6.095
 3028WAT     H2 9604   4.938   1.032   6.127
 3029WAT      O 9605   4.043   0.935   6.050
 3029WAT     H1 9606   4.095   0.874   5.997
 3029WAT     H2 9607   4.108   0.985   6.099
 3030WAT      O 9608   3.511   1.045   5.692
 3030WAT     H1 9609   3.494   0.982   5.762
 3030WAT     H2 9610   3.425   1.066   5.657
 3031WAT      O 9611   3.672   0.915   5.437
 3031WAT     H1 9612   3.619   0.953   5.367
 3031WAT     H2 9613   3.664   0.977   5.509
 3032WAT      O 9614   5.148   1.071   5.569
 3032WAT     H1 9615   5.165   1.002   5.505
 3032WAT     H2 9616   5.078   1.123   5.530
 3033WAT      O 9617   3.932   1.110   5.324
 3033WAT     H1 9618   4.005   1.081   5.270
 3033WAT     H2 9619   3.958   1.086   5.413
 3034WAT      O 9620   3.848   0.721   5.325
 3034WAT     H1 9621   3.785   0.768   5.380
 3034WAT     H2 9622   3.859   0.637   5.368
 3035WAT      O 9623   4.407   0.304   4.128
 3035WAT     H1 9624   4.329   0.256   4.157
 3035WAT     H2 9625   4.472   0.236   4.111
 3036WAT      O 9626   3.808   0.335   4.216
 3036WAT     H1 9627   3.725   0.310   4.256
 3036WAT     H2 9628   3.869   0.342   4.289
 3037WAT      O 9629   4.809   0.745   4.006
 3037WAT     H1 9630   4.763   0.668   4.039
 3037WAT     H2 9631   4.890   0.747   4.057
 3038WAT      O 9632   3.806   0.739   4.235
 3038WAT     H1 9633   3.837   0.650   4.217
 3038WAT     H2 9634   3.881   0.794   4.213
 3039WAT      O 9635   4.431   0.973   3.968
 3039WAT     H1 9636   4.369   1.019   3.911
 3039WAT     H2 9637   4.517   0.989   3.928
 3040WAT      O 9638   4.351   0.572   4.129
 3040WAT     H1 9639   4.344   0.478   4.113
 3040WAT     H2 9640   4.427   0.581   4.186
 3041WAT      O 9641   4.518   0.462   3.707
 3041WAT     H1 9642   4.456   0.508   3.651
 3041WAT     H2 9643   4.569   0.531   3.749
 3042WAT      O 9644   4.004   0.414   4.375
 3042WAT     H1 9645   3.971   0.477   4.439
 3042WAT     H2 9646   4.022   0.467   4.297
 3043WAT      O 9647   3.925   0.611   4.557
 3043WAT     H1 9648   3.987   0.679   4.529
 3043WAT     H2 9649   3.839   0.652   4.548
 3044WAT      O 9650   3.455   0.530   3.445
 3044WAT     H1 9651   3.417   0.579   3.372
 3044WAT     H2 9652   3.481   0.597   3.508
 3045WAT      O 9653   5.017   0.758   4.348
 3045WAT     H1 9654   4.949   0.825   4.347
 3045WAT     H2 9655   5.071   0.777   4.272
 3046WAT      O 9656   4.771   0.942   4.220
 3046WAT     H1 9657   4.772   0.902   4.133
 3046WAT     H2 9658   4.716   1.019   4.209
 3047WAT      O 9659   4.900   0.614   3.729
 3047WAT     H1 9660   4.889   0.520   3.741
 3047WAT     H2 9661   4.900   0.650   3.817
 3048WAT      O 9662   4.711   0.432   4.352
 3048WAT     H1 9663   4.752   0.411   4.269
 3048WAT     H2 9664   4.783   0.458   4.410
 3049WAT      O 9665   4.455   0.177   3.664
 3049WAT     H1 9666   4.362   0.170   3.687
 3049WAT     H2 9667   4.470   0.271   3.653
 3050WAT      O 9668   5.105   0.272   4.362
 3050WAT     H1 9669   5.023   0.279   4.314
 3050WAT     H2 9670   5.165   0.331   4.315
 3051WAT      O 9671   4.857   0.333   3.715
 3051WAT     H1 9672   4.796   0.299   3.650
 3051WAT     H2 9673   4.856   0.269   3.785
 3052WAT      O 9674   4.015   0.229   3.942
 3052WAT     H1 9675   3.975   0.158   3.893
 3052WAT     H2 9676   4.024   0.195   4.031
 3053WAT      O 9677   4.062   0.598   4.159
 3053WAT     H1 9678   4.032   0.538   4.091
 3053WAT     H2 9679   4.157   0.602   4.148
 3054WAT      O 9680   4.871   0.955   4.525
 3054WAT     H1 9681   4.823   1.036   4.506
 3054WAT     H2 9682   4.802   0.890   4.540
 3055WAT      O 9683   3.971   0.572   4.824
 3055WAT     H1 9684   3.881   0.594   4.849
 3055WAT     H2 9685   3.974   0.584   4.729
 3056WAT      O 9686   4.675   0.257   3.415
 3056WAT     H1 9687   4.719   0.173   3.401
 3056WAT     H2 9688   4.746   0.320   3.424
 3057WAT      O 9689   3.854   0.259   4.681
 3057WAT     H1 9690   3.840   0.346   4.718
 3057WAT     H2 9691   3.766   0.225   4.667
 3058WAT      O 9692   4.486   0.751   3.812
 3058WAT     H1 9693   4.530   0.825   3.771
 3058WAT     H2 9694   4.480   0.775   3.904
 3059WAT      O 9695   4.034   0.853   4.902
 3059WAT     H1 9696   4.031   0.894   4.816
 3059WAT     H2 9697   4.017   0.760   4.886
 3060WAT      O 9698   5.229   0.932   5.032
 3060WAT     H1 9699   5.276   0.979   5.100
 3060WAT     H2 9700   5.291   0.925   4.959
 3061WAT      O 9701   3.449   0.436   4.273
 3061WAT     H1 9702   3.457   0.450   4.179
 3061WAT     H2 9703   3.510   0.365   4.292
 3062WAT      O 9704   3.573   0.606   3.914
 3062WAT     H1 9705   3.533   0.620   3.829
 3062WAT     H2 9706   3.663   0.578   3.894
 3063WAT      O 9707   5.169   0.651   4.748
 3063WAT     H1 9708   5.182   0.627   4.656
 3063WAT     H2 9709   5.173   0.568   4.795
 3064WAT      O 9710   4.555   1.021   4.605
 3064WAT     H1 9711   4.607   1.012   4.685
 3064WAT     H2 9712   4.471   1.056   4.634
 3065WAT      O 9713   4.753   1.050   3.548
 3065WAT     H1 9714   4.737   1.021   3.638
 3065WAT     H2 9715   4.736   0.972   3.494
 3066WAT      O 9716   4.001   1.028   3.725
 3066WAT     H1 9717   3.983   0.936   3.704
 3066WAT     H2 9718   3.915   1.063   3.749
 3067WAT      O 9719   4.723   0.800   3.404
 3067WAT     H1 9720   4.654   0.800   3.338
 3067WAT     H2 9721   4.797   0.758   3.361
 3068WAT      O 9722   4.680   0.963   3.811
 3068WAT     H1 9723   4.725   0.885   3.843
 3068WAT     H2 9724   4.713   1.034   3.866
 3069WAT      O 9725   3.455   0.540   4.527
 3069WAT     H1 9726   3.471   0.493   4.445
 3069WAT     H2 9727   3.501   0.489   4.594
 3070WAT      O 9728   3.612   0.478   4.743
 3070WAT     H1 9729   3.574   0.414   4.803
 3070WAT     H2 9730   3.643   0.548   4.800
 3071WAT      O 9731   3.859   0.487   3.583
 3071WAT     H1 9732   3.781   0.433   3.567
 3071WAT     H2 9733   3.932   0.435   3.549
 3072WAT      O 9734   4.935   0.387   4.162
 3072WAT     H1 9735   5.007   0.436   4.123
 3072WAT     H2 9736   4.914   0.319   4.097
 3073WAT      O 9737   4.473   0.394   4.751
 3073WAT     H1 9738   4.466   0.302   4.725
 3073WAT     H2 9739   4.410   0.404   4.822
 3074WAT      O 9740   3.863   0.454   3.946
 3074WAT     H1 9741   3.915   0.374   3.941
 3074WAT     H2 9742   3.818   0.448   4.031
 3075WAT      O 9743   4.352   0.581   3.474
 3075WAT     H1 9744   4.386   0.655   3.424
 3075WAT     H2 9745   4.269   0.612   3.510
 3076WAT      O 9746   4.466   0.676   4.726
 3076WAT     H1 9747   4.467   0.583   4.704
 3076WAT     H2 9748   4.395   0.685   4.790
 3077WAT      O 9749   5.087   0.340   4.660
 3077WAT     H1 9750   5.015   0.400   4.641
 3077WAT     H2 9751   5.140   0.339   4.580
 3078WAT      O 9752   5.082   0.780   3.625
 3078WAT     H1 9753   5.018   0.715   3.653
 3078WAT     H2 9754   5.044   0.821   3.548
 3079WAT      O 9755   4.640   0.513   4.010
 3079WAT     H1 9756   4.675   0.453   3.944
 3079WAT     H2 9757   4.552   0.480   4.027
 3080WAT      O 9758   4.249   0.589   3.751
 3080WAT     H1 9759   4.317   0.643   3.789
 3080WAT     H2 9760   4.170   0.643   3.754
 3081WAT      O 9761   4.179   0.289   3.712
 3081WAT     H1 9762   4.225   0.370   3.735
 3081WAT     H2 9763   4.144   0.257   3.795
 3082WAT      O 9764   4.409   0.840   4.435
 3082WAT     H1 9765   4.474   0.861   4.503
 3082WAT     H2 9766   4.446   0.764   4.390
 3083WAT      O 9767   4.537   0.641   4.307
 3083WAT     H1 9768   4.601   0.571   4.318
 3083WAT     H2 9769   4.589   0.719   4.289
 3084WAT      O 9770   4.921   0.669   3.279
 3084WAT     H1 9771   4.899   0.597   3.338
 3084WAT     H2 9772   4.882   0.644   3.195
 3085WAT      O 9773   4.714   0.721   4.627
 3085WAT     H1 9774   4.748   0.779   4.695
 3085WAT     H2 9775   4.622   0.708   4.650
 3086WAT      O 9776   3.499   1.072   3.357
 3086WAT     H1 9777   3.535   1.132   3.291
 3086WAT     H2 9778   3.485   1.126   3.434
 3087WAT      O 9779   4.879   0.461   3.445
 3087WAT     H1 9780   4.851   0.507   3.524
 3087WAT     H2 9781   4.959   0.415   3.472
 3088WAT      O 9782   3.498   0.898   4.804
 3088WAT     H1 9783   3.509   0.804   4.790
 3088WAT     H2 9784   3.433   0.925   4.739
 3089WAT      O 9785   4.297   0.726   4.944
 3089WAT     H1 9786   4.265   0.654   4.999
 3089WAT     H2 9787   4.229   0.793   4.951
 3090WAT      O 9788   4.101   0.810   3.438
 3090WAT     H1 9789   4.100   0.883   3.377
 3090WAT     H2 9790   4.009   0.785   3.448
 3091WAT      O 9791   3.661   0.332   3.513
 3091WAT     H1 9792   3.600   0.406   3.514
 3091WAT     H2 9793   3.709   0.341   3.430
 3092WAT      O 9794   4.400   0.816   3.305
 3092WAT     H1 9795   4.410   0.796   3.212
 3092WAT     H2 9796   4.310   0.791   3.325
 3093WAT      O 9797   4.264   1.068   3.774
 3093WAT     H1 9798   4.289   1.064   3.682
 3093WAT     H2 9799   4.169   1.056   3.773
 3094WAT      O 9800   3.862   0.328   3.288
 3094WAT     H1 9801   3.939   0.317   3.344
 3094WAT     H2 9802   3.870   0.259   3.223
 3095WAT      O 9803   5.065   0.877   4.099
 3095WAT     H1 9804   5.077   0.960   4.146
 3095WAT     H2 9805   5.151   0.856   4.064
 3096WAT      O 9806   3.812   1.087   4.066
 3096WAT     H1 9807   3.885   1.032   4.093
 3096WAT     H2 9808   3.850   1.173   4.052
 3097WAT      O 9809   3.500   0.693   3.654
 3097WAT     H1 9810   3.408   0.718   3.653
 3097WAT     H2 9811   3.547   0.776   3.642
 3098WAT      O 9812   3.712   1.005   4.985
 3098WAT     H1 9813   3.792   1.037   5.027
 3098WAT     H2 9814   3.661   0.969   5.057
 3099WAT      O 9815   4.123   1.004   3.249
 3099WAT     H1 9816   4.202   1.033   3.203
 3099WAT     H2 9817   4.071   0.961   3.181
 3100WAT      O 9818   4.596   0.616   4.980
 3100WAT     H1 9819   4.535   0.618   4.906
 3100WAT     H2 9820   4.566   0.543   5.034
 3101WAT      O 9821   4.739   0.989   4.841
 3101WAT     H1 9822   4.834   0.980   4.836
 3101WAT     H2 9823   4.724   1.055   4.908
 3102WAT      O 9824   5.028   0.927   3.391
 3102WAT     H1 9825   5.000   0.885   3.310
 3102WAT     H2 9826   5.008   1.019   3.379
 3103WAT      O 9827   3.484   0.254   4.880
 3103WAT     H1 9828   3.535   0.196   4.937
 3103WAT     H2 9829   3.410   0.282   4.933
 3104WAT      O 9830   4.175   0.526   3.235
 3104WAT     H1 9831   4.164   0.464   3.308
 3104WAT     H2 9832   4.158   0.474   3.157
 3105WAT      O 9833   4.190   0.394   4.833
 3105WAT     H1 9834   4.113   0.451   4.825
 3105WAT     H2 9835   4.208   0.365   4.744
 3106WAT      O 9836   4.499   0.432   3.296
 3106WAT     H1 9837   4.444   0.477   3.360
 3106WAT     H2 9838   4.561   0.382   3.348
 3107WAT      O 9839   4.904   0.568   4.889
 3107WAT     H1 9840   4.978   0.601   4.838
 3107WAT     H2 9841   4.828   0.584   4.833
 3108WAT      O 9842   4.065   0.328   3.485
 3108WAT     H1 9843   4.108   0.311   3.569
 3108WAT     H2 9844   4.078   0.247   3.436
 3109WAT      O 9845   4.317   0.230   3.210
 3109WAT     H1 9846   4.369   0.159   3.173
 3109WAT     H2 9847   4.381   0.294   3.240
 3110WAT      O 9848   4.771   0.373   4.742
 3110WAT     H1 9849   4.813   0.388   4.827
 3110WAT     H2 9850   4.678   0.385   4.759
 3111WAT      O 9851   4.248   0.368   4.539
 3111WAT     H1 9852   4.289   0.452   4.522
 3111WAT     H2 9853   4.156   0.382   4.516
 3112WAT      O 9854   4.715   0.196   4.535
 3112WAT     H1 9855   4.662   0.249   4.475
 3112WAT     H2 9856   4.749   0.260   4.598
 3113WAT      O 9857   4.033   0.998   4.651
 3113WAT     H1 9858   3.979   1.071   4.619
 3113WAT     H2 9859   4.058   0.951   4.572
 3114WAT      O 9860   4.318   1.122   4.677
 3114WAT     H1 9861   4.311   1.212   4.707
 3114WAT     H2 9862   4.228   1.090   4.674
 3115WAT      O 9863   4.373   1.039   3.439
 3115WAT     H1 9864   4.463   1.072   3.441
 3115WAT     H2 9865   4.376   0.966   3.376
 3116WAT      O 9866   3.737   0.576   3.262
 3116WAT     H1 9867   3.781   0.630   3.327
 3116WAT     H2 9868   3.786   0.493   3.263
 3117WAT      O 9869   3.459   0.855   4.007
 3117WAT     H1 9870   3.492   0.768   3.984
 3117WAT     H2 9871   3.501   0.875   4.090
 3118WAT      O 9872   3.918   0.688   3.773
 3118WAT     H1 9873   3.888   0.675   3.863
 3118WAT     H2 9874   3.908   0.602   3.732
 3119WAT      O 9875   3.507   0.941   4.281
 3119WAT     H1 9876   3.464   0.959   4.364
 3119WAT     H2 9877   3.564   1.017   4.267
 3120WAT      O 9878   5.071   0.892   4.710
 3120WAT     H1 9879   5.011   0.897   4.635
 3120WAT     H2 9880   5.084   0.798   4.723
 3121WAT      O 9881   5.195   0.666   3.243
 3121WAT     H1 9882   5.112   0.672   3.290
 3121WAT     H2 9883   5.213   0.755   3.213
 3122WAT      O 9884   5.141   0.340   3.494
 3122WAT     H1 9885   5.217   0.397   3.504
 3122WAT     H2 9886   5.142   0.283   3.571
 3123WAT      O 9887   3.491   0.193   3.917
 3123WAT     H1 9888   3.425   0.166   3.852
 3123WAT     H2 9889   3.574   0.182   3.872
 3124WAT      O 9890   5.241   0.426   3.978
 3124WAT     H1 9891   5.278   0.347   3.937
 3124WAT     H2 9892   5.305   0.495   3.960
 3125WAT      O 9893   4.940   0.564   4.519
 3125WAT     H1 9894   4.858   0.607   4.546
 3125WAT     H2 9895   4.980   0.625   4.458
 3126WAT      O 9896   5.146   0.370   3.209
 3126WAT     H1 9897   5.173   0.460   3.197
 3126WAT     H2 9898   5.127   0.363   3.303
 3127WAT      O 9899   4.945   1.039   3.872
 3127WAT     H1 9900   5.005   1.007   3.804
 3127WAT     H2 9901   4.971   0.992   3.951
 3128WAT      O 9902   3.736   0.682   4.887
 3128WAT     H1 9903   3.732   0.645   4.975
 3128WAT     H2 9904   3.749   0.776   4.901
 3129WAT      O 9905   4.106   0.838   4.447
 3129WAT     H1 9906   4.082   0.865   4.358
 3129WAT     H2 9907   4.200   0.855   4.453
 3130WAT      O 9908   5.232   1.040   4.527
 3130WAT     H1 9909   5.183   1.080   4.455
 3130WAT     H2 9910   5.171   0.977   4.567
 3131WAT      O 9911   3.720   0.977   4.599
 3131WAT     H1 9912   3.660   0.964   4.673
 3131WAT     H2 9913   3.719   0.893   4.552
 3132WAT      O 9914   5.000   1.104   4.255
 3132WAT     H1 9915   4.954   1.179   4.218
 3132WAT     H2 9916   4.938   1.032   4.249
 3133WAT      O 9917   3.683   0.714   4.494
 3133WAT     H1 9918   3.610   0.652   4.487
 3133WAT     H2 9919   3.689   0.753   4.407
 3134WAT      O 9920   4.043   0.935   4.173
 3134WAT     H1 9921   4.095   0.874   4.120
 3134WAT     H2 9922   4.108   0.985   4.222
 3135WAT      O 9923   4.317   1.024   4.255
 3135WAT     H1 9924   4.346   0.999   4.168
 3135WAT     H2 9925   4.369   0.969   4.314
 3136WAT      O 9926   3.511   1.045   3.815
 3136WAT     H1 9927   3.494   0.982   3.885
 3136WAT     H2 9928   3.425   1.066   3.780
 3137WAT      O 9929   3.672   0.915   3.559
 3137WAT     H1 9930   3.619   0.953   3.489
 3137WAT     H2 9931   3.664   0.977   3.632
 3138WAT      O 9932   4.324   1.116   4.992
 3138WAT     H1 9933   4.417   1.093   4.996
 3138WAT     H2 9934   4.323   1.199   4.944
 3139WAT      O 9935   5.148   1.071   3.692
 3139WAT     H1 9936   5.165   1.002   3.627
 3139WAT     H2 9937   5.078   1.123   3.652
 3140WAT      O 9938   3.932   1.110   3.447
 3140WAT     H1 9939   4.005   1.081   3.392
 3140WAT     H2 9940   3.958   1.086   3.536
 3141WAT      O 9941   3.848   0.721   3.447
 3141WAT     H1 9942   3.785   0.768   3.502
 3141WAT     H2 9943   3.859   0.637   3.491
 3142WAT      O 9944   4.981   1.039   4.974
 3142WAT     H1 9945   5.060   0.990   4.954
 3142WAT     H2 9946   5.010   1.107   5.035
 3143WAT      O 9947   4.407   0.304   2.251
 3143WAT     H1 9948   4.329   0.256   2.280
 3143WAT     H2 9949   4.472   0.236   2.233
 3144WAT      O 9950   3.808   0.335   2.338
 3144WAT     H1 9951   3.725   0.310   2.378
 3144WAT     H2 9952   3.869   0.342   2.412
 3145WAT      O 9953   4.809   0.745   2.129
 3145WAT     H1 9954   4.763   0.668   2.161
 3145WAT     H2 9955   4.890   0.747   2.179
 3146WAT      O 9956   3.806   0.739   2.358
 3146WAT     H1 9957   3.837   0.650   2.340
 3146WAT     H2 9958   3.881   0.794   2.335
 3147WAT      O 9959   4.431   0.973   2.091
 3147WAT     H1 9960   4.369   1.019   2.034
 3147WAT     H2 9961   4.517   0.989   2.050
 3148WAT      O 9962   4.351   0.572   2.251
 3148WAT     H1 9963   4.344   0.478   2.235
 3148WAT     H2 9964   4.427   0.581   2.308
 3149WAT      O 9965   4.518   0.462   1.830
 3149WAT     H1 9966   4.456   0.508   1.774
 3149WAT     H2 9967   4.569   0.531   1.872
 3150WAT      O 9968   4.004   0.414   2.498
 3150WAT     H1 9969   3.971   0.477   2.562
 3150WAT     H2 9970   4.022   0.467   2.420
 3151WAT      O 9971   3.925   0.611   2.679
 3151WAT     H1 9972   3.987   0.679   2.651
 3151WAT     H2 9973   3.839   0.652   2.670
 3152WAT      O 9974   3.455   0.530   1.567
 3152WAT     H1 9975   3.417   0.579   1.494
 3152WAT     H2 9976   3.481   0.597   1.630
 3153WAT      O 9977   5.017   0.758   2.471
 3153WAT     H1 9978   4.949   0.825   2.470
 3153WAT     H2 9979   5.071   0.777   2.394
 3154WAT      O 9980   4.771   0.942   2.342
 3154WAT     H1 9981   4.772   0.902   2.255
 3154WAT     H2 9982   4.716   1.019   2.332
 3155WAT      O 9983   4.900   0.614   1.851
 3155WAT     H1 9984   4.889   0.520   1.864
 3155WAT     H2 9985   4.900   0.650   1.940
 3156WAT      O 9986   4.711   0.432   2.475
 3156WAT     H1 9987   4.752   0.411   2.392
 3156WAT     H2 9988   4.783   0.458   2.532
 3157WAT      O 9989   4.455   0.177   1.787
 3157WAT     H1 9990   4.362   0.170   1.810
 3157WAT     H2 9991   4.470   0.271   1.775
 3158WAT      O 9992   5.105   0.272   2.484
 3158WAT     H1 9993   5.023   0.279   2.437
 3158WAT     H2 9994   5.165   0.331   2.437
 3159WAT      O 9995   4.857   0.333   1.837
 3159WAT     H1 9996   4.796   0.299   1.772
 3159WAT     H2 9997   4.856   0.269   1.908
 3160WAT      O 9998   4.015   0.229   2.065
 3160WAT     H1 9999   3.975   0.158   2.015
 3160WAT     H210000   4.024   0.195   2.154
 3161WAT      O10001   4.062   0.598   2.281
 3161WAT     H110002   4.032   0.538   2.213
 3161WAT     H210003   4.157   0.602   2.270
 3162WAT      O10004   4.871   0.955   2.648
 3162WAT     H110005   4.823   1.036   2.628
 3162WAT     H210006   4.802   0.890   2.663
 3163WAT      O10007   3.971   0.572   2.946
 3163WAT     H110008   3.881   0.594   2.971
 3163WAT     H210009   3.974   0.584   2.852
 3164WAT      O10010   4.675   0.257   1.538
 3164WAT     H110011   4.719   0.173   1.523
 3164WAT     H210012   4.746   0.320   1.546
 3165WAT      O10013   3.854   0.259   2.804
 3165WAT     H110014   3.840   0.346   2.841
 3165WAT     H210015   3.766   0.225   2.789
 3166WAT      O10016   4.486   0.751   1.935
 3166WAT     H110017   4.530   0.825   1.893
 3166WAT     H210018   4.480   0.775   2.027
 3167WAT      O10019   4.034   0.853   3.025
 3167WAT     H110020   4.031   0.894   2.938
 3167WAT     H210021   4.017   0.760   3.009
 3168WAT      O10022   5.229   0.932   3.154
 3168WAT     H110023   5.276   0.979   3.222
 3168WAT     H210024   5.291   0.925   3.082
 3169WAT      O10025   3.449   0.436   2.396
 3169WAT     H110026   3.457   0.450   2.301
 3169WAT     H210027   3.510   0.365   2.415
 3170WAT      O10028   3.573   0.606   2.037
 3170WAT     H110029   3.533   0.620   1.951
 3170WAT     H210030   3.663   0.578   2.016
 3171WAT      O10031   5.169   0.651   2.870
 3171WAT     H110032   5.182   0.627   2.779
 3171WAT     H210033   5.173   0.568   2.918
 3172WAT      O10034   4.555   1.021   2.727
 3172WAT     H110035   4.607   1.012   2.808
 3172WAT     H210036   4.471   1.056   2.757
 3173WAT      O10037   4.753   1.050   1.670
 3173WAT     H110038   4.737   1.021   1.760
 3173WAT     H210039   4.736   0.972   1.617
 3174WAT      O10040   4.001   1.028   1.848
 3174WAT     H110041   3.983   0.936   1.827
 3174WAT     H210042   3.915   1.063   1.872
 3175WAT      O10043   4.723   0.800   1.526
 3175WAT     H110044   4.654   0.800   1.460
 3175WAT     H210045   4.797   0.758   1.483
 3176WAT      O10046   4.680   0.963   1.934
 3176WAT     H110047   4.725   0.885   1.965
 3176WAT     H210048   4.713   1.034   1.988
 3177WAT      O10049   3.455   0.540   2.650
 3177WAT     H110050   3.471   0.493   2.568
 3177WAT     H210051   3.501   0.489   2.716
 3178WAT      O10052   3.612   0.478   2.866
 3178WAT     H110053   3.574   0.414   2.925
 3178WAT     H210054   3.643   0.548   2.923
 3179WAT      O10055   3.859   0.487   1.705
 3179WAT     H110056   3.781   0.433   1.689
 3179WAT     H210057   3.932   0.435   1.671
 3180WAT      O10058   4.935   0.387   2.284
 3180WAT     H110059   5.007   0.436   2.245
 3180WAT     H210060   4.914   0.319   2.220
 3181WAT      O10061   4.473   0.394   2.873
 3181WAT     H110062   4.466   0.302   2.848
 3181WAT     H210063   4.410   0.404   2.945
 3182WAT      O10064   3.863   0.454   2.069
 3182WAT     H110065   3.915   0.374   2.064
 3182WAT     H210066   3.818   0.448   2.153
 3183WAT      O10067   4.352   0.581   1.596
 3183WAT     H110068   4.386   0.655   1.547
 3183WAT     H210069   4.269   0.612   1.633
 3184WAT      O10070   4.466   0.676   2.848
 3184WAT     H110071   4.467   0.583   2.826
 3184WAT     H210072   4.395   0.685   2.912
 3185WAT      O10073   5.087   0.340   2.783
 3185WAT     H110074   5.015   0.400   2.763
 3185WAT     H210075   5.140   0.339   2.703
 3186WAT      O10076   5.082   0.780   1.748
 3186WAT     H110077   5.018   0.715   1.775
 3186WAT     H210078   5.044   0.821   1.670
 3187WAT      O10079   4.640   0.513   2.133
 3187WAT     H110080   4.675   0.453   2.067
 3187WAT     H210081   4.552   0.480   2.150
 3188WAT      O10082   4.249   0.589   1.873
 3188WAT     H110083   4.317   0.643   1.912
 3188WAT     H210084   4.170   0.643   1.877
 3189WAT      O10085   4.179   0.289   1.835
 3189WAT     H110086   4.225   0.370   1.857
 3189WAT     H210087   4.144   0.257   1.918
 3190WAT      O10088   4.409   0.840   2.558
 3190WAT     H110089   4.474   0.861   2.625
 3190WAT     H210090   4.446   0.764   2.512
 3191WAT      O10091   4.537   0.641   2.429
 3191WAT     H110092   4.601   0.571   2.441
 3191WAT     H210093   4.589   0.719   2.411
 3192WAT      O10094   4.921   0.669   1.402
 3192WAT     H110095   4.899   0.597   1.461
 3192WAT     H210096   4.882   0.644   1.318
 3193WAT      O10097   4.714   0.721   2.750
 3193WAT     H110098   4.748   0.779   2.818
 3193WAT     H210099   4.622   0.708   2.773
 3194WAT      O10100   3.499   1.072   1.479
 3194WAT     H110101   3.535   1.132   1.414
 3194WAT     H210102   3.485   1.126   1.557
 3195WAT      O10103   4.879   0.461   1.568
 3195WAT     H110104   4.851   0.507   1.647
 3195WAT     H210105   4.959   0.415   1.595
 3196WAT      O10106   3.498   0.898   2.927
 3196WAT     H110107   3.509   0.804   2.913
 3196WAT     H210108   3.433   0.925   2.862
 3197WAT      O10109   4.297   0.726   3.067
 3197WAT     H110110   4.265   0.654   3.121
 3197WAT     H210111   4.229   0.793   3.074
 3198WAT      O10112   4.101   0.810   1.561
 3198WAT     H110113   4.100   0.883   1.499
 3198WAT     H210114   4.009   0.785   1.570
 3199WAT      O10115   3.661   0.332   1.635
 3199WAT     H110116   3.600   0.406   1.636
 3199WAT     H210117   3.709   0.341   1.553
 3200WAT      O10118   4.400   0.816   1.427
 3200WAT     H110119   4.410   0.796   1.334
 3200WAT     H210120   4.310   0.791   1.448
 3201WAT      O10121   4.264   1.068   1.897
 3201WAT     H110122   4.289   1.064   1.804
 3201WAT     H210123   4.169   1.056   1.896
 3202WAT      O10124   3.862   0.328   1.410
 3202WAT     H110125   3.939   0.317   1.467
 3202WAT     H210126   3.870   0.259   1.345
 3203WAT      O10127   5.065   0.877   2.222
 3203WAT     H110128   5.077   0.960   2.269
 3203WAT     H210129   5.151   0.856   2.187
 3204WAT      O10130   3.812   1.087   2.189
 3204WAT     H110131   3.885   1.032   2.216
 3204WAT     H210132   3.850   1.173   2.175
 3205WAT      O10133   3.500   0.693   1.776
 3205WAT     H110134   3.408   0.718   1.775
 3205WAT     H210135   3.547   0.776   1.764
 3206WAT      O10136   3.712   1.005   3.108
 3206WAT     H110137   3.792   1.037   3.149
 3206WAT     H210138   3.661   0.969   3.180
 3207WAT      O10139   4.123   1.004   1.371
 3207WAT     H110140   4.202   1.033   1.326
 3207WAT     H210141   4.071   0.961   1.303
 3208WAT      O10142   4.596   0.616   3.103
 3208WAT     H110143   4.535   0.618   3.029
 3208WAT     H210144   4.566   0.543   3.156
 3209WAT      O10145   4.739   0.989   2.964
 3209WAT     H110146   4.834   0.980   2.959
 3209WAT     H210147   4.724   1.055   3.031
 3210WAT      O10148   5.028   0.927   1.514
 3210WAT     H110149   5.000   0.885   1.432
 3210WAT     H210150   5.008   1.019   1.502
 3211WAT      O10151   3.484   0.254   3.002
 3211WAT     H110152   3.535   0.196   3.059
 3211WAT     H210153   3.410   0.282   3.056
 3212WAT      O10154   4.175   0.526   1.358
 3212WAT     H110155   4.164   0.464   1.430
 3212WAT     H210156   4.158   0.474   1.279
 3213WAT      O10157   4.190   0.394   2.956
 3213WAT     H110158   4.113   0.451   2.947
 3213WAT     H210159   4.208   0.365   2.866
 3214WAT      O10160   4.499   0.432   1.418
 3214WAT     H110161   4.444   0.477   1.483
 3214WAT     H210162   4.561   0.382   1.470
 3215WAT      O10163   4.904   0.568   3.011
 3215WAT     H110164   4.978   0.601   2.961
 3215WAT     H210165   4.828   0.584   2.956
 3216WAT      O10166   4.065   0.328   1.608
 3216WAT     H110167   4.108   0.311   1.692
 3216WAT     H210168   4.078   0.247   1.558
 3217WAT      O10169   4.317   0.230   1.333
 3217WAT     H110170   4.369   0.159   1.296
 3217WAT     H210171   4.381   0.294   1.363
 3218WAT      O10172   4.771   0.373   2.865
 3218WAT     H110173   4.813   0.388   2.950
 3218WAT     H210174   4.678   0.385   2.881
 3219WAT      O10175   4.248   0.368   2.662
 3219WAT     H110176   4.289   0.452   2.645
 3219WAT     H210177   4.156   0.382   2.639
 3220WAT      O10178   4.715   0.196   2.658
 3220WAT     H110179   4.662   0.249   2.597
 3220WAT     H210180   4.749   0.260   2.721
 3221WAT      O10181   4.033   0.998   2.773
 3221WAT     H110182   3.979   1.071   2.741
 3221WAT     H210183   4.058   0.951   2.694
 3222WAT      O10184   4.318   1.122   2.799
 3222WAT     H110185   4.311   1.212   2.830
 3222WAT     H210186   4.228   1.090   2.796
 3223WAT      O10187   4.373   1.039   1.562
 3223WAT     H110188   4.463   1.072   1.564
 3223WAT     H210189   4.376   0.966   1.499
 3224WAT      O10190   3.737   0.576   1.384
 3224WAT     H110191   3.781   0.630   1.450
 3224WAT     H210192   3.786   0.493   1.385
 3225WAT      O10193   3.459   0.855   2.130
 3225WAT     H110194   3.492   0.768   2.106
 3225WAT     H210195   3.501   0.875   2.213
 3226WAT      O10196   3.918   0.688   1.896
 3226WAT     H110197   3.888   0.675   1.986
 3226WAT     H210198   3.908   0.602   1.855
 3227WAT      O10199   3.507   0.941   2.403
 3227WAT     H110200   3.464   0.959   2.487
 3227WAT     H210201   3.564   1.017   2.389
 3228WAT      O10202   5.071   0.892   2.832
 3228WAT     H110203   5.011   0.897   2.758
 3228WAT     H210204   5.084   0.798   2.845
 3229WAT      O10205   5.195   0.666   1.366
 3229WAT     H110206   5.112   0.672   1.413
 3229WAT     H210207   5.213   0.755   1.336
 3230WAT      O10208   5.141   0.340   1.616
 3230WAT     H110209   5.217   0.397   1.627
 3230WAT     H210210   5.142   0.283   1.693
 3231WAT      O10211   3.491   0.193   2.039
 3231WAT     H110212   3.425   0.166   1.975
 3231WAT     H210213   3.574   0.182   1.994
 3232WAT      O10214   5.241   0.426   2.101
 3232WAT     H110215   5.278   0.347   2.060
 3232WAT     H210216   5.305   0.495   2.083
 3233WAT      O10217   4.940   0.564   2.642
 3233WAT     H110218   4.858   0.607   2.668
 3233WAT     H210219   4.980   0.625   2.581
 3234WAT      O10220   5.146   0.370   1.332
 3234WAT     H110221   5.173   0.460   1.319
 3234WAT     H210222   5.127   0.363   1.426
 3235WAT      O10223   4.945   1.039   1.995
 3235WAT     H110224   5.005   1.007   1.927
 3235WAT     H210225   4.971   0.992   2.074
 3236WAT      O10226   3.736   0.682   3.010
 3236WAT     H110227   3.732   0.645   3.098
 3236WAT     H210228   3.749   0.776   3.024
 3237WAT      O10229   4.106   0.838   2.570
 3237WAT     H110230   4.082   0.865   2.481
 3237WAT     H210231   4.200   0.855   2.575
 3238WAT      O10232   5.232   1.040   2.650
 3238WAT     H110233   5.183   1.080   2.578
 3238WAT     H210234   5.171   0.977   2.689
 3239WAT      O10235   3.720   0.977   2.722
 3239WAT     H110236   3.660   0.964   2.795
 3239WAT     H210237   3.719   0.893   2.675
 3240WAT      O10238   5.000   1.104   2.378
 3240WAT     H110239   4.954   1.179   2.340
 3240WAT     H210240   4.938   1.032   2.372
 3241WAT      O10241   3.683   0.714   2.617
 3241WAT     H110242   3.610   0.652   2.610
 3241WAT     H210243   3.689   0.753   2.530
 3242WAT      O10244   4.043   0.935   2.295
 3242WAT     H110245   4.095   0.874   2.243
 3242WAT     H210246   4.108   0.985   2.344
 3243WAT      O10247   4.317   1.024   2.378
 3243WAT     H110248   4.346   0.999   2.290
 3243WAT     H210249   4.369   0.969   2.437
 3244WAT      O10250   3.511   1.045   1.938
 3244WAT     H110251   3.494   0.982   2.007
 3244WAT     H210252   3.425   1.066   1.902
 3245WAT      O10253   3.672   0.915   1.682
 3245WAT     H110254   3.619   0.953   1.612
 3245WAT     H210255   3.664   0.977   1.754
 3246WAT      O10256   4.324   1.116   3.114
 3246WAT     H110257   4.417   1.093   3.119
 3246WAT     H210258   4.323   1.199   3.066
 3247WAT      O10259   5.148   1.071   1.814
 3247WAT     H110260   5.165   1.002   1.750
 3247WAT     H210261   5.078   1.123   1.775
 3248WAT      O10262   3.932   1.110   1.570
 3248WAT     H110263   4.005   1.081   1.515
 3248WAT     H210264   3.958   1.086   1.659
 3249WAT      O10265   3.848   0.721   1.570
 3249WAT     H110266   3.785   0.768   1.625
 3249WAT     H210267   3.859   0.637   1.613
 3250WAT      O10268   4.981   1.039   3.097
 3250WAT     H110269   5.060   0.990   3.076
 3250WAT     H210270   5.010   1.107   3.158
 3251WAT      O10271   4.407   0.304   0.373
 3251WAT     H110272   4.329   0.256   0.402
 3251WAT     H210273   4.472   0.236   0.356
 3252WAT      O10274   3.808   0.335   0.461
 3252WAT     H110275   3.725   0.310   0.501
 3252WAT     H210276   3.869   0.342   0.534
 3253WAT      O10277   4.809   0.745   0.251
 3253WAT     H110278   4.763   0.668   0.284
 3253WAT     H210279   4.890   0.747   0.302
 3254WAT      O10280   3.806   0.739   0.480
 3254WAT     H110281   3.837   0.650   0.463
 3254WAT     H210282   3.881   0.794   0.458
 3255WAT      O10283   4.351   0.572   0.374
 3255WAT     H110284   4.344   0.478   0.358
 3255WAT     H210285   4.427   0.581   0.431
 3256WAT      O10286   4.004   0.414   0.620
 3256WAT     H110287   3.971   0.477   0.685
 3256WAT     H210288   4.022   0.467   0.542
 3257WAT      O10289   3.925   0.611   0.802
 3257WAT     H110290   3.987   0.679   0.774
 3257WAT     H210291   3.839   0.652   0.793
 3258WAT      O10292   5.017   0.758   0.593
 3258WAT     H110293   4.949   0.825   0.593
 3258WAT     H210294   5.071   0.777   0.517
 3259WAT      O10295   4.771   0.942   0.465
 3259WAT     H110296   4.772   0.902   0.378
 3259WAT     H210297   4.716   1.019   0.454
 3260WAT      O10298   4.711   0.432   0.598
 3260WAT     H110299   4.752   0.411   0.514
 3260WAT     H210300   4.783   0.458   0.655
 3261WAT      O10301   5.105   0.272   0.607
 3261WAT     H110302   5.023   0.279   0.559
 3261WAT     H210303   5.165   0.331   0.560
 3262WAT      O10304   4.062   0.598   0.404
 3262WAT     H110305   4.032   0.538   0.336
 3262WAT     H210306   4.157   0.602   0.393
 3263WAT      O10307   4.871   0.955   0.770
 3263WAT     H110308   4.823   1.036   0.751
 3263WAT     H210309   4.802   0.890   0.785
 3264WAT      O10310   3.971   0.572   1.069
 3264WAT     H110311   3.881   0.594   1.094
 3264WAT     H210312   3.974   0.584   0.974
 3265WAT      O10313   3.854   0.259   0.927
 3265WAT     H110314   3.840   0.346   0.963
 3265WAT     H210315   3.766   0.225   0.912
 3266WAT      O10316   4.034   0.853   1.147
 3266WAT     H110317   4.031   0.894   1.061
 3266WAT     H210318   4.017   0.760   1.131
 3267WAT      O10319   5.229   0.932   1.277
 3267WAT     H110320   5.276   0.979   1.345
 3267WAT     H210321   5.291   0.925   1.205
 3268WAT      O10322   3.449   0.436   0.518
 3268WAT     H110323   3.457   0.450   0.424
 3268WAT     H210324   3.510   0.365   0.538
 3269WAT      O10325   5.169   0.651   0.993
 3269WAT     H110326   5.182   0.627   0.901
 3269WAT     H210327   5.173   0.568   1.040
 3270WAT      O10328   4.555   1.021   0.850
 3270WAT     H110329   4.607   1.012   0.930
 3270WAT     H210330   4.471   1.056   0.879
 3271WAT      O10331   3.455   0.540   0.772
 3271WAT     H110332   3.471   0.493   0.690
 3271WAT     H210333   3.501   0.489   0.839
 3272WAT      O10334   3.612   0.478   0.988
 3272WAT     H110335   3.574   0.414   1.048
 3272WAT     H210336   3.643   0.548   1.045
 3273WAT      O10337   4.935   0.387   0.407
 3273WAT     H110338   5.007   0.436   0.368
 3273WAT     H210339   4.914   0.319   0.343
 3274WAT      O10340   4.473   0.394   0.996
 3274WAT     H110341   4.466   0.302   0.970
 3274WAT     H210342   4.410   0.404   1.067
 3275WAT      O10343   3.863   0.454   0.192
 3275WAT     H110344   3.915   0.374   0.186
 3275WAT     H210345   3.818   0.448   0.276
 3276WAT      O10346   4.466   0.676   0.971
 3276WAT     H110347   4.467   0.583   0.949
 3276WAT     H210348   4.395   0.685   1.035
 3277WAT      O10349   5.087   0.340   0.905
 3277WAT     H110350   5.015   0.400   0.886
 3277WAT     H210351   5.140   0.339   0.826
 3278WAT      O10352   4.640   0.513   0.255
 3278WAT     H110353   4.675   0.453   0.189
 3278WAT     H210354   4.552   0.480   0.272
 3279WAT      O10355   4.409   0.840   0.680
 3279WAT     H110356   4.474   0.861   0.748
 3279WAT     H210357   4.446   0.764   0.635
 3280WAT      O10358   4.537   0.641   0.552
 3280WAT     H110359   4.601   0.571   0.563
 3280WAT     H210360   4.589   0.719   0.534
 3281WAT      O10361   4.714   0.721   0.872
 3281WAT     H110362   4.748   0.779   0.940
 3281WAT     H210363   4.622   0.708   0.895
 3282WAT      O10364   3.498   0.898   1.049
 3282WAT     H110365   3.509   0.804   1.035
 3282WAT     H210366   3.433   0.925   0.984
 3283WAT      O10367   4.297   0.726   1.189
 3283WAT     H110368   4.265   0.654   1.244
 3283WAT     H210369   4.229   0.793   1.197
 3284WAT      O10370   5.065   0.877   0.344
 3284WAT     H110371   5.077   0.960   0.392
 3284WAT     H210372   5.151   0.856   0.310
 3285WAT      O10373   3.812   1.087   0.312
 3285WAT     H110374   3.885   1.032   0.339
 3285WAT     H210375   3.850   1.173   0.298
 3286WAT      O10376   3.712   1.005   1.230
 3286WAT     H110377   3.792   1.037   1.272
 3286WAT     H210378   3.661   0.969   1.303
 3287WAT      O10379   4.596   0.616   1.225
 3287WAT     H110380   4.535   0.618   1.151
 3287WAT     H210381   4.566   0.543   1.279
 3288WAT      O10382   4.739   0.989   1.086
 3288WAT     H110383   4.834   0.980   1.081
 3288WAT     H210384   4.724   1.055   1.154
 3289WAT      O10385   3.484   0.254   1.125
 3289WAT     H110386   3.535   0.196   1.182
 3289WAT     H210387   3.410   0.282   1.179
 3290WAT      O10388   4.190   0.394   1.078
 3290WAT     H110389   4.113   0.451   1.070
 3290WAT     H210390   4.208   0.365   0.989
 3291WAT      O10391   4.904   0.568   1.134
 3291WAT     H110392   4.978   0.601   1.084
 3291WAT     H210393   4.828   0.584   1.079
 3292WAT      O10394   4.771   0.373   0.987
 3292WAT     H110395   4.813   0.388   1.072
 3292WAT     H210396   4.678   0.385   1.004
 3293WAT      O10397   4.248   0.368   0.784
 3293WAT     H110398   4.289   0.452   0.767
 3293WAT     H210399   4.156   0.382   0.761
 3294WAT      O10400   4.715   0.196   0.780
 3294WAT     H110401   4.662   0.249   0.720
 3294WAT     H210402   4.749   0.260   0.843
 3295WAT      O10403   4.033   0.998   0.896
 3295WAT     H110404   3.979   1.071   0.864
 3295WAT     H210405   4.058   0.951   0.817
 3296WAT      O10406   4.318   1.122   0.922
 3296WAT     H110407   4.311   1.212   0.953
 3296WAT     H210408   4.228   1.090   0.919
 3297WAT      O10409   3.459   0.855   0.252
 3297WAT     H110410   3.492   0.768   0.229
 3297WAT     H210411   3.501   0.875   0.335
 3298WAT      O10412   3.507   0.941   0.526
 3298WAT     H110413   3.464   0.959   0.609
 3298WAT     H210414   3.564   1.017   0.512
 3299WAT      O10415   5.071   0.892   0.955
 3299WAT     H110416   5.011   0.897   0.880
 3299WAT     H210417   5.084   0.798   0.968
 3300WAT      O10418   5.241   0.426   0.223
 3300WAT     H110419   5.278   0.347   0.183
 3300WAT     H210420   5.305   0.495   0.205
 3301WAT      O10421   4.940   0.564   0.765
 3301WAT     H110422   4.858   0.607   0.791
 3301WAT     H210423   4.980   0.625   0.703
 3302WAT      O10424   3.736   0.682   1.132
 3302WAT     H110425   3.732   0.645   1.220
 3302WAT     H210426   3.749   0.776   1.146
 3303WAT      O10427   4.106   0.838   0.692
 3303WAT     H110428   4.082   0.865   0.603
 3303WAT     H210429   4.200   0.855   0.698
 3304WAT      O10430   5.232   1.040   0.772
 3304WAT     H110431   5.183   1.080   0.701
 3304WAT     H210432   5.171   0.977   0.812
 3305WAT      O10433   3.720   0.977   0.844
 3305WAT     H110434   3.660   0.964   0.918
 3305WAT     H210435   3.719   0.893   0.797
 3306WAT      O10436   5.000   1.104   0.500
 3306WAT     H110437   4.954   1.179   0.463
 3306WAT     H210438   4.938   1.032   0.494
 3307WAT      O10439   3.683   0.714   0.739
 3307WAT     H110440   3.610   0.652   0.732
 3307WAT     H210441   3.689   0.753   0.652
 3308WAT      O10442   4.043   0.935   0.418
 3308WAT     H110443   4.095   0.874   0.365
 3308WAT     H210444   4.108   0.985   0.467
 3309WAT      O10445   4.317   1.024   0.500
 3309WAT     H110446   4.346   0.999   0.413
 3309WAT     H210447   4.369   0.969   0.559
 3310WAT      O10448   4.324   1.116   1.237
 3310WAT     H110449   4.417   1.093   1.241
 3310WAT     H210450   4.323   1.199   1.189
 3311WAT      O10451   4.981   1.039   1.219
 3311WAT     H110452   5.060   0.990   1.199
 3311WAT     H210453   5.010   1.107   1.280
 3312WAT      O10454   2.716   5.759   5.817
 3312WAT     H110455   2.708   5.667   5.790
 3312WAT     H210456   2.675   5.808   5.747
 3313WAT      O10457   1.772   5.464   5.472
 3313WAT     H110458   1.683   5.498   5.461
 3313WAT     H210459   1.800   5.444   5.382
 3314WAT      O10460   1.568   5.724   6.060
 3314WAT     H110461   1.625   5.647   6.060
 3314WAT     H210462   1.568   5.754   5.969
 3315WAT      O10463   2.576   5.485   6.029
 3315WAT     H110464   2.614   5.397   6.018
 3315WAT     H210465   2.567   5.518   5.940
 3316WAT      O10466   1.989   5.322   5.575
 3316WAT     H110467   2.000   5.412   5.606
 3316WAT     H210468   1.898   5.317   5.546
 3317WAT      O10469   2.955   5.234   5.722
 3317WAT     H110470   3.037   5.185   5.726
 3317WAT     H210471   2.958   5.293   5.797
 3318WAT      O10472   2.173   5.619   6.008
 3318WAT     H110473   2.224   5.669   6.072
 3318WAT     H210474   2.227   5.541   5.991
 3319WAT      O10475   2.978   5.428   5.999
 3319WAT     H110476   2.908   5.457   6.057
 3319WAT     H210477   3.014   5.509   5.963
 3320WAT      O10478   3.285   5.373   6.038
 3320WAT     H110479   3.190   5.376   6.052
 3320WAT     H210480   3.318   5.454   6.077
 3321WAT      O10481   2.338   5.003   5.868
 3321WAT     H110482   2.369   4.947   5.796
 3321WAT     H210483   2.245   5.016   5.850
 3322WAT      O10484   2.576   5.436   5.241
 3322WAT     H110485   2.482   5.452   5.250
 3322WAT     H210486   2.608   5.508   5.187
 3323WAT      O10487   2.138   5.862   5.820
 3323WAT     H110488   2.097   5.791   5.770
 3323WAT     H210489   2.146   5.827   5.909
 3324WAT      O10490   3.156   5.015   5.124
 3324WAT     H110491   3.125   5.024   5.214
 3324WAT     H210492   3.232   5.072   5.119
 3325WAT      O10493   1.808   5.751   5.570
 3325WAT     H110494   1.796   5.824   5.509
 3325WAT     H210495   1.777   5.674   5.522
 3326WAT      O10496   2.054   5.086   5.908
 3326WAT     H110497   2.010   5.164   5.875
 3326WAT     H210498   2.110   5.118   5.979
 3327WAT      O10499   2.366   5.048   5.396
 3327WAT     H110500   2.303   5.047   5.469
 3327WAT     H210501   2.357   4.961   5.357
 3328WAT      O10502   2.258   5.140   6.094
 3328WAT     H110503   2.288   5.231   6.086
 3328WAT     H210504   2.313   5.091   6.033
 3329WAT      O10505   2.033   5.598   5.681
 3329WAT     H110506   2.011   5.576   5.771
 3329WAT     H210507   1.955   5.641   5.646
 3330WAT      O10508   2.756   5.599   5.541
 3330WAT     H110509   2.697   5.671   5.522
 3330WAT     H210510   2.811   5.592   5.463
 3331WAT      O10511   2.617   5.462   5.744
 3331WAT     H110512   2.656   5.494   5.663
 3331WAT     H210513   2.653   5.374   5.755
 3332WAT      O10514   1.521   5.121   5.966
 3332WAT     H110515   1.492   5.178   6.037
 3332WAT     H210516   1.595   5.073   6.002
 3333WAT      O10517   1.539   5.515   5.087
 3333WAT     H110518   1.531   5.610   5.101
 3333WAT     H210519   1.504   5.501   4.999
 3334WAT      O10520   2.319   5.389   5.994
 3334WAT     H110521   2.320   5.345   5.909
 3334WAT     H210522   2.409   5.421   6.005
 3335WAT      O10523   1.904   5.377   5.890
 3335WAT     H110524   1.870   5.425   5.966
 3335WAT     H210525   1.828   5.332   5.854
 3336WAT      O10526   2.326   5.489   5.293
 3336WAT     H110527   2.338   5.485   5.388
 3336WAT     H210528   2.287   5.575   5.277
 3337WAT      O10529   2.227   5.720   5.233
 3337WAT     H110530   2.170   5.675   5.170
 3337WAT     H210531   2.298   5.756   5.179
 3338WAT      O10532   1.636   5.269   5.782
 3338WAT     H110533   1.607   5.233   5.865
 3338WAT     H210534   1.630   5.196   5.720
 3339WAT      O10535   2.603   5.159   5.454
 3339WAT     H110536   2.522   5.109   5.446
 3339WAT     H210537   2.584   5.243   5.412
 3340WAT      O10538   2.875   5.596   5.283
 3340WAT     H110539   2.964   5.627   5.266
 3340WAT     H210540   2.872   5.508   5.244
 3341WAT      O10541   3.102   5.727   5.230
 3341WAT     H110542   3.094   5.770   5.145
 3341WAT     H210543   3.174   5.773   5.273
 3342WAT      O10544   1.585   5.783   5.177
 3342WAT     H110545   1.672   5.811   5.206
 3342WAT     H210546   1.536   5.864   5.166
 3343WAT      O10547   1.892   4.956   5.637
 3343WAT     H110548   1.879   4.955   5.732
 3343WAT     H210549   1.809   4.990   5.602
 3344WAT      O10550   3.078   5.277   5.439
 3344WAT     H110551   3.015   5.287   5.367
 3344WAT     H210552   3.028   5.299   5.518
 3345WAT      O10553   2.274   5.505   5.580
 3345WAT     H110554   2.204   5.551   5.624
 3345WAT     H210555   2.303   5.439   5.644
 3346WAT      O10556   2.678   5.177   5.724
 3346WAT     H110557   2.665   5.179   5.629
 3346WAT     H210558   2.772   5.182   5.736
 3347WAT      O10559   2.095   5.335   5.318
 3347WAT     H110560   2.180   5.379   5.311
 3347WAT     H210561   2.058   5.367   5.401
 3348WAT      O10562   2.987   5.792   5.809
 3348WAT     H110563   2.893   5.794   5.827
 3348WAT     H210564   3.018   5.714   5.854
 3349WAT      O10565   1.854   5.704   5.234
 3349WAT     H110566   1.862   5.609   5.245
 3349WAT     H210567   1.943   5.737   5.244
 3350WAT      O10568   2.078   5.568   5.057
 3350WAT     H110569   2.057   5.481   5.093
 3350WAT     H210570   2.060   5.559   4.963
 3351WAT      O10571   2.825   5.049   5.310
 3351WAT     H110572   2.853   4.964   5.346
 3351WAT     H210573   2.748   5.072   5.361
 3352WAT      O10574   1.957   5.278   5.056
 3352WAT     H110575   1.988   5.278   4.965
 3352WAT     H210576   2.031   5.243   5.106
 3353WAT      O10577   2.279   5.172   5.155
 3353WAT     H110578   2.244   5.104   5.097
 3353WAT     H210579   2.299   5.126   5.236
 3354WAT      O10580   1.613   5.825   5.794
 3354WAT     H110581   1.548   5.798   5.730
 3354WAT     H210582   1.697   5.814   5.749
 3355WAT      O10583   2.908   5.304   5.216
 3355WAT     H110584   2.950   5.286   5.132
 3355WAT     H210585   2.878   5.219   5.247
 3356WAT      O10586   3.258   5.796   5.586
 3356WAT     H110587   3.220   5.719   5.543
 3356WAT     H210588   3.185   5.834   5.635
 3357WAT      O10589   1.535   5.546   5.388
 3357WAT     H110590   1.444   5.572   5.371
 3357WAT     H210591   1.583   5.573   5.310
 3358WAT      O10592   3.186   5.618   5.916
 3358WAT     H110593   3.238   5.569   5.853
 3358WAT     H210594   3.244   5.632   5.991
 3359WAT      O10595   1.789   5.452   5.179
 3359WAT     H110596   1.860   5.409   5.131
 3359WAT     H210597   1.717   5.458   5.116
 3360WAT      O10598   1.754   5.057   5.083
 3360WAT     H110599   1.826   5.111   5.115
 3360WAT     H210600   1.781   5.030   4.996
 3361WAT      O10601   3.135   5.544   5.510
 3361WAT     H110602   3.184   5.521   5.589
 3361WAT     H210603   3.115   5.460   5.468
 3362WAT      O10604   3.277   5.407   5.763
 3362WAT     H110605   3.266   5.392   5.857
 3362WAT     H210606   3.354   5.355   5.739
 3363WAT      O10607   3.366   5.191   5.088
 3363WAT     H110608   3.459   5.177   5.067
 3363WAT     H210609   3.364   5.198   5.183
 3364WAT      O10610   3.374   5.268   5.350
 3364WAT     H110611   3.294   5.261   5.403
 3364WAT     H210612   3.394   5.361   5.349
 3365WAT      O10613   3.017   5.101   5.995
 3365WAT     H110614   3.061   5.095   5.910
 3365WAT     H210615   2.990   5.192   6.002
 3366WAT      O10616   3.203   5.064   5.796
 3366WAT     H110617   3.197   4.969   5.781
 3366WAT     H210618   3.281   5.075   5.851
 3367WAT      O10619   1.696   5.061   5.443
 3367WAT     H110620   1.772   5.072   5.385
 3367WAT     H210621   1.650   5.145   5.438
 3368WAT      O10622   2.350   5.272   5.742
 3368WAT     H110623   2.269   5.235   5.708
 3368WAT     H210624   2.401   5.197   5.772
 3369WAT      O10625   2.800   4.939   5.866
 3369WAT     H110626   2.861   4.996   5.913
 3369WAT     H210627   2.726   4.995   5.843
 3370WAT      O10628   3.115   4.979   5.393
 3370WAT     H110629   3.134   5.069   5.420
 3370WAT     H210630   3.036   4.956   5.442
 3371WAT      O10631   1.933   5.114   5.297
 3371WAT     H110632   1.986   5.035   5.284
 3371WAT     H210633   1.997   5.181   5.320
 3372WAT      O10634   2.153   5.087   5.602
 3372WAT     H110635   2.090   5.017   5.619
 3372WAT     H210636   2.099   5.163   5.581
 3373WAT      O10637   2.716   5.759   3.940
 3373WAT     H110638   2.708   5.667   3.913
 3373WAT     H210639   2.675   5.808   3.869
 3374WAT      O10640   1.772   5.464   3.594
 3374WAT     H110641   1.683   5.498   3.584
 3374WAT     H210642   1.800   5.444   3.505
 3375WAT      O10643   1.568   5.724   4.183
 3375WAT     H110644   1.625   5.647   4.183
 3375WAT     H210645   1.568   5.754   4.092
 3376WAT      O10646   1.692   5.264   4.361
 3376WAT     H110647   1.674   5.175   4.389
 3376WAT     H210648   1.652   5.319   4.429
 3377WAT      O10649   2.576   5.485   4.151
 3377WAT     H110650   2.614   5.397   4.140
 3377WAT     H210651   2.567   5.518   4.062
 3378WAT      O10652   1.989   5.322   3.698
 3378WAT     H110653   2.000   5.412   3.728
 3378WAT     H210654   1.898   5.317   3.669
 3379WAT      O10655   2.955   5.234   3.845
 3379WAT     H110656   3.037   5.185   3.849
 3379WAT     H210657   2.958   5.293   3.920
 3380WAT      O10658   1.754   5.514   4.222
 3380WAT     H110659   1.822   5.540   4.284
 3380WAT     H210660   1.723   5.430   4.255
 3381WAT      O10661   2.173   5.619   4.131
 3381WAT     H110662   2.224   5.669   4.195
 3381WAT     H210663   2.227   5.541   4.113
 3382WAT      O10664   3.384   5.436   4.501
 3382WAT     H110665   3.313   5.475   4.449
 3382WAT     H210666   3.410   5.505   4.561
 3383WAT      O10667   2.002   5.083   4.557
 3383WAT     H110668   2.002   5.134   4.477
 3383WAT     H210669   1.919   5.035   4.555
 3384WAT      O10670   2.978   5.428   4.122
 3384WAT     H110671   2.908   5.457   4.180
 3384WAT     H210672   3.014   5.509   4.086
 3385WAT      O10673   1.970   5.254   4.358
 3385WAT     H110674   2.004   5.338   4.329
 3385WAT     H210675   1.876   5.269   4.370
 3386WAT      O10676   3.285   5.373   4.161
 3386WAT     H110677   3.190   5.376   4.174
 3386WAT     H210678   3.318   5.454   4.200
 3387WAT      O10679   2.338   5.003   3.991
 3387WAT     H110680   2.369   4.947   3.919
 3387WAT     H210681   2.245   5.016   3.972
 3388WAT      O10682   2.576   5.436   3.364
 3388WAT     H110683   2.482   5.452   3.372
 3388WAT     H210684   2.608   5.508   3.309
 3389WAT      O10685   2.924   5.583   4.456
 3389WAT     H110686   2.883   5.666   4.482
 3389WAT     H210687   2.851   5.525   4.437
 3390WAT      O10688   2.138   5.862   3.942
 3390WAT     H110689   2.097   5.791   3.893
 3390WAT     H210690   2.146   5.827   4.031
 3391WAT      O10691   2.009   5.539   4.320
 3391WAT     H110692   2.064   5.550   4.243
 3391WAT     H210693   2.060   5.577   4.392
 3392WAT      O10694   3.156   5.015   3.247
 3392WAT     H110695   3.125   5.024   3.337
 3392WAT     H210696   3.232   5.072   3.242
 3393WAT      O10697   1.808   5.751   3.692
 3393WAT     H110698   1.796   5.824   3.631
 3393WAT     H210699   1.777   5.674   3.645
 3394WAT      O10700   3.277   5.488   4.844
 3394WAT     H110701   3.215   5.539   4.792
 3394WAT     H210702   3.245   5.398   4.839
 3395WAT      O10703   2.054   5.086   4.031
 3395WAT     H110704   2.010   5.164   3.998
 3395WAT     H210705   2.110   5.118   4.101
 3396WAT      O10706   2.483   5.372   4.591
 3396WAT     H110707   2.437   5.393   4.672
 3396WAT     H210708   2.443   5.291   4.561
 3397WAT      O10709   2.983   5.494   4.704
 3397WAT     H110710   2.898   5.464   4.736
 3397WAT     H210711   2.967   5.519   4.613
 3398WAT      O10712   2.693   5.644   4.914
 3398WAT     H110713   2.725   5.561   4.880
 3398WAT     H210714   2.771   5.697   4.929
 3399WAT      O10715   2.366   5.048   3.519
 3399WAT     H110716   2.303   5.047   3.591
 3399WAT     H210717   2.357   4.961   3.479
 3400WAT      O10718   2.258   5.140   4.217
 3400WAT     H110719   2.288   5.231   4.209
 3400WAT     H210720   2.313   5.091   4.155
 3401WAT      O10721   2.033   5.598   3.804
 3401WAT     H110722   2.011   5.576   3.894
 3401WAT     H210723   1.955   5.641   3.769
 3402WAT      O10724   2.756   5.599   3.663
 3402WAT     H110725   2.697   5.671   3.645
 3402WAT     H210726   2.811   5.592   3.585
 3403WAT      O10727   2.277   5.688   4.870
 3403WAT     H110728   2.268   5.594   4.855
 3403WAT     H210729   2.362   5.710   4.831
 3404WAT      O10730   2.617   5.462   3.866
 3404WAT     H110731   2.656   5.494   3.785
 3404WAT     H210732   2.653   5.374   3.878
 3405WAT      O10733   1.791   5.329   4.685
 3405WAT     H110734   1.751   5.414   4.706
 3405WAT     H210735   1.722   5.265   4.705
 3406WAT      O10736   2.448   5.337   4.992
 3406WAT     H110737   2.379   5.318   5.056
 3406WAT     H210738   2.522   5.366   5.046
 3407WAT      O10739   1.521   5.121   4.089
 3407WAT     H110740   1.492   5.178   4.160
 3407WAT     H210741   1.595   5.073   4.125
 3408WAT      O10742   1.539   5.515   3.210
 3408WAT     H110743   1.531   5.610   3.224
 3408WAT     H210744   1.504   5.501   3.122
 3409WAT      O10745   2.676   5.721   4.276
 3409WAT     H110746   2.602   5.772   4.311
 3409WAT     H210747   2.636   5.640   4.246
 3410WAT      O10748   2.319   5.389   4.116
 3410WAT     H110749   2.320   5.345   4.032
 3410WAT     H210750   2.409   5.421   4.127
 3411WAT      O10751   1.904   5.377   4.012
 3411WAT     H110752   1.870   5.425   4.088
 3411WAT     H210753   1.828   5.332   3.976
 3412WAT      O10754   2.326   5.489   3.416
 3412WAT     H110755   2.338   5.485   3.510
 3412WAT     H210756   2.287   5.575   3.400
 3413WAT      O10757   2.722   5.267   4.217
 3413WAT     H110758   2.724   5.312   4.302
 3413WAT     H210759   2.697   5.177   4.239
 3414WAT      O10760   2.227   5.720   3.355
 3414WAT     H110761   2.170   5.675   3.293
 3414WAT     H210762   2.298   5.756   3.302
 3415WAT      O10763   3.065   5.008   4.801
 3415WAT     H110764   3.097   4.935   4.854
 3415WAT     H210765   3.068   4.976   4.711
 3416WAT      O10766   2.350   5.795   4.291
 3416WAT     H110767   2.386   5.747   4.366
 3416WAT     H210768   2.331   5.882   4.325
 3417WAT      O10769   1.636   5.269   3.904
 3417WAT     H110770   1.607   5.233   3.988
 3417WAT     H210771   1.630   5.196   3.843
 3418WAT      O10772   2.128   5.699   4.523
 3418WAT     H110773   2.098   5.787   4.545
 3418WAT     H210774   2.224   5.705   4.527
 3419WAT      O10775   2.603   5.159   3.576
 3419WAT     H110776   2.522   5.109   3.569
 3419WAT     H210777   2.584   5.243   3.535
 3420WAT      O10778   2.875   5.596   3.406
 3420WAT     H110779   2.964   5.627   3.388
 3420WAT     H210780   2.872   5.508   3.367
 3421WAT      O10781   1.734   5.783   4.638
 3421WAT     H110782   1.698   5.849   4.696
 3421WAT     H210783   1.705   5.700   4.675
 3422WAT      O10784   2.054   5.829   4.926
 3422WAT     H110785   2.024   5.843   4.836
 3422WAT     H210786   2.131   5.773   4.917
 3423WAT      O10787   3.102   5.727   3.353
 3423WAT     H110788   3.094   5.770   3.268
 3423WAT     H210789   3.174   5.773   3.396
 3424WAT      O10790   1.585   5.783   3.300
 3424WAT     H110791   1.672   5.811   3.328
 3424WAT     H210792   1.536   5.864   3.289
 3425WAT      O10793   1.892   4.956   3.759
 3425WAT     H110794   1.879   4.955   3.854
 3425WAT     H210795   1.809   4.990   3.724
 3426WAT      O10796   1.592   5.132   4.705
 3426WAT     H110797   1.520   5.152   4.766
 3426WAT     H210798   1.634   5.054   4.743
 3427WAT      O10799   2.741   5.381   4.480
 3427WAT     H110800   2.778   5.299   4.513
 3427WAT     H210801   2.655   5.387   4.522
 3428WAT      O10802   3.078   5.277   3.561
 3428WAT     H110803   3.015   5.287   3.490
 3428WAT     H210804   3.028   5.299   3.640
 3429WAT      O10805   2.274   5.505   3.703
 3429WAT     H110806   2.204   5.551   3.747
 3429WAT     H210807   2.303   5.439   3.766
 3430WAT      O10808   2.437   5.646   4.503
 3430WAT     H110809   2.487   5.694   4.569
 3430WAT     H210810   2.451   5.554   4.524
 3431WAT      O10811   2.678   5.177   3.847
 3431WAT     H110812   2.665   5.179   3.752
 3431WAT     H210813   2.772   5.182   3.859
 3432WAT      O10814   2.095   5.335   3.440
 3432WAT     H110815   2.180   5.379   3.434
 3432WAT     H210816   2.058   5.367   3.523
 3433WAT      O10817   3.158   5.268   4.587
 3433WAT     H110818   3.107   5.342   4.621
 3433WAT     H210819   3.239   5.307   4.555
 3434WAT      O10820   2.987   5.792   3.932
 3434WAT     H110821   2.893   5.794   3.949
 3434WAT     H210822   3.018   5.714   3.976
 3435WAT      O10823   1.854   5.704   3.356
 3435WAT     H110824   1.862   5.609   3.367
 3435WAT     H210825   1.943   5.737   3.367
 3436WAT      O10826   1.810   5.700   4.969
 3436WAT     H110827   1.814   5.671   5.060
 3436WAT     H210828   1.896   5.740   4.953
 3437WAT      O10829   2.004   5.558   4.766
 3437WAT     H110830   1.951   5.509   4.703
 3437WAT     H210831   2.071   5.601   4.712
 3438WAT      O10832   2.941   5.739   4.943
 3438WAT     H110833   2.999   5.663   4.934
 3438WAT     H210834   2.959   5.792   4.865
 3439WAT      O10835   2.053   5.255   4.774
 3439WAT     H110836   2.043   5.193   4.701
 3439WAT     H210837   1.995   5.328   4.751
 3440WAT      O10838   2.330   5.111   4.477
 3440WAT     H110839   2.285   5.113   4.393
 3440WAT     H210840   2.266   5.071   4.537
 3441WAT      O10841   2.604   5.773   4.678
 3441WAT     H110842   2.616   5.714   4.752
 3441WAT     H210843   2.690   5.777   4.636
 3442WAT      O10844   2.078   5.568   3.180
 3442WAT     H110845   2.057   5.481   3.216
 3442WAT     H210846   2.060   5.559   3.086
 3443WAT      O10847   2.280   5.428   4.803
 3443WAT     H110848   2.339   5.397   4.872
 3443WAT     H210849   2.199   5.380   4.819
 3444WAT      O10850   2.762   5.389   4.827
 3444WAT     H110851   2.694   5.323   4.820
 3444WAT     H210852   2.834   5.345   4.871
 3445WAT      O10853   2.825   5.049   3.433
 3445WAT     H110854   2.853   4.964   3.468
 3445WAT     H210855   2.748   5.072   3.484
 3446WAT      O10856   1.957   5.278   3.179
 3446WAT     H110857   1.988   5.278   3.088
 3446WAT     H210858   2.031   5.243   3.228
 3447WAT      O10859   2.279   5.172   3.277
 3447WAT     H110860   2.244   5.104   3.219
 3447WAT     H210861   2.299   5.126   3.359
 3448WAT      O10862   1.613   5.825   3.917
 3448WAT     H110863   1.548   5.798   3.852
 3448WAT     H210864   1.697   5.814   3.872
 3449WAT      O10865   2.908   5.304   3.339
 3449WAT     H110866   2.950   5.286   3.255
 3449WAT     H210867   2.878   5.219   3.370
 3450WAT      O10868   3.258   5.796   3.709
 3450WAT     H110869   3.220   5.719   3.665
 3450WAT     H210870   3.185   5.834   3.757
 3451WAT      O10871   1.717   5.863   4.371
 3451WAT     H110872   1.754   5.855   4.459
 3451WAT     H210873   1.660   5.787   4.361
 3452WAT      O10874   3.197   5.710   4.672
 3452WAT     H110875   3.174   5.687   4.582
 3452WAT     H210876   3.223   5.802   4.668
 3453WAT      O10877   1.672   5.555   4.761
 3453WAT     H110878   1.583   5.551   4.795
 3453WAT     H210879   1.726   5.574   4.838
 3454WAT      O10880   3.041   5.233   4.950
 3454WAT     H110881   3.129   5.234   4.988
 3454WAT     H210882   3.042   5.159   4.889
 3455WAT      O10883   1.535   5.546   3.511
 3455WAT     H110884   1.444   5.572   3.494
 3455WAT     H210885   1.583   5.573   3.433
 3456WAT      O10886   3.186   5.618   4.039
 3456WAT     H110887   3.238   5.569   3.976
 3456WAT     H210888   3.244   5.632   4.113
 3457WAT      O10889   3.203   5.627   4.391
 3457WAT     H110890   3.108   5.623   4.402
 3457WAT     H210891   3.222   5.718   4.367
 3458WAT      O10892   1.789   5.452   3.302
 3458WAT     H110893   1.860   5.409   3.253
 3458WAT     H210894   1.717   5.458   3.239
 3459WAT      O10895   1.754   5.057   3.206
 3459WAT     H110896   1.826   5.111   3.238
 3459WAT     H210897   1.781   5.030   3.118
 3460WAT      O10898   3.135   5.544   3.633
 3460WAT     H110899   3.184   5.521   3.711
 3460WAT     H210900   3.115   5.460   3.591
 3461WAT      O10901   1.723   4.982   4.196
 3461WAT     H110902   1.787   4.927   4.152
 3461WAT     H210903   1.765   5.007   4.278
 3462WAT      O10904   3.277   5.407   3.886
 3462WAT     H110905   3.266   5.392   3.980
 3462WAT     H210906   3.354   5.355   3.862
 3463WAT      O10907   3.112   5.001   4.532
 3463WAT     H110908   3.176   5.063   4.568
 3463WAT     H210909   3.127   5.005   4.437
 3464WAT      O10910   3.366   5.191   3.210
 3464WAT     H110911   3.459   5.177   3.189
 3464WAT     H210912   3.364   5.198   3.305
 3465WAT      O10913   3.374   5.268   3.473
 3465WAT     H110914   3.294   5.261   3.526
 3465WAT     H210915   3.394   5.361   3.472
 3466WAT      O10916   1.698   4.998   4.470
 3466WAT     H110917   1.663   5.043   4.547
 3466WAT     H210918   1.665   4.908   4.479
 3467WAT      O10919   2.449   5.117   4.823
 3467WAT     H110920   2.443   5.176   4.898
 3467WAT     H210921   2.543   5.106   4.808
 3468WAT      O10922   2.713   5.082   4.787
 3468WAT     H110923   2.774   5.114   4.720
 3468WAT     H210924   2.767   5.034   4.849
 3469WAT      O10925   1.765   4.950   4.798
 3469WAT     H110926   1.820   4.932   4.722
 3469WAT     H210927   1.772   4.871   4.852
 3470WAT      O10928   2.787   4.939   4.419
 3470WAT     H110929   2.700   4.972   4.399
 3470WAT     H210930   2.776   4.891   4.502
 3471WAT      O10931   2.878   5.159   4.558
 3471WAT     H110932   2.845   5.078   4.520
 3471WAT     H210933   2.972   5.155   4.545
 3472WAT      O10934   2.562   5.030   4.313
 3472WAT     H110935   2.483   5.078   4.341
 3472WAT     H210936   2.532   4.940   4.302
 3473WAT      O10937   3.017   5.101   4.118
 3473WAT     H110938   3.061   5.095   4.033
 3473WAT     H210939   2.990   5.192   4.125
 3474WAT      O10940   3.203   5.064   3.919
 3474WAT     H110941   3.197   4.969   3.904
 3474WAT     H210942   3.281   5.075   3.973
 3475WAT      O10943   1.696   5.061   3.565
 3475WAT     H110944   1.772   5.072   3.508
 3475WAT     H210945   1.650   5.145   3.561
 3476WAT      O10946   2.350   5.272   3.864
 3476WAT     H110947   2.269   5.235   3.830
 3476WAT     H210948   2.401   5.197   3.895
 3477WAT      O10949   2.800   4.939   3.988
 3477WAT     H110950   2.861   4.996   4.036
 3477WAT     H210951   2.726   4.995   3.966
 3478WAT      O10952   3.115   4.979   3.516
 3478WAT     H110953   3.134   5.069   3.542
 3478WAT     H210954   3.036   4.956   3.565
 3479WAT      O10955   1.933   5.114   3.419
 3479WAT     H110956   1.986   5.035   3.406
 3479WAT     H210957   1.997   5.181   3.443
 3480WAT      O10958   2.153   5.087   3.725
 3480WAT     H110959   2.090   5.017   3.741
 3480WAT     H210960   2.099   5.163   3.703
 3481WAT      O10961   2.165   5.015   4.968
 3481WAT     H110962   2.137   5.065   4.892
 3481WAT     H210963   2.203   4.935   4.932
 3482WAT      O10964   2.825   4.957   5.026
 3482WAT     H110965   2.814   4.989   5.116
 3482WAT     H210966   2.907   4.997   4.996
 3483WAT      O10967   2.716   5.759   2.062
 3483WAT     H110968   2.708   5.667   2.035
 3483WAT     H210969   2.675   5.808   1.992
 3484WAT      O10970   1.772   5.464   1.717
 3484WAT     H110971   1.683   5.498   1.707
 3484WAT     H210972   1.800   5.444   1.628
 3485WAT      O10973   1.568   5.724   2.305
 3485WAT     H110974   1.625   5.647   2.305
 3485WAT     H210975   1.568   5.754   2.214
 3486WAT      O10976   1.692   5.264   2.484
 3486WAT     H110977   1.674   5.175   2.512
 3486WAT     H210978   1.652   5.319   2.551
 3487WAT      O10979   2.576   5.485   2.274
 3487WAT     H110980   2.614   5.397   2.263
 3487WAT     H210981   2.567   5.518   2.185
 3488WAT      O10982   1.989   5.322   1.820
 3488WAT     H110983   2.000   5.412   1.851
 3488WAT     H210984   1.898   5.317   1.791
 3489WAT      O10985   2.955   5.234   1.967
 3489WAT     H110986   3.037   5.185   1.971
 3489WAT     H210987   2.958   5.293   2.043
 3490WAT      O10988   1.754   5.514   2.345
 3490WAT     H110989   1.822   5.540   2.407
 3490WAT     H210990   1.723   5.430   2.378
 3491WAT      O10991   2.173   5.619   2.253
 3491WAT     H110992   2.224   5.669   2.317
 3491WAT     H210993   2.227   5.541   2.236
 3492WAT      O10994   3.384   5.436   2.624
 3492WAT     H110995   3.313   5.475   2.572
 3492WAT     H210996   3.410   5.505   2.684
 3493WAT      O10997   2.002   5.083   2.680
 3493WAT     H110998   2.002   5.134   2.599
 3493WAT     H210999   1.919   5.035   2.678
 3494WAT      O11000   2.978   5.428   2.245
 3494WAT     H111001   2.908   5.457   2.303
 3494WAT     H211002   3.014   5.509   2.208
 3495WAT      O11003   1.970   5.254   2.481
 3495WAT     H111004   2.004   5.338   2.451
 3495WAT     H211005   1.876   5.269   2.492
 3496WAT      O11006   3.285   5.373   2.284
 3496WAT     H111007   3.190   5.376   2.297
 3496WAT     H211008   3.318   5.454   2.322
 3497WAT      O11009   2.338   5.003   2.113
 3497WAT     H111010   2.369   4.947   2.042
 3497WAT     H211011   2.245   5.016   2.095
 3498WAT      O11012   2.576   5.436   1.486
 3498WAT     H111013   2.482   5.452   1.495
 3498WAT     H211014   2.608   5.508   1.432
 3499WAT      O11015   2.924   5.583   2.579
 3499WAT     H111016   2.883   5.666   2.604
 3499WAT     H211017   2.851   5.525   2.560
 3500WAT      O11018   2.138   5.862   2.065
 3500WAT     H111019   2.097   5.791   2.015
 3500WAT     H211020   2.146   5.827   2.154
 3501WAT      O11021   2.009   5.539   2.443
 3501WAT     H111022   2.064   5.550   2.365
 3501WAT     H211023   2.060   5.577   2.514
 3502WAT      O11024   3.156   5.015   1.369
 3502WAT     H111025   3.125   5.024   1.459
 3502WAT     H211026   3.232   5.072   1.364
 3503WAT      O11027   1.808   5.751   1.815
 3503WAT     H111028   1.796   5.824   1.754
 3503WAT     H211029   1.777   5.674   1.767
 3504WAT      O11030   3.277   5.488   2.967
 3504WAT     H111031   3.215   5.539   2.914
 3504WAT     H211032   3.245   5.398   2.961
 3505WAT      O11033   2.054   5.086   2.153
 3505WAT     H111034   2.010   5.164   2.120
 3505WAT     H211035   2.110   5.118   2.224
 3506WAT      O11036   2.483   5.372   2.714
 3506WAT     H111037   2.437   5.393   2.795
 3506WAT     H211038   2.443   5.291   2.683
 3507WAT      O11039   2.983   5.494   2.827
 3507WAT     H111040   2.898   5.464   2.859
 3507WAT     H211041   2.967   5.519   2.735
 3508WAT      O11042   2.693   5.644   3.037
 3508WAT     H111043   2.725   5.561   3.003
 3508WAT     H211044   2.771   5.697   3.051
 3509WAT      O11045   2.366   5.048   1.641
 3509WAT     H111046   2.303   5.047   1.714
 3509WAT     H211047   2.357   4.961   1.602
 3510WAT      O11048   2.258   5.140   2.339
 3510WAT     H111049   2.288   5.231   2.331
 3510WAT     H211050   2.313   5.091   2.278
 3511WAT      O11051   2.033   5.598   1.926
 3511WAT     H111052   2.011   5.576   2.017
 3511WAT     H211053   1.955   5.641   1.892
 3512WAT      O11054   2.756   5.599   1.786
 3512WAT     H111055   2.697   5.671   1.768
 3512WAT     H211056   2.811   5.592   1.708
 3513WAT      O11057   2.277   5.688   2.993
 3513WAT     H111058   2.268   5.594   2.978
 3513WAT     H211059   2.362   5.710   2.953
 3514WAT      O11060   2.617   5.462   1.989
 3514WAT     H111061   2.656   5.494   1.908
 3514WAT     H211062   2.653   5.374   2.000
 3515WAT      O11063   1.791   5.329   2.808
 3515WAT     H111064   1.751   5.414   2.829
 3515WAT     H211065   1.722   5.265   2.827
 3516WAT      O11066   2.448   5.337   3.115
 3516WAT     H111067   2.379   5.318   3.178
 3516WAT     H211068   2.522   5.366   3.168
 3517WAT      O11069   1.521   5.121   2.211
 3517WAT     H111070   1.492   5.178   2.283
 3517WAT     H211071   1.595   5.073   2.248
 3518WAT      O11072   1.539   5.515   1.332
 3518WAT     H111073   1.531   5.610   1.346
 3518WAT     H211074   1.504   5.501   1.244
 3519WAT      O11075   2.676   5.721   2.399
 3519WAT     H111076   2.602   5.772   2.433
 3519WAT     H211077   2.636   5.640   2.368
 3520WAT      O11078   2.319   5.389   2.239
 3520WAT     H111079   2.320   5.345   2.154
 3520WAT     H211080   2.409   5.421   2.250
 3521WAT      O11081   1.904   5.377   2.135
 3521WAT     H111082   1.870   5.425   2.211
 3521WAT     H211083   1.828   5.332   2.099
 3522WAT      O11084   2.326   5.489   1.538
 3522WAT     H111085   2.338   5.485   1.633
 3522WAT     H211086   2.287   5.575   1.523
 3523WAT      O11087   2.722   5.267   2.340
 3523WAT     H111088   2.724   5.312   2.424
 3523WAT     H211089   2.697   5.177   2.361
 3524WAT      O11090   2.227   5.720   1.478
 3524WAT     H111091   2.170   5.675   1.415
 3524WAT     H211092   2.298   5.756   1.425
 3525WAT      O11093   3.065   5.008   2.924
 3525WAT     H111094   3.097   4.935   2.976
 3525WAT     H211095   3.068   4.976   2.833
 3526WAT      O11096   2.350   5.795   2.414
 3526WAT     H111097   2.386   5.747   2.488
 3526WAT     H211098   2.331   5.882   2.448
 3527WAT      O11099   1.636   5.269   2.027
 3527WAT     H111100   1.607   5.233   2.110
 3527WAT     H211101   1.630   5.196   1.965
 3528WAT      O11102   2.128   5.699   2.646
 3528WAT     H111103   2.098   5.787   2.668
 3528WAT     H211104   2.224   5.705   2.649
 3529WAT      O11105   2.603   5.159   1.699
 3529WAT     H111106   2.522   5.109   1.691
 3529WAT     H211107   2.584   5.243   1.657
 3530WAT      O11108   2.875   5.596   1.528
 3530WAT     H111109   2.964   5.627   1.511
 3530WAT     H211110   2.872   5.508   1.489
 3531WAT      O11111   1.734   5.783   2.760
 3531WAT     H111112   1.698   5.849   2.819
 3531WAT     H211113   1.705   5.700   2.797
 3532WAT      O11114   2.054   5.829   3.049
 3532WAT     H111115   2.024   5.843   2.959
 3532WAT     H211116   2.131   5.773   3.039
 3533WAT      O11117   3.102   5.727   1.475
 3533WAT     H111118   3.094   5.770   1.390
 3533WAT     H211119   3.174   5.773   1.518
 3534WAT      O11120   1.585   5.783   1.423
 3534WAT     H111121   1.672   5.811   1.451
 3534WAT     H211122   1.536   5.864   1.411
 3535WAT      O11123   1.892   4.956   1.882
 3535WAT     H111124   1.879   4.955   1.977
 3535WAT     H211125   1.809   4.990   1.847
 3536WAT      O11126   1.592   5.132   2.828
 3536WAT     H111127   1.520   5.152   2.888
 3536WAT     H211128   1.634   5.054   2.865
 3537WAT      O11129   2.741   5.381   2.603
 3537WAT     H111130   2.778   5.299   2.636
 3537WAT     H211131   2.655   5.387   2.645
 3538WAT      O11132   3.078   5.277   1.684
 3538WAT     H111133   3.015   5.287   1.612
 3538WAT     H211134   3.028   5.299   1.763
 3539WAT      O11135   2.274   5.505   1.825
 3539WAT     H111136   2.204   5.551   1.870
 3539WAT     H211137   2.303   5.439   1.889
 3540WAT      O11138   2.437   5.646   2.625
 3540WAT     H111139   2.487   5.694   2.692
 3540WAT     H211140   2.451   5.554   2.646
 3541WAT      O11141   2.678   5.177   1.969
 3541WAT     H111142   2.665   5.179   1.874
 3541WAT     H211143   2.772   5.182   1.981
 3542WAT      O11144   2.095   5.335   1.563
 3542WAT     H111145   2.180   5.379   1.556
 3542WAT     H211146   2.058   5.367   1.646
 3543WAT      O11147   3.158   5.268   2.710
 3543WAT     H111148   3.107   5.342   2.744
 3543WAT     H211149   3.239   5.307   2.678
 3544WAT      O11150   2.987   5.792   2.054
 3544WAT     H111151   2.893   5.794   2.072
 3544WAT     H211152   3.018   5.714   2.099
 3545WAT      O11153   1.854   5.704   1.479
 3545WAT     H111154   1.862   5.609   1.490
 3545WAT     H211155   1.943   5.737   1.489
 3546WAT      O11156   1.810   5.700   3.092
 3546WAT     H111157   1.814   5.671   3.183
 3546WAT     H211158   1.896   5.740   3.076
 3547WAT      O11159   2.004   5.558   2.888
 3547WAT     H111160   1.951   5.509   2.826
 3547WAT     H211161   2.071   5.601   2.835
 3548WAT      O11162   2.941   5.739   3.065
 3548WAT     H111163   2.999   5.663   3.056
 3548WAT     H211164   2.959   5.792   2.988
 3549WAT      O11165   2.053   5.255   2.896
 3549WAT     H111166   2.043   5.193   2.824
 3549WAT     H211167   1.995   5.328   2.874
 3550WAT      O11168   2.330   5.111   2.600
 3550WAT     H111169   2.285   5.113   2.515
 3550WAT     H211170   2.266   5.071   2.659
 3551WAT      O11171   2.604   5.773   2.800
 3551WAT     H111172   2.616   5.714   2.874
 3551WAT     H211173   2.690   5.777   2.758
 3552WAT      O11174   2.078   5.568   1.302
 3552WAT     H111175   2.057   5.481   1.338
 3552WAT     H211176   2.060   5.559   1.209
 3553WAT      O11177   2.280   5.428   2.926
 3553WAT     H111178   2.339   5.397   2.995
 3553WAT     H211179   2.199   5.380   2.942
 3554WAT      O11180   2.762   5.389   2.949
 3554WAT     H111181   2.694   5.323   2.943
 3554WAT     H211182   2.834   5.345   2.994
 3555WAT      O11183   2.825   5.049   1.555
 3555WAT     H111184   2.853   4.964   1.591
 3555WAT     H211185   2.748   5.072   1.607
 3556WAT      O11186   1.957   5.278   1.301
 3556WAT     H111187   1.988   5.278   1.210
 3556WAT     H211188   2.031   5.243   1.351
 3557WAT      O11189   2.279   5.172   1.400
 3557WAT     H111190   2.244   5.104   1.342
 3557WAT     H211191   2.299   5.126   1.481
 3558WAT      O11192   1.613   5.825   2.039
 3558WAT     H111193   1.548   5.798   1.975
 3558WAT     H211194   1.697   5.814   1.994
 3559WAT      O11195   2.908   5.304   1.461
 3559WAT     H111196   2.950   5.286   1.377
 3559WAT     H211197   2.878   5.219   1.493
 3560WAT      O11198   3.258   5.796   1.831
 3560WAT     H111199   3.220   5.719   1.788
 3560WAT     H211200   3.185   5.834   1.880
 3561WAT      O11201   1.717   5.863   2.493
 3561WAT     H111202   1.754   5.855   2.581
 3561WAT     H211203   1.660   5.787   2.483
 3562WAT      O11204   3.197   5.710   2.795
 3562WAT     H111205   3.174   5.687   2.705
 3562WAT     H211206   3.223   5.802   2.790
 3563WAT      O11207   1.672   5.555   2.884
 3563WAT     H111208   1.583   5.551   2.918
 3563WAT     H211209   1.726   5.574   2.960
 3564WAT      O11210   3.041   5.233   3.072
 3564WAT     H111211   3.129   5.234   3.111
 3564WAT     H211212   3.042   5.159   3.011
 3565WAT      O11213   1.535   5.546   1.634
 3565WAT     H111214   1.444   5.572   1.616
 3565WAT     H211215   1.583   5.573   1.556
 3566WAT      O11216   3.186   5.618   2.161
 3566WAT     H111217   3.238   5.569   2.098
 3566WAT     H211218   3.244   5.632   2.236
 3567WAT      O11219   3.203   5.627   2.514
 3567WAT     H111220   3.108   5.623   2.525
 3567WAT     H211221   3.222   5.718   2.490
 3568WAT      O11222   1.789   5.452   1.424
 3568WAT     H111223   1.860   5.409   1.376
 3568WAT     H211224   1.717   5.458   1.361
 3569WAT      O11225   1.754   5.057   1.329
 3569WAT     H111226   1.826   5.111   1.360
 3569WAT     H211227   1.781   5.030   1.241
 3570WAT      O11228   3.135   5.544   1.755
 3570WAT     H111229   3.184   5.521   1.834
 3570WAT     H211230   3.115   5.460   1.714
 3571WAT      O11231   1.723   4.982   2.319
 3571WAT     H111232   1.787   4.927   2.275
 3571WAT     H211233   1.765   5.007   2.401
 3572WAT      O11234   3.277   5.407   2.009
 3572WAT     H111235   3.266   5.392   2.102
 3572WAT     H211236   3.354   5.355   1.984
 3573WAT      O11237   3.112   5.001   2.654
 3573WAT     H111238   3.176   5.063   2.691
 3573WAT     H211239   3.127   5.005   2.560
 3574WAT      O11240   3.366   5.191   1.333
 3574WAT     H111241   3.459   5.177   1.312
 3574WAT     H211242   3.364   5.198   1.428
 3575WAT      O11243   3.374   5.268   1.595
 3575WAT     H111244   3.294   5.261   1.648
 3575WAT     H211245   3.394   5.361   1.594
 3576WAT      O11246   1.698   4.998   2.593
 3576WAT     H111247   1.663   5.043   2.670
 3576WAT     H211248   1.665   4.908   2.601
 3577WAT      O11249   2.449   5.117   2.945
 3577WAT     H111250   2.443   5.176   3.020
 3577WAT     H211251   2.543   5.106   2.931
 3578WAT      O11252   2.713   5.082   2.909
 3578WAT     H111253   2.774   5.114   2.843
 3578WAT     H211254   2.767   5.034   2.971
 3579WAT      O11255   1.765   4.950   2.921
 3579WAT     H111256   1.820   4.932   2.844
 3579WAT     H211257   1.772   4.871   2.974
 3580WAT      O11258   2.787   4.939   2.542
 3580WAT     H111259   2.700   4.972   2.522
 3580WAT     H211260   2.776   4.891   2.624
 3581WAT      O11261   2.878   5.159   2.680
 3581WAT     H111262   2.845   5.078   2.642
 3581WAT     H211263   2.972   5.155   2.668
 3582WAT      O11264   2.562   5.030   2.436
 3582WAT     H111265   2.483   5.078   2.464
 3582WAT     H211266   2.532   4.940   2.425
 3583WAT      O11267   3.017   5.101   2.240
 3583WAT     H111268   3.061   5.095   2.155
 3583WAT     H211269   2.990   5.192   2.247
 3584WAT      O11270   3.203   5.064   2.041
 3584WAT     H111271   3.197   4.969   2.027
 3584WAT     H211272   3.281   5.075   2.096
 3585WAT      O11273   1.696   5.061   1.688
 3585WAT     H111274   1.772   5.072   1.631
 3585WAT     H211275   1.650   5.145   1.683
 3586WAT      O11276   2.350   5.272   1.987
 3586WAT     H111277   2.269   5.235   1.953
 3586WAT     H211278   2.401   5.197   2.017
 3587WAT      O11279   2.800   4.939   2.111
 3587WAT     H111280   2.861   4.996   2.158
 3587WAT     H211281   2.726   4.995   2.088
 3588WAT      O11282   3.115   4.979   1.638
 3588WAT     H111283   3.134   5.069   1.665
 3588WAT     H211284   3.036   4.956   1.687
 3589WAT      O11285   1.933   5.114   1.542
 3589WAT     H111286   1.986   5.035   1.529
 3589WAT     H211287   1.997   5.181   1.565
 3590WAT      O11288   2.153   5.087   1.847
 3590WAT     H111289   2.090   5.017   1.864
 3590WAT     H211290   2.099   5.163   1.826
 3591WAT      O11291   2.165   5.015   3.091
 3591WAT     H111292   2.137   5.065   3.014
 3591WAT     H211293   2.203   4.935   3.054
 3592WAT      O11294   2.825   4.957   3.149
 3592WAT     H111295   2.814   4.989   3.238
 3592WAT     H211296   2.907   4.997   3.119
 3593WAT      O11297   1.568   5.724   0.428
 3593WAT     H111298   1.625   5.647   0.428
 3593WAT     H211299   1.568   5.754   0.337
 3594WAT      O11300   1.692   5.264   0.606
 3594WAT     H111301   1.674   5.175   0.634
 3594WAT     H211302   1.652   5.319   0.674
 3595WAT      O11303   2.576   5.485   0.397
 3595WAT     H111304   2.614   5.397   0.385
 3595WAT     H211305   2.567   5.518   0.307
 3596WAT      O11306   1.754   5.514   0.467
 3596WAT     H111307   1.822   5.540   0.529
 3596WAT     H211308   1.723   5.430   0.501
 3597WAT      O11309   2.173   5.619   0.376
 3597WAT     H111310   2.224   5.669   0.440
 3597WAT     H211311   2.227   5.541   0.358
 3598WAT      O11312   3.384   5.436   0.746
 3598WAT     H111313   3.313   5.475   0.694
 3598WAT     H211314   3.410   5.505   0.806
 3599WAT      O11315   2.002   5.083   0.803
 3599WAT     H111316   2.002   5.134   0.722
 3599WAT     H211317   1.919   5.035   0.800
 3600WAT      O11318   2.978   5.428   0.367
 3600WAT     H111319   2.908   5.457   0.425
 3600WAT     H211320   3.014   5.509   0.331
 3601WAT      O11321   1.970   5.254   0.603
 3601WAT     H111322   2.004   5.338   0.574
 3601WAT     H211323   1.876   5.269   0.615
 3602WAT      O11324   3.285   5.373   0.406
 3602WAT     H111325   3.190   5.376   0.419
 3602WAT     H211326   3.318   5.454   0.445
 3603WAT      O11327   2.924   5.583   0.701
 3603WAT     H111328   2.883   5.666   0.727
 3603WAT     H211329   2.851   5.525   0.682
 3604WAT      O11330   2.009   5.539   0.566
 3604WAT     H111331   2.064   5.550   0.488
 3604WAT     H211332   2.060   5.577   0.637
 3605WAT      O11333   3.277   5.488   1.090
 3605WAT     H111334   3.215   5.539   1.037
 3605WAT     H211335   3.245   5.398   1.084
 3606WAT      O11336   2.054   5.086   0.276
 3606WAT     H111337   2.010   5.164   0.243
 3606WAT     H211338   2.110   5.118   0.347
 3607WAT      O11339   2.483   5.372   0.836
 3607WAT     H111340   2.437   5.393   0.917
 3607WAT     H211341   2.443   5.291   0.806
 3608WAT      O11342   2.983   5.494   0.949
 3608WAT     H111343   2.898   5.464   0.981
 3608WAT     H211344   2.967   5.519   0.858
 3609WAT      O11345   2.693   5.644   1.159
 3609WAT     H111346   2.725   5.561   1.125
 3609WAT     H211347   2.771   5.697   1.174
 3610WAT      O11348   2.258   5.140   0.462
 3610WAT     H111349   2.288   5.231   0.454
 3610WAT     H211350   2.313   5.091   0.400
 3611WAT      O11351   2.277   5.688   1.115
 3611WAT     H111352   2.268   5.594   1.100
 3611WAT     H211353   2.362   5.710   1.076
 3612WAT      O11354   1.791   5.329   0.931
 3612WAT     H111355   1.751   5.414   0.951
 3612WAT     H211356   1.722   5.265   0.950
 3613WAT      O11357   2.448   5.337   1.238
 3613WAT     H111358   2.379   5.318   1.301
 3613WAT     H211359   2.522   5.366   1.291
 3614WAT      O11360   1.521   5.121   0.334
 3614WAT     H111361   1.492   5.178   0.405
 3614WAT     H211362   1.595   5.073   0.370
 3615WAT      O11363   2.676   5.721   0.521
 3615WAT     H111364   2.602   5.772   0.556
 3615WAT     H211365   2.636   5.640   0.491
 3616WAT      O11366   2.319   5.389   0.362
 3616WAT     H111367   2.320   5.345   0.277
 3616WAT     H211368   2.409   5.421   0.372
 3617WAT      O11369   1.904   5.377   0.258
 3617WAT     H111370   1.870   5.425   0.333
 3617WAT     H211371   1.828   5.332   0.222
 3618WAT      O11372   2.722   5.267   0.462
 3618WAT     H111373   2.724   5.312   0.547
 3618WAT     H211374   2.697   5.177   0.484
 3619WAT      O11375   3.065   5.008   1.046
 3619WAT     H111376   3.097   4.935   1.099
 3619WAT     H211377   3.068   4.976   0.956
 3620WAT      O11378   2.350   5.795   0.536
 3620WAT     H111379   2.386   5.747   0.611
 3620WAT     H211380   2.331   5.882   0.570
 3621WAT      O11381   2.128   5.699   0.768
 3621WAT     H111382   2.098   5.787   0.791
 3621WAT     H211383   2.224   5.705   0.772
 3622WAT      O11384   1.734   5.783   0.883
 3622WAT     H111385   1.698   5.849   0.942
 3622WAT     H211386   1.705   5.700   0.920
 3623WAT      O11387   2.054   5.829   1.171
 3623WAT     H111388   2.024   5.843   1.081
 3623WAT     H211389   2.131   5.773   1.162
 3624WAT      O11390   1.592   5.132   0.951
 3624WAT     H111391   1.520   5.152   1.011
 3624WAT     H211392   1.634   5.054   0.988
 3625WAT      O11393   2.741   5.381   0.726
 3625WAT     H111394   2.778   5.299   0.758
 3625WAT     H211395   2.655   5.387   0.767
 3626WAT      O11396   2.437   5.646   0.748
 3626WAT     H111397   2.487   5.694   0.814
 3626WAT     H211398   2.451   5.554   0.769
 3627WAT      O11399   3.158   5.268   0.832
 3627WAT     H111400   3.107   5.342   0.866
 3627WAT     H211401   3.239   5.307   0.801
 3628WAT      O11402   2.987   5.792   0.177
 3628WAT     H111403   2.893   5.794   0.194
 3628WAT     H211404   3.018   5.714   0.221
 3629WAT      O11405   1.810   5.700   1.214
 3629WAT     H111406   1.814   5.671   1.305
 3629WAT     H211407   1.896   5.740   1.198
 3630WAT      O11408   2.004   5.558   1.011
 3630WAT     H111409   1.951   5.509   0.948
 3630WAT     H211410   2.071   5.601   0.958
 3631WAT      O11411   2.941   5.739   1.188
 3631WAT     H111412   2.999   5.663   1.179
 3631WAT     H211413   2.959   5.792   1.110
 3632WAT      O11414   2.053   5.255   1.019
 3632WAT     H111415   2.043   5.193   0.946
 3632WAT     H211416   1.995   5.328   0.996
 3633WAT      O11417   2.330   5.111   0.722
 3633WAT     H111418   2.285   5.113   0.638
 3633WAT     H211419   2.266   5.071   0.782
 3634WAT      O11420   2.604   5.773   0.923
 3634WAT     H111421   2.616   5.714   0.997
 3634WAT     H211422   2.690   5.777   0.881
 3635WAT      O11423   2.280   5.428   1.049
 3635WAT     H111424   2.339   5.397   1.117
 3635WAT     H211425   2.199   5.380   1.064
 3636WAT      O11426   2.762   5.389   1.072
 3636WAT     H111427   2.694   5.323   1.065
 3636WAT     H211428   2.834   5.345   1.116
 3637WAT      O11429   1.717   5.863   0.616
 3637WAT     H111430   1.754   5.855   0.704
 3637WAT     H211431   1.660   5.787   0.606
 3638WAT      O11432   3.197   5.710   0.917
 3638WAT     H111433   3.174   5.687   0.827
 3638WAT     H211434   3.223   5.802   0.913
 3639WAT      O11435   1.672   5.555   1.006
 3639WAT     H111436   1.583   5.551   1.040
 3639WAT     H211437   1.726   5.574   1.083
 3640WAT      O11438   3.041   5.233   1.195
 3640WAT     H111439   3.129   5.234   1.233
 3640WAT     H211440   3.042   5.159   1.134
 3641WAT      O11441   3.186   5.618   0.284
 3641WAT     H111442   3.238   5.569   0.221
 3641WAT     H211443   3.244   5.632   0.358
 3642WAT      O11444   3.203   5.627   0.636
 3642WAT     H111445   3.108   5.623   0.648
 3642WAT     H211446   3.222   5.718   0.613
 3643WAT      O11447   1.723   4.982   0.441
 3643WAT     H111448   1.787   4.927   0.397
 3643WAT     H211449   1.765   5.007   0.523
 3644WAT      O11450   3.112   5.001   0.777
 3644WAT     H111451   3.176   5.063   0.814
 3644WAT     H211452   3.127   5.005   0.683
 3645WAT      O11453   1.698   4.998   0.716
 3645WAT     H111454   1.663   5.043   0.792
 3645WAT     H211455   1.665   4.908   0.724
 3646WAT      O11456   2.449   5.117   1.068
 3646WAT     H111457   2.443   5.176   1.143
 3646WAT     H211458   2.543   5.106   1.053
 3647WAT      O11459   2.713   5.082   1.032
 3647WAT     H111460   2.774   5.114   0.965
 3647WAT     H211461   2.767   5.034   1.094
 3648WAT      O11462   1.765   4.950   1.043
 3648WAT     H111463   1.820   4.932   0.967
 3648WAT     H211464   1.772   4.871   1.097
 3649WAT      O11465   2.787   4.939   0.664
 3649WAT     H111466   2.700   4.972   0.644
 3649WAT     H211467   2.776   4.891   0.747
 3650WAT      O11468   2.878   5.159   0.803
 3650WAT     H111469   2.845   5.078   0.765
 3650WAT     H211470   2.972   5.155   0.790
 3651WAT      O11471   2.562   5.030   0.558
 3651WAT     H111472   2.483   5.078   0.586
 3651WAT     H211473   2.532   4.940   0.547
 3652WAT      O11474   3.017   5.101   0.363
 3652WAT     H111475   3.061   5.095   0.278
 3652WAT     H211476   2.990   5.192   0.370
 3653WAT      O11477   2.800   4.939   0.233
 3653WAT     H111478   2.861   4.996   0.281
 3653WAT     H211479   2.726   4.995   0.211
 3654WAT      O11480   2.165   5.015   1.213
 3654WAT     H111481   2.137   5.065   1.137
 3654WAT     H211482   2.203   4.935   1.177
 3655WAT      O11483   2.825   4.957   1.271
 3655WAT     H111484   2.814   4.989   1.361
 3655WAT     H211485   2.907   4.997   1.242
 3656WAT      O11486   2.716   3.881   5.817
 3656WAT     H111487   2.708   3.790   5.790
 3656WAT     H211488   2.675   3.931   5.747
 3657WAT      O11489   2.529   4.059   6.005
 3657WAT     H111490   2.452   4.011   6.034
 3657WAT     H211491   2.594   3.991   5.988
 3658WAT      O11492   2.931   4.500   5.883
 3658WAT     H111493   2.885   4.422   5.916
 3658WAT     H211494   3.013   4.502   5.934
 3659WAT      O11495   1.929   4.494   6.113
 3659WAT     H111496   1.959   4.404   6.095
 3659WAT     H211497   2.003   4.549   6.090
 3660WAT      O11498   1.772   3.586   5.472
 3660WAT     H111499   1.683   3.620   5.461
 3660WAT     H211500   1.800   3.566   5.382
 3661WAT      O11501   1.568   3.846   6.060
 3661WAT     H111502   1.625   3.769   6.060
 3661WAT     H211503   1.568   3.876   5.969
 3662WAT      O11504   2.554   4.728   5.845
 3662WAT     H111505   2.492   4.774   5.788
 3662WAT     H211506   2.639   4.744   5.805
 3663WAT      O11507   2.473   4.326   6.006
 3663WAT     H111508   2.466   4.232   5.990
 3663WAT     H211509   2.549   4.335   6.063
 3664WAT      O11510   2.576   3.607   6.029
 3664WAT     H111511   2.614   3.520   6.018
 3664WAT     H211512   2.567   3.641   5.940
 3665WAT      O11513   1.989   3.444   5.575
 3665WAT     H111514   2.000   3.534   5.606
 3665WAT     H211515   1.898   3.440   5.546
 3666WAT      O11516   2.955   3.357   5.722
 3666WAT     H111517   3.037   3.308   5.726
 3666WAT     H211518   2.958   3.416   5.797
 3667WAT      O11519   2.173   3.741   6.008
 3667WAT     H111520   2.224   3.791   6.072
 3667WAT     H211521   2.227   3.664   5.991
 3668WAT      O11522   2.641   4.216   5.585
 3668WAT     H111523   2.579   4.263   5.528
 3668WAT     H211524   2.692   4.286   5.626
 3669WAT      O11525   2.978   3.551   5.999
 3669WAT     H111526   2.908   3.580   6.057
 3669WAT     H211527   3.014   3.632   5.963
 3670WAT      O11528   1.577   4.285   5.322
 3670WAT     H111529   1.540   4.334   5.249
 3670WAT     H211530   1.603   4.352   5.385
 3671WAT      O11531   3.285   3.495   6.038
 3671WAT     H111532   3.190   3.499   6.052
 3671WAT     H211533   3.318   3.577   6.077
 3672WAT      O11534   2.338   3.125   5.868
 3672WAT     H111535   2.369   3.070   5.796
 3672WAT     H211536   2.245   3.139   5.850
 3673WAT      O11537   2.893   4.697   6.097
 3673WAT     H111538   2.895   4.657   6.010
 3673WAT     H211539   2.838   4.774   6.087
 3674WAT      O11540   3.023   4.369   5.606
 3674WAT     H111541   3.012   4.275   5.618
 3674WAT     H211542   3.023   4.405   5.695
 3675WAT      O11543   2.577   3.932   5.542
 3675WAT     H111544   2.484   3.925   5.565
 3675WAT     H211545   2.592   4.026   5.530
 3676WAT      O11546   2.576   3.559   5.241
 3676WAT     H111547   2.482   3.575   5.250
 3676WAT     H211548   2.608   3.631   5.187
 3677WAT      O11549   2.980   4.088   5.592
 3677WAT     H111550   2.918   4.054   5.527
 3677WAT     H211551   2.978   4.024   5.663
 3678WAT      O11552   2.138   3.984   5.820
 3678WAT     H111553   2.097   3.913   5.770
 3678WAT     H211554   2.146   3.950   5.909
 3679WAT      O11555   2.184   4.353   6.036
 3679WAT     H111556   2.155   4.292   5.968
 3679WAT     H211557   2.279   4.357   6.025
 3680WAT      O11558   2.798   4.012   5.293
 3680WAT     H111559   2.842   3.928   5.278
 3680WAT     H211560   2.869   4.075   5.301
 3681WAT      O11561   2.609   4.506   5.690
 3681WAT     H111562   2.653   4.580   5.648
 3681WAT     H211563   2.603   4.530   5.782
 3682WAT      O11564   3.156   3.137   5.124
 3682WAT     H111565   3.125   3.146   5.214
 3682WAT     H211566   3.232   3.195   5.119
 3683WAT      O11567   1.808   3.874   5.570
 3683WAT     H111568   1.796   3.946   5.509
 3683WAT     H211569   1.777   3.797   5.522
 3684WAT      O11570   1.696   4.361   5.792
 3684WAT     H111571   1.655   4.375   5.706
 3684WAT     H211572   1.785   4.333   5.771
 3685WAT      O11573   2.875   4.804   5.425
 3685WAT     H111574   2.859   4.775   5.515
 3685WAT     H211575   2.859   4.727   5.372
 3686WAT      O11576   2.123   4.782   5.603
 3686WAT     H111577   2.106   4.691   5.582
 3686WAT     H211578   2.038   4.818   5.627
 3687WAT      O11579   2.846   4.555   5.281
 3687WAT     H111580   2.776   4.555   5.215
 3687WAT     H211581   2.920   4.513   5.238
 3688WAT      O11582   2.802   4.718   5.689
 3688WAT     H111583   2.848   4.640   5.720
 3688WAT     H211584   2.836   4.789   5.743
 3689WAT      O11585   2.054   3.208   5.908
 3689WAT     H111586   2.010   3.286   5.875
 3689WAT     H211587   2.110   3.240   5.979
 3690WAT      O11588   2.366   3.170   5.396
 3690WAT     H111589   2.303   3.170   5.469
 3690WAT     H211590   2.357   3.084   5.357
 3691WAT      O11591   2.258   3.263   6.094
 3691WAT     H111592   2.288   3.353   6.086
 3691WAT     H211593   2.313   3.214   6.033
 3692WAT      O11594   2.033   3.720   5.681
 3692WAT     H111595   2.011   3.699   5.771
 3692WAT     H211596   1.955   3.764   5.646
 3693WAT      O11597   2.756   3.721   5.541
 3693WAT     H111598   2.697   3.793   5.522
 3693WAT     H211599   2.811   3.715   5.463
 3694WAT      O11600   2.617   3.585   5.744
 3694WAT     H111601   2.656   3.616   5.663
 3694WAT     H211602   2.653   3.497   5.755
 3695WAT      O11603   1.521   3.244   5.966
 3695WAT     H111604   1.492   3.301   6.037
 3695WAT     H211605   1.595   3.196   6.002
 3696WAT      O11606   1.539   3.638   5.087
 3696WAT     H111607   1.531   3.732   5.101
 3696WAT     H211608   1.504   3.624   4.999
 3697WAT      O11609   2.319   3.511   5.994
 3697WAT     H111610   2.320   3.467   5.909
 3697WAT     H211611   2.409   3.544   6.005
 3698WAT      O11612   1.904   3.500   5.890
 3698WAT     H111613   1.870   3.547   5.966
 3698WAT     H211614   1.828   3.454   5.854
 3699WAT      O11615   2.326   3.611   5.293
 3699WAT     H111616   2.338   3.607   5.388
 3699WAT     H211617   2.287   3.698   5.277
 3700WAT      O11618   2.227   3.842   5.233
 3700WAT     H111619   2.170   3.798   5.170
 3700WAT     H211620   2.298   3.878   5.179
 3701WAT      O11621   1.636   3.392   5.782
 3701WAT     H111622   1.607   3.355   5.865
 3701WAT     H211623   1.630   3.319   5.720
 3702WAT      O11624   1.981   4.242   5.460
 3702WAT     H111625   1.904   4.188   5.444
 3702WAT     H211626   2.054   4.190   5.426
 3703WAT      O11627   3.057   4.142   6.039
 3703WAT     H111628   3.129   4.191   6.000
 3703WAT     H211629   3.037   4.074   5.975
 3704WAT      O11630   2.603   3.281   5.454
 3704WAT     H111631   2.522   3.231   5.446
 3704WAT     H211632   2.584   3.365   5.412
 3705WAT      O11633   2.875   3.718   5.283
 3705WAT     H111634   2.964   3.749   5.266
 3705WAT     H211635   2.872   3.631   5.244
 3706WAT      O11636   1.986   4.209   5.824
 3706WAT     H111637   2.037   4.129   5.818
 3706WAT     H211638   1.941   4.203   5.908
 3707WAT      O11639   2.474   4.336   5.351
 3707WAT     H111640   2.509   4.410   5.302
 3707WAT     H211641   2.392   4.367   5.387
 3708WAT      O11642   3.102   3.849   5.230
 3708WAT     H111643   3.094   3.893   5.145
 3708WAT     H211644   3.174   3.895   5.273
 3709WAT      O11645   3.205   4.535   5.503
 3709WAT     H111646   3.141   4.469   5.530
 3709WAT     H211647   3.166   4.575   5.425
 3710WAT      O11648   2.763   4.268   5.888
 3710WAT     H111649   2.798   4.208   5.822
 3710WAT     H211650   2.674   4.235   5.905
 3711WAT      O11651   2.371   4.344   5.628
 3711WAT     H111652   2.440   4.398   5.666
 3711WAT     H211653   2.293   4.398   5.632
 3712WAT      O11654   1.585   3.905   5.177
 3712WAT     H111655   1.672   3.934   5.206
 3712WAT     H211656   1.536   3.987   5.166
 3713WAT      O11657   2.302   4.044   5.590
 3713WAT     H111658   2.347   4.125   5.612
 3713WAT     H211659   2.266   4.012   5.673
 3714WAT      O11660   1.892   3.079   5.637
 3714WAT     H111661   1.879   3.078   5.732
 3714WAT     H211662   1.809   3.112   5.602
 3715WAT      O11663   3.044   4.424   5.157
 3715WAT     H111664   3.021   4.352   5.216
 3715WAT     H211665   3.005   4.399   5.073
 3716WAT      O11666   1.622   4.827   5.234
 3716WAT     H111667   1.658   4.887   5.169
 3716WAT     H211668   1.608   4.881   5.311
 3717WAT      O11669   3.002   4.216   5.323
 3717WAT     H111670   2.973   4.262   5.402
 3717WAT     H211671   3.081   4.170   5.350
 3718WAT      O11672   2.224   4.565   5.316
 3718WAT     H111673   2.223   4.638   5.254
 3718WAT     H211674   2.132   4.540   5.325
 3719WAT      O11675   1.784   4.087   5.390
 3719WAT     H111676   1.723   4.161   5.391
 3719WAT     H211677   1.831   4.096   5.308
 3720WAT      O11678   3.078   3.399   5.439
 3720WAT     H111679   3.015   3.410   5.367
 3720WAT     H211680   3.028   3.421   5.518
 3721WAT      O11681   2.522   4.571   5.182
 3721WAT     H111682   2.532   4.551   5.089
 3721WAT     H211683   2.432   4.546   5.203
 3722WAT      O11684   2.274   3.627   5.580
 3722WAT     H111685   2.204   3.674   5.624
 3722WAT     H211686   2.303   3.561   5.644
 3723WAT      O11687   2.678   3.300   5.724
 3723WAT     H111688   2.665   3.301   5.629
 3723WAT     H211689   2.772   3.304   5.736
 3724WAT      O11690   2.386   4.823   5.652
 3724WAT     H111691   2.412   4.819   5.559
 3724WAT     H211692   2.292   4.810   5.651
 3725WAT      O11693   2.095   3.458   5.318
 3725WAT     H111694   2.180   3.502   5.311
 3725WAT     H211695   2.058   3.489   5.401
 3726WAT      O11696   2.987   3.915   5.809
 3726WAT     H111697   2.893   3.917   5.827
 3726WAT     H211698   3.018   3.836   5.854
 3727WAT      O11699   1.985   4.083   5.165
 3727WAT     H111700   2.061   4.072   5.221
 3727WAT     H211701   1.992   4.014   5.100
 3728WAT      O11702   1.854   3.826   5.234
 3728WAT     H111703   1.862   3.732   5.245
 3728WAT     H211704   1.943   3.860   5.244
 3729WAT      O11705   3.187   4.632   5.977
 3729WAT     H111706   3.200   4.714   6.024
 3729WAT     H211707   3.274   4.611   5.942
 3730WAT      O11708   1.934   4.841   5.944
 3730WAT     H111709   2.008   4.787   5.971
 3730WAT     H211710   1.973   4.928   5.930
 3731WAT      O11711   1.623   4.448   5.531
 3731WAT     H111712   1.530   4.472   5.530
 3731WAT     H211713   1.669   4.531   5.519
 3732WAT      O11714   2.245   4.759   5.126
 3732WAT     H111715   2.325   4.788   5.081
 3732WAT     H211716   2.193   4.716   5.058
 3733WAT      O11717   3.151   4.681   5.268
 3733WAT     H111718   3.122   4.640   5.187
 3733WAT     H211719   3.131   4.774   5.256
 3734WAT      O11720   2.297   4.281   5.113
 3734WAT     H111721   2.287   4.219   5.185
 3734WAT     H211722   2.280   4.228   5.034
 3735WAT      O11723   2.621   4.187   5.173
 3735WAT     H111724   2.566   4.232   5.237
 3735WAT     H211725   2.683   4.136   5.225
 3736WAT      O11726   2.188   4.083   5.363
 3736WAT     H111727   2.230   4.066   5.447
 3736WAT     H211728   2.200   4.002   5.313
 3737WAT      O11729   2.439   3.985   5.087
 3737WAT     H111730   2.491   3.914   5.051
 3737WAT     H211731   2.504   4.049   5.117
 3738WAT      O11732   2.078   3.690   5.057
 3738WAT     H111733   2.057   3.604   5.093
 3738WAT     H211734   2.060   3.682   4.963
 3739WAT      O11735   2.825   3.171   5.310
 3739WAT     H111736   2.853   3.087   5.346
 3739WAT     H211737   2.748   3.195   5.361
 3740WAT      O11738   1.957   3.400   5.056
 3740WAT     H111739   1.988   3.401   4.965
 3740WAT     H211740   2.031   3.365   5.106
 3741WAT      O11741   2.279   3.295   5.155
 3741WAT     H111742   2.244   3.227   5.097
 3741WAT     H211743   2.299   3.248   5.236
 3742WAT      O11744   2.496   4.793   5.316
 3742WAT     H111745   2.585   4.827   5.319
 3742WAT     H211746   2.499   4.721   5.254
 3743WAT      O11747   1.860   4.331   5.139
 3743WAT     H111748   1.903   4.385   5.205
 3743WAT     H211749   1.908   4.248   5.140
 3744WAT      O11750   1.581   4.610   5.884
 3744WAT     H111751   1.614   4.523   5.861
 3744WAT     H211752   1.624   4.630   5.968
 3745WAT      O11753   2.041   4.443   5.650
 3745WAT     H111754   2.011   4.430   5.741
 3745WAT     H211755   2.030   4.357   5.610
 3746WAT      O11756   3.318   4.421   5.121
 3746WAT     H111757   3.235   4.427   5.168
 3746WAT     H211758   3.335   4.510   5.090
 3747WAT      O11759   3.263   4.095   5.371
 3747WAT     H111760   3.339   4.152   5.382
 3747WAT     H211761   3.265   4.038   5.448
 3748WAT      O11762   1.613   3.947   5.794
 3748WAT     H111763   1.548   3.921   5.730
 3748WAT     H211764   1.697   3.936   5.749
 3749WAT      O11765   3.364   4.181   5.856
 3749WAT     H111766   3.401   4.102   5.815
 3749WAT     H211767   3.428   4.249   5.838
 3750WAT      O11768   3.268   4.124   5.087
 3750WAT     H111769   3.296   4.215   5.074
 3750WAT     H211770   3.250   4.118   5.180
 3751WAT      O11771   2.908   3.427   5.216
 3751WAT     H111772   2.950   3.408   5.132
 3751WAT     H211773   2.878   3.342   5.247
 3752WAT      O11774   3.258   3.918   5.586
 3752WAT     H111775   3.220   3.841   5.543
 3752WAT     H211776   3.185   3.956   5.635
 3753WAT      O11777   1.535   3.668   5.388
 3753WAT     H111778   1.444   3.695   5.371
 3753WAT     H211779   1.583   3.696   5.310
 3754WAT      O11780   3.186   3.741   5.916
 3754WAT     H111781   3.238   3.691   5.853
 3754WAT     H211782   3.244   3.754   5.991
 3755WAT      O11783   1.789   3.574   5.179
 3755WAT     H111784   1.860   3.532   5.131
 3755WAT     H211785   1.717   3.581   5.116
 3756WAT      O11786   1.754   3.179   5.083
 3756WAT     H111787   1.826   3.234   5.115
 3756WAT     H211788   1.781   3.152   4.996
 3757WAT      O11789   3.135   3.666   5.510
 3757WAT     H111790   3.184   3.643   5.589
 3757WAT     H211791   3.115   3.583   5.468
 3758WAT      O11792   3.277   3.530   5.763
 3758WAT     H111793   3.266   3.515   5.857
 3758WAT     H211794   3.354   3.477   5.739
 3759WAT      O11795   3.366   3.313   5.088
 3759WAT     H111796   3.459   3.300   5.067
 3759WAT     H211797   3.364   3.321   5.183
 3760WAT      O11798   3.374   3.390   5.350
 3760WAT     H111799   3.294   3.384   5.403
 3760WAT     H211800   3.394   3.484   5.349
 3761WAT      O11801   3.068   4.794   5.749
 3761WAT     H111802   3.127   4.762   5.682
 3761WAT     H211803   3.094   4.747   5.829
 3762WAT      O11804   3.123   4.859   6.132
 3762WAT     H111805   3.077   4.934   6.095
 3762WAT     H211806   3.060   4.787   6.127
 3763WAT      O11807   2.166   4.690   6.050
 3763WAT     H111808   2.218   4.629   5.997
 3763WAT     H211809   2.231   4.740   6.099
 3764WAT      O11810   3.017   3.223   5.995
 3764WAT     H111811   3.061   3.218   5.910
 3764WAT     H211812   2.990   3.315   6.002
 3765WAT      O11813   3.203   3.186   5.796
 3765WAT     H111814   3.197   3.092   5.781
 3765WAT     H211815   3.281   3.197   5.851
 3766WAT      O11816   1.634   4.800   5.692
 3766WAT     H111817   1.617   4.737   5.762
 3766WAT     H211818   1.547   4.821   5.657
 3767WAT      O11819   1.696   3.183   5.443
 3767WAT     H111820   1.772   3.195   5.385
 3767WAT     H211821   1.650   3.267   5.438
 3768WAT      O11822   2.350   3.395   5.742
 3768WAT     H111823   2.269   3.357   5.708
 3768WAT     H211824   2.401   3.319   5.772
 3769WAT      O11825   2.800   3.061   5.866
 3769WAT     H111826   2.861   3.118   5.913
 3769WAT     H211827   2.726   3.118   5.843
 3770WAT      O11828   3.115   3.101   5.393
 3770WAT     H111829   3.134   3.191   5.420
 3770WAT     H211830   3.036   3.078   5.442
 3771WAT      O11831   1.794   4.670   5.437
 3771WAT     H111832   1.742   4.708   5.367
 3771WAT     H211833   1.787   4.732   5.509
 3772WAT      O11834   1.933   3.236   5.297
 3772WAT     H111835   1.986   3.157   5.284
 3772WAT     H211836   1.997   3.304   5.320
 3773WAT      O11837   2.153   3.210   5.602
 3773WAT     H111838   2.090   3.140   5.619
 3773WAT     H211839   2.099   3.286   5.581
 3774WAT      O11840   3.270   4.825   5.569
 3774WAT     H111841   3.288   4.757   5.505
 3774WAT     H211842   3.200   4.878   5.530
 3775WAT      O11843   2.054   4.864   5.324
 3775WAT     H111844   2.128   4.836   5.270
 3775WAT     H211845   2.080   4.841   5.413
 3776WAT      O11846   1.971   4.476   5.325
 3776WAT     H111847   1.908   4.523   5.380
 3776WAT     H211848   1.982   4.392   5.368
 3777WAT      O11849   2.716   3.881   3.940
 3777WAT     H111850   2.708   3.790   3.913
 3777WAT     H211851   2.675   3.931   3.869
 3778WAT      O11852   2.529   4.059   4.128
 3778WAT     H111853   2.452   4.011   4.157
 3778WAT     H211854   2.594   3.991   4.111
 3779WAT      O11855   1.931   4.090   4.216
 3779WAT     H111856   1.848   4.065   4.256
 3779WAT     H211857   1.992   4.097   4.289
 3780WAT      O11858   2.931   4.500   4.006
 3780WAT     H111859   2.885   4.422   4.039
 3780WAT     H211860   3.013   4.502   4.057
 3781WAT      O11861   1.929   4.494   4.235
 3781WAT     H111862   1.959   4.404   4.217
 3781WAT     H211863   2.003   4.549   4.213
 3782WAT      O11864   1.772   3.586   3.594
 3782WAT     H111865   1.683   3.620   3.584
 3782WAT     H211866   1.800   3.566   3.505
 3783WAT      O11867   1.568   3.846   4.183
 3783WAT     H111868   1.625   3.769   4.183
 3783WAT     H211869   1.568   3.876   4.092
 3784WAT      O11870   2.554   4.728   3.968
 3784WAT     H111871   2.492   4.774   3.911
 3784WAT     H211872   2.639   4.744   3.928
 3785WAT      O11873   2.473   4.326   4.129
 3785WAT     H111874   2.466   4.232   4.113
 3785WAT     H211875   2.549   4.335   4.186
 3786WAT      O11876   1.692   3.387   4.361
 3786WAT     H111877   1.674   3.297   4.389
 3786WAT     H211878   1.652   3.442   4.429
 3787WAT      O11879   1.989   3.444   3.698
 3787WAT     H111880   2.000   3.534   3.728
 3787WAT     H211881   1.898   3.440   3.669
 3788WAT      O11882   2.955   3.357   3.845
 3788WAT     H111883   3.037   3.308   3.849
 3788WAT     H211884   2.958   3.416   3.920
 3789WAT      O11885   1.754   3.637   4.222
 3789WAT     H111886   1.822   3.663   4.284
 3789WAT     H211887   1.723   3.553   4.255
 3790WAT      O11888   2.173   3.741   4.131
 3790WAT     H111889   2.224   3.791   4.195
 3790WAT     H211890   2.227   3.664   4.113
 3791WAT      O11891   3.384   3.558   4.501
 3791WAT     H111892   3.313   3.597   4.449
 3791WAT     H211893   3.410   3.628   4.561
 3792WAT      O11894   2.002   3.205   4.557
 3792WAT     H111895   2.002   3.257   4.477
 3792WAT     H211896   1.919   3.158   4.555
 3793WAT      O11897   2.641   4.216   3.707
 3793WAT     H111898   2.579   4.263   3.651
 3793WAT     H211899   2.692   4.286   3.749
 3794WAT      O11900   2.127   4.169   4.375
 3794WAT     H111901   2.094   4.232   4.439
 3794WAT     H211902   2.145   4.222   4.297
 3795WAT      O11903   2.978   3.551   4.122
 3795WAT     H111904   2.908   3.580   4.180
 3795WAT     H211905   3.014   3.632   4.086
 3796WAT      O11906   1.970   3.376   4.358
 3796WAT     H111907   2.004   3.461   4.329
 3796WAT     H211908   1.876   3.391   4.370
 3797WAT      O11909   2.048   4.366   4.557
 3797WAT     H111910   2.110   4.434   4.529
 3797WAT     H211911   1.962   4.407   4.548
 3798WAT      O11912   1.577   4.285   3.445
 3798WAT     H111913   1.540   4.334   3.372
 3798WAT     H211914   1.603   4.352   3.508
 3799WAT      O11915   3.140   4.512   4.348
 3799WAT     H111916   3.071   4.579   4.347
 3799WAT     H211917   3.194   4.532   4.272
 3800WAT      O11918   2.893   4.697   4.220
 3800WAT     H111919   2.895   4.657   4.133
 3800WAT     H211920   2.838   4.774   4.209
 3801WAT      O11921   3.023   4.369   3.729
 3801WAT     H111922   3.012   4.275   3.741
 3801WAT     H211923   3.023   4.405   3.817
 3802WAT      O11924   2.833   4.187   4.352
 3802WAT     H111925   2.875   4.166   4.269
 3802WAT     H211926   2.906   4.213   4.410
 3803WAT      O11927   2.577   3.932   3.664
 3803WAT     H111928   2.484   3.925   3.687
 3803WAT     H211929   2.592   4.026   3.653
 3804WAT      O11930   2.576   3.559   3.364
 3804WAT     H111931   2.482   3.575   3.372
 3804WAT     H211932   2.608   3.631   3.309
 3805WAT      O11933   3.228   4.027   4.362
 3805WAT     H111934   3.145   4.034   4.314
 3805WAT     H211935   3.287   4.086   4.315
 3806WAT      O11936   2.980   4.088   3.715
 3806WAT     H111937   2.918   4.054   3.650
 3806WAT     H211938   2.978   4.024   3.785
 3807WAT      O11939   2.924   3.706   4.456
 3807WAT     H111940   2.883   3.788   4.482
 3807WAT     H211941   2.851   3.647   4.437
 3808WAT      O11942   2.138   3.984   3.942
 3808WAT     H111943   2.097   3.913   3.893
 3808WAT     H211944   2.146   3.950   4.031
 3809WAT      O11945   2.184   4.353   4.159
 3809WAT     H111946   2.155   4.292   4.091
 3809WAT     H211947   2.279   4.357   4.148
 3810WAT      O11948   2.009   3.662   4.320
 3810WAT     H111949   2.064   3.673   4.243
 3810WAT     H211950   2.060   3.699   4.392
 3811WAT      O11951   2.993   4.710   4.525
 3811WAT     H111952   2.946   4.791   4.506
 3811WAT     H211953   2.925   4.645   4.540
 3812WAT      O11954   2.094   4.327   4.824
 3812WAT     H111955   2.004   4.349   4.849
 3812WAT     H211956   2.096   4.339   4.729
 3813WAT      O11957   2.798   4.012   3.415
 3813WAT     H111958   2.842   3.928   3.401
 3813WAT     H211959   2.869   4.075   3.424
 3814WAT      O11960   1.976   4.014   4.681
 3814WAT     H111961   1.962   4.101   4.718
 3814WAT     H211962   1.888   3.980   4.667
 3815WAT      O11963   2.609   4.506   3.812
 3815WAT     H111964   2.653   4.580   3.771
 3815WAT     H211965   2.603   4.530   3.904
 3816WAT      O11966   2.156   4.608   4.902
 3816WAT     H111967   2.153   4.649   4.816
 3816WAT     H211968   2.140   4.515   4.886
 3817WAT      O11969   1.808   3.874   3.692
 3817WAT     H111970   1.796   3.946   3.631
 3817WAT     H211971   1.777   3.797   3.645
 3818WAT      O11972   3.351   4.686   5.032
 3818WAT     H111973   3.399   4.734   5.100
 3818WAT     H211974   3.413   4.680   4.959
 3819WAT      O11975   1.572   4.191   4.273
 3819WAT     H111976   1.579   4.204   4.179
 3819WAT     H211977   1.633   4.120   4.292
 3820WAT      O11978   1.696   4.361   3.914
 3820WAT     H111979   1.655   4.375   3.829
 3820WAT     H211980   1.785   4.333   3.894
 3821WAT      O11981   3.292   4.406   4.748
 3821WAT     H111982   3.304   4.382   4.656
 3821WAT     H211983   3.296   4.322   4.795
 3822WAT      O11984   2.678   4.776   4.605
 3822WAT     H111985   2.729   4.767   4.685
 3822WAT     H211986   2.594   4.810   4.634
 3823WAT      O11987   2.875   4.804   3.548
 3823WAT     H111988   2.859   4.775   3.638
 3823WAT     H211989   2.859   4.727   3.494
 3824WAT      O11990   2.123   4.782   3.725
 3824WAT     H111991   2.106   4.691   3.704
 3824WAT     H211992   2.038   4.818   3.749
 3825WAT      O11993   2.846   4.555   3.404
 3825WAT     H111994   2.776   4.555   3.338
 3825WAT     H211995   2.920   4.513   3.361
 3826WAT      O11996   2.802   4.718   3.811
 3826WAT     H111997   2.848   4.640   3.843
 3826WAT     H211998   2.836   4.789   3.866
 3827WAT      O11999   3.277   3.611   4.844
 3827WAT     H112000   3.215   3.662   4.792
 3827WAT     H212001   3.245   3.521   4.839
 3828WAT      O12002   1.577   4.295   4.527
 3828WAT     H112003   1.593   4.248   4.445
 3828WAT     H212004   1.624   4.244   4.594
 3829WAT      O12005   2.483   3.495   4.591
 3829WAT     H112006   2.437   3.516   4.672
 3829WAT     H212007   2.443   3.413   4.561
 3830WAT      O12008   2.983   3.617   4.704
 3830WAT     H112009   2.898   3.587   4.736
 3830WAT     H212010   2.967   3.641   4.613
 3831WAT      O12011   2.693   3.767   4.914
 3831WAT     H112012   2.725   3.684   4.880
 3831WAT     H212013   2.771   3.819   4.929
 3832WAT      O12014   2.033   3.720   3.804
 3832WAT     H112015   2.011   3.699   3.894
 3832WAT     H212016   1.955   3.764   3.769
 3833WAT      O12017   2.756   3.721   3.663
 3833WAT     H112018   2.697   3.793   3.645
 3833WAT     H212019   2.811   3.715   3.585
 3834WAT      O12020   2.277   3.810   4.870
 3834WAT     H112021   2.268   3.716   4.855
 3834WAT     H212022   2.362   3.832   4.831
 3835WAT      O12023   1.791   3.451   4.685
 3835WAT     H112024   1.751   3.536   4.706
 3835WAT     H212025   1.722   3.388   4.705
 3836WAT      O12026   2.448   3.460   4.992
 3836WAT     H112027   2.379   3.441   5.056
 3836WAT     H212028   2.522   3.488   5.046
 3837WAT      O12029   1.521   3.244   4.089
 3837WAT     H112030   1.492   3.301   4.160
 3837WAT     H212031   1.595   3.196   4.125
 3838WAT      O12032   1.539   3.638   3.210
 3838WAT     H112033   1.531   3.732   3.224
 3838WAT     H212034   1.504   3.624   3.122
 3839WAT      O12035   2.676   3.844   4.276
 3839WAT     H112036   2.602   3.895   4.311
 3839WAT     H212037   2.636   3.762   4.246
 3840WAT      O12038   1.904   3.500   4.012
 3840WAT     H112039   1.870   3.547   4.088
 3840WAT     H212040   1.828   3.454   3.976
 3841WAT      O12041   2.326   3.611   3.416
 3841WAT     H112042   2.338   3.607   3.510
 3841WAT     H212043   2.287   3.698   3.400
 3842WAT      O12044   2.227   3.842   3.355
 3842WAT     H112045   2.170   3.798   3.293
 3842WAT     H212046   2.298   3.878   3.302
 3843WAT      O12047   3.065   3.130   4.801
 3843WAT     H112048   3.097   3.057   4.854
 3843WAT     H212049   3.068   3.099   4.711
 3844WAT      O12050   1.735   4.233   4.743
 3844WAT     H112051   1.696   4.169   4.803
 3844WAT     H212052   1.766   4.303   4.800
 3845WAT      O12053   2.350   3.917   4.291
 3845WAT     H112054   2.386   3.870   4.366
 3845WAT     H212055   2.331   4.005   4.325
 3846WAT      O12056   1.636   3.392   3.904
 3846WAT     H112057   1.607   3.355   3.988
 3846WAT     H212058   1.630   3.319   3.843
 3847WAT      O12059   2.128   3.821   4.523
 3847WAT     H112060   2.098   3.909   4.545
 3847WAT     H212061   2.224   3.827   4.527
 3848WAT      O12062   1.981   4.242   3.583
 3848WAT     H112063   1.904   4.188   3.567
 3848WAT     H212064   2.054   4.190   3.549
 3849WAT      O12065   3.057   4.142   4.162
 3849WAT     H112066   3.129   4.191   4.123
 3849WAT     H212067   3.037   4.074   4.097
 3850WAT      O12068   2.595   4.149   4.751
 3850WAT     H112069   2.589   4.057   4.725
 3850WAT     H212070   2.532   4.159   4.822
 3851WAT      O12071   2.875   3.718   3.406
 3851WAT     H112072   2.964   3.749   3.388
 3851WAT     H212073   2.872   3.631   3.367
 3852WAT      O12074   1.986   4.209   3.946
 3852WAT     H112075   2.037   4.129   3.941
 3852WAT     H212076   1.941   4.203   4.031
 3853WAT      O12077   2.474   4.336   3.474
 3853WAT     H112078   2.509   4.410   3.424
 3853WAT     H212079   2.392   4.367   3.510
 3854WAT      O12080   1.734   3.905   4.638
 3854WAT     H112081   1.698   3.972   4.696
 3854WAT     H212082   1.705   3.822   4.675
 3855WAT      O12083   2.054   3.951   4.926
 3855WAT     H112084   2.024   3.966   4.836
 3855WAT     H212085   2.131   3.895   4.917
 3856WAT      O12086   2.589   4.431   4.726
 3856WAT     H112087   2.590   4.338   4.704
 3856WAT     H212088   2.518   4.440   4.790
 3857WAT      O12089   3.210   4.095   4.660
 3857WAT     H112090   3.137   4.154   4.641
 3857WAT     H212091   3.262   4.094   4.580
 3858WAT      O12092   3.205   4.535   3.625
 3858WAT     H112093   3.141   4.469   3.653
 3858WAT     H212094   3.166   4.575   3.548
 3859WAT      O12095   2.763   4.268   4.010
 3859WAT     H112096   2.798   4.208   3.944
 3859WAT     H212097   2.674   4.235   4.027
 3860WAT      O12098   2.371   4.344   3.751
 3860WAT     H112099   2.440   4.398   3.789
 3860WAT     H212100   2.293   4.398   3.754
 3861WAT      O12101   1.585   3.905   3.300
 3861WAT     H112102   1.672   3.934   3.328
 3861WAT     H212103   1.536   3.987   3.289
 3862WAT      O12104   2.302   4.044   3.712
 3862WAT     H112105   2.347   4.125   3.735
 3862WAT     H212106   2.266   4.012   3.795
 3863WAT      O12107   2.532   4.595   4.435
 3863WAT     H112108   2.596   4.616   4.503
 3863WAT     H212109   2.568   4.519   4.390
 3864WAT      O12110   2.659   4.396   4.307
 3864WAT     H112111   2.723   4.325   4.318
 3864WAT     H212112   2.712   4.473   4.289
 3865WAT      O12113   3.044   4.424   3.279
 3865WAT     H112114   3.021   4.352   3.338
 3865WAT     H212115   3.005   4.399   3.195
 3866WAT      O12116   2.837   4.475   4.627
 3866WAT     H112117   2.870   4.534   4.695
 3866WAT     H212118   2.745   4.462   4.650
 3867WAT      O12119   1.622   4.827   3.357
 3867WAT     H112120   1.658   4.887   3.291
 3867WAT     H212121   1.608   4.881   3.434
 3868WAT      O12122   1.592   3.254   4.705
 3868WAT     H112123   1.520   3.274   4.766
 3868WAT     H212124   1.634   3.177   4.743
 3869WAT      O12125   3.002   4.216   3.445
 3869WAT     H112126   2.973   4.262   3.524
 3869WAT     H212127   3.081   4.170   3.472
 3870WAT      O12128   1.620   4.653   4.804
 3870WAT     H112129   1.631   4.559   4.790
 3870WAT     H212130   1.555   4.680   4.739
 3871WAT      O12131   2.419   4.480   4.944
 3871WAT     H112132   2.387   4.408   4.999
 3871WAT     H212133   2.352   4.548   4.951
 3872WAT      O12134   2.224   4.565   3.438
 3872WAT     H112135   2.223   4.638   3.377
 3872WAT     H212136   2.132   4.540   3.448
 3873WAT      O12137   1.784   4.087   3.513
 3873WAT     H112138   1.723   4.161   3.514
 3873WAT     H212139   1.831   4.096   3.430
 3874WAT      O12140   2.741   3.504   4.480
 3874WAT     H112141   2.778   3.422   4.513
 3874WAT     H212142   2.655   3.510   4.522
 3875WAT      O12143   2.522   4.571   3.305
 3875WAT     H112144   2.532   4.551   3.212
 3875WAT     H212145   2.432   4.546   3.325
 3876WAT      O12146   2.437   3.769   4.503
 3876WAT     H112147   2.487   3.816   4.569
 3876WAT     H212148   2.451   3.677   4.524
 3877WAT      O12149   2.386   4.823   3.774
 3877WAT     H112150   2.412   4.819   3.682
 3877WAT     H212151   2.292   4.810   3.773
 3878WAT      O12152   2.095   3.458   3.440
 3878WAT     H112153   2.180   3.502   3.434
 3878WAT     H212154   2.058   3.489   3.523
 3879WAT      O12155   3.158   3.391   4.587
 3879WAT     H112156   3.107   3.465   4.621
 3879WAT     H212157   3.239   3.430   4.555
 3880WAT      O12158   2.987   3.915   3.932
 3880WAT     H112159   2.893   3.917   3.949
 3880WAT     H212160   3.018   3.836   3.976
 3881WAT      O12161   1.985   4.083   3.288
 3881WAT     H112162   2.061   4.072   3.344
 3881WAT     H212163   1.992   4.014   3.223
 3882WAT      O12164   1.854   3.826   3.356
 3882WAT     H112165   1.862   3.732   3.367
 3882WAT     H212166   1.943   3.860   3.367
 3883WAT      O12167   3.187   4.632   4.099
 3883WAT     H112168   3.200   4.714   4.146
 3883WAT     H212169   3.274   4.611   4.064
 3884WAT      O12170   1.934   4.841   4.066
 3884WAT     H112171   2.008   4.787   4.093
 3884WAT     H212172   1.973   4.928   4.052
 3885WAT      O12173   1.623   4.448   3.654
 3885WAT     H112174   1.530   4.472   3.653
 3885WAT     H212175   1.669   4.531   3.642
 3886WAT      O12176   1.835   4.760   4.985
 3886WAT     H112177   1.915   4.792   5.027
 3886WAT     H212178   1.783   4.724   5.057
 3887WAT      O12179   2.245   4.759   3.249
 3887WAT     H112180   2.325   4.788   3.203
 3887WAT     H212181   2.193   4.716   3.181
 3888WAT      O12182   2.719   4.371   4.980
 3888WAT     H112183   2.658   4.373   4.906
 3888WAT     H212184   2.688   4.298   5.034
 3889WAT      O12185   2.862   4.744   4.841
 3889WAT     H112186   2.957   4.735   4.836
 3889WAT     H212187   2.847   4.810   4.908
 3890WAT      O12188   3.151   4.681   3.391
 3890WAT     H112189   3.122   4.640   3.310
 3890WAT     H212190   3.131   4.774   3.379
 3891WAT      O12191   1.607   4.009   4.880
 3891WAT     H112192   1.657   3.951   4.937
 3891WAT     H212193   1.533   4.037   4.933
 3892WAT      O12194   2.297   4.281   3.235
 3892WAT     H112195   2.287   4.219   3.308
 3892WAT     H212196   2.280   4.228   3.157
 3893WAT      O12197   2.312   4.149   4.833
 3893WAT     H112198   2.236   4.206   4.825
 3893WAT     H212199   2.330   4.120   4.744
 3894WAT      O12200   2.621   4.187   3.296
 3894WAT     H112201   2.566   4.232   3.360
 3894WAT     H212202   2.683   4.136   3.348
 3895WAT      O12203   3.027   4.322   4.889
 3895WAT     H112204   3.101   4.356   4.838
 3895WAT     H212205   2.950   4.339   4.833
 3896WAT      O12206   1.810   3.823   4.969
 3896WAT     H112207   1.814   3.793   5.060
 3896WAT     H212208   1.896   3.863   4.953
 3897WAT      O12209   2.188   4.083   3.485
 3897WAT     H112210   2.230   4.066   3.569
 3897WAT     H212211   2.200   4.002   3.436
 3898WAT      O12212   2.004   3.681   4.766
 3898WAT     H112213   1.951   3.632   4.703
 3898WAT     H212214   2.071   3.724   4.712
 3899WAT      O12215   2.439   3.985   3.210
 3899WAT     H112216   2.491   3.914   3.173
 3899WAT     H212217   2.504   4.049   3.240
 3900WAT      O12218   2.894   4.128   4.742
 3900WAT     H112219   2.935   4.143   4.827
 3900WAT     H212220   2.800   4.140   4.759
 3901WAT      O12221   2.941   3.862   4.943
 3901WAT     H112222   2.999   3.786   4.934
 3901WAT     H212223   2.959   3.915   4.865
 3902WAT      O12224   2.053   3.377   4.774
 3902WAT     H112225   2.043   3.316   4.701
 3902WAT     H212226   1.995   3.450   4.751
 3903WAT      O12227   2.330   3.233   4.477
 3903WAT     H112228   2.285   3.235   4.393
 3903WAT     H212229   2.266   3.193   4.537
 3904WAT      O12230   2.370   4.123   4.539
 3904WAT     H112231   2.412   4.207   4.522
 3904WAT     H212232   2.278   4.136   4.516
 3905WAT      O12233   2.604   3.896   4.678
 3905WAT     H112234   2.616   3.836   4.752
 3905WAT     H212235   2.690   3.900   4.636
 3906WAT      O12236   2.838   3.951   4.535
 3906WAT     H112237   2.785   4.004   4.475
 3906WAT     H212238   2.872   4.015   4.598
 3907WAT      O12239   2.078   3.690   3.180
 3907WAT     H112240   2.057   3.604   3.216
 3907WAT     H212241   2.060   3.682   3.086
 3908WAT      O12242   2.155   4.753   4.651
 3908WAT     H112243   2.101   4.826   4.619
 3908WAT     H212244   2.181   4.706   4.572
 3909WAT      O12245   2.280   3.550   4.803
 3909WAT     H112246   2.339   3.519   4.872
 3909WAT     H212247   2.199   3.503   4.819
 3910WAT      O12248   2.762   3.512   4.827
 3910WAT     H112249   2.694   3.446   4.820
 3910WAT     H212250   2.834   3.467   4.871
 3911WAT      O12251   1.957   3.400   3.179
 3911WAT     H112252   1.988   3.401   3.088
 3911WAT     H212253   2.031   3.365   3.228
 3912WAT      O12254   2.441   4.877   4.677
 3912WAT     H112255   2.433   4.967   4.707
 3912WAT     H212256   2.351   4.845   4.674
 3913WAT      O12257   2.496   4.793   3.439
 3913WAT     H112258   2.585   4.827   3.441
 3913WAT     H212259   2.499   4.721   3.376
 3914WAT      O12260   1.860   4.331   3.262
 3914WAT     H112261   1.903   4.385   3.327
 3914WAT     H212262   1.908   4.248   3.263
 3915WAT      O12263   1.581   4.610   4.007
 3915WAT     H112264   1.614   4.523   3.984
 3915WAT     H212265   1.624   4.630   4.090
 3916WAT      O12266   2.041   4.443   3.773
 3916WAT     H112267   2.011   4.430   3.863
 3916WAT     H212268   2.030   4.357   3.732
 3917WAT      O12269   1.630   4.696   4.281
 3917WAT     H112270   1.586   4.714   4.364
 3917WAT     H212271   1.687   4.772   4.267
 3918WAT      O12272   3.194   4.646   4.710
 3918WAT     H112273   3.134   4.652   4.635
 3918WAT     H212274   3.207   4.552   4.723
 3919WAT      O12275   3.318   4.421   3.243
 3919WAT     H112276   3.235   4.427   3.290
 3919WAT     H212277   3.335   4.510   3.213
 3920WAT      O12278   1.613   3.947   3.917
 3920WAT     H112279   1.548   3.921   3.852
 3920WAT     H212280   1.697   3.936   3.872
 3921WAT      O12281   3.364   4.181   3.978
 3921WAT     H112282   3.401   4.102   3.937
 3921WAT     H212283   3.428   4.249   3.960
 3922WAT      O12284   3.062   4.319   4.519
 3922WAT     H112285   2.981   4.362   4.546
 3922WAT     H212286   3.103   4.380   4.458
 3923WAT      O12287   3.268   4.124   3.209
 3923WAT     H112288   3.296   4.215   3.197
 3923WAT     H212289   3.250   4.118   3.303
 3924WAT      O12290   1.717   3.986   4.371
 3924WAT     H112291   1.754   3.977   4.459
 3924WAT     H212292   1.660   3.910   4.361
 3925WAT      O12293   3.197   3.833   4.672
 3925WAT     H112294   3.174   3.810   4.582
 3925WAT     H212295   3.223   3.925   4.668
 3926WAT      O12296   1.672   3.677   4.761
 3926WAT     H112297   1.583   3.674   4.795
 3926WAT     H212298   1.726   3.697   4.838
 3927WAT      O12299   3.041   3.355   4.950
 3927WAT     H112300   3.129   3.356   4.988
 3927WAT     H212301   3.042   3.282   4.889
 3928WAT      O12302   1.535   3.668   3.511
 3928WAT     H112303   1.444   3.695   3.494
 3928WAT     H212304   1.583   3.696   3.433
 3929WAT      O12305   1.789   3.574   3.302
 3929WAT     H112306   1.860   3.532   3.253
 3929WAT     H212307   1.717   3.581   3.239
 3930WAT      O12308   1.754   3.179   3.206
 3930WAT     H112309   1.826   3.234   3.238
 3930WAT     H212310   1.781   3.152   3.118
 3931WAT      O12311   3.112   3.124   4.532
 3931WAT     H112312   3.176   3.185   4.568
 3931WAT     H212313   3.127   3.128   4.437
 3932WAT      O12314   3.068   4.794   3.872
 3932WAT     H112315   3.127   4.762   3.804
 3932WAT     H212316   3.094   4.747   3.951
 3933WAT      O12317   1.698   3.120   4.470
 3933WAT     H112318   1.663   3.166   4.547
 3933WAT     H212319   1.665   3.031   4.479
 3934WAT      O12320   1.859   4.437   4.887
 3934WAT     H112321   1.854   4.400   4.975
 3934WAT     H212322   1.872   4.531   4.901
 3935WAT      O12323   2.229   4.593   4.447
 3935WAT     H112324   2.204   4.620   4.358
 3935WAT     H212325   2.323   4.610   4.453
 3936WAT      O12326   2.449   3.239   4.823
 3936WAT     H112327   2.443   3.298   4.898
 3936WAT     H212328   2.543   3.228   4.808
 3937WAT      O12329   2.713   3.205   4.787
 3937WAT     H112330   2.774   3.237   4.720
 3937WAT     H212331   2.767   3.156   4.849
 3938WAT      O12332   3.355   4.795   4.527
 3938WAT     H112333   3.305   4.835   4.455
 3938WAT     H212334   3.294   4.732   4.567
 3939WAT      O12335   1.765   3.073   4.798
 3939WAT     H112336   1.820   3.055   4.722
 3939WAT     H212337   1.772   2.994   4.852
 3940WAT      O12338   1.842   4.732   4.599
 3940WAT     H112339   1.783   4.719   4.673
 3940WAT     H212340   1.842   4.648   4.552
 3941WAT      O12341   2.787   3.061   4.419
 3941WAT     H112342   2.700   3.095   4.399
 3941WAT     H212343   2.776   3.014   4.502
 3942WAT      O12344   2.878   3.282   4.558
 3942WAT     H112345   2.845   3.200   4.520
 3942WAT     H212346   2.972   3.278   4.545
 3943WAT      O12347   3.123   4.859   4.255
 3943WAT     H112348   3.077   4.934   4.218
 3943WAT     H212349   3.060   4.787   4.249
 3944WAT      O12350   1.806   4.469   4.494
 3944WAT     H112351   1.733   4.407   4.487
 3944WAT     H212352   1.812   4.508   4.407
 3945WAT      O12353   2.166   4.690   4.173
 3945WAT     H112354   2.218   4.629   4.120
 3945WAT     H212355   2.231   4.740   4.222
 3946WAT      O12356   2.440   4.779   4.255
 3946WAT     H112357   2.469   4.754   4.168
 3946WAT     H212358   2.491   4.724   4.314
 3947WAT      O12359   2.562   3.153   4.313
 3947WAT     H112360   2.483   3.200   4.341
 3947WAT     H212361   2.532   3.062   4.302
 3948WAT      O12362   3.017   3.223   4.118
 3948WAT     H112363   3.061   3.218   4.033
 3948WAT     H212364   2.990   3.315   4.125
 3949WAT      O12365   1.634   4.800   3.815
 3949WAT     H112366   1.617   4.737   3.885
 3949WAT     H212367   1.547   4.821   3.780
 3950WAT      O12368   1.696   3.183   3.565
 3950WAT     H112369   1.772   3.195   3.508
 3950WAT     H212370   1.650   3.267   3.561
 3951WAT      O12371   1.794   4.670   3.559
 3951WAT     H112372   1.742   4.708   3.489
 3951WAT     H212373   1.787   4.732   3.632
 3952WAT      O12374   1.933   3.236   3.419
 3952WAT     H112375   1.986   3.157   3.406
 3952WAT     H212376   1.997   3.304   3.443
 3953WAT      O12377   2.447   4.871   4.992
 3953WAT     H112378   2.539   4.848   4.996
 3953WAT     H212379   2.445   4.954   4.944
 3954WAT      O12380   3.270   4.825   3.692
 3954WAT     H112381   3.288   4.757   3.627
 3954WAT     H212382   3.200   4.878   3.652
 3955WAT      O12383   2.165   3.138   4.968
 3955WAT     H112384   2.137   3.188   4.892
 3955WAT     H212385   2.203   3.058   4.932
 3956WAT      O12386   2.054   4.864   3.447
 3956WAT     H112387   2.128   4.836   3.392
 3956WAT     H212388   2.080   4.841   3.536
 3957WAT      O12389   1.971   4.476   3.447
 3957WAT     H112390   1.908   4.523   3.502
 3957WAT     H212391   1.982   4.392   3.491
 3958WAT      O12392   2.825   3.079   5.026
 3958WAT     H112393   2.814   3.111   5.116
 3958WAT     H212394   2.907   3.119   4.996
 3959WAT      O12395   3.103   4.794   4.974
 3959WAT     H112396   3.183   4.744   4.954
 3959WAT     H212397   3.133   4.862   5.035
 3960WAT      O12398   2.716   3.881   2.062
 3960WAT     H112399   2.708   3.790   2.035
 3960WAT     H212400   2.675   3.931   1.992
 3961WAT      O12401   2.529   4.059   2.251
 3961WAT     H112402   2.452   4.011   2.280
 3961WAT     H212403   2.594   3.991   2.233
 3962WAT      O12404   1.931   4.090   2.338
 3962WAT     H112405   1.848   4.065   2.378
 3962WAT     H212406   1.992   4.097   2.412
 3963WAT      O12407   2.931   4.500   2.129
 3963WAT     H112408   2.885   4.422   2.161
 3963WAT     H212409   3.013   4.502   2.179
 3964WAT      O12410   1.929   4.494   2.358
 3964WAT     H112411   1.959   4.404   2.340
 3964WAT     H212412   2.003   4.549   2.335
 3965WAT      O12413   1.772   3.586   1.717
 3965WAT     H112414   1.683   3.620   1.707
 3965WAT     H212415   1.800   3.566   1.628
 3966WAT      O12416   1.568   3.846   2.305
 3966WAT     H112417   1.625   3.769   2.305
 3966WAT     H212418   1.568   3.876   2.214
 3967WAT      O12419   2.554   4.728   2.091
 3967WAT     H112420   2.492   4.774   2.034
 3967WAT     H212421   2.639   4.744   2.050
 3968WAT      O12422   2.473   4.326   2.251
 3968WAT     H112423   2.466   4.232   2.235
 3968WAT     H212424   2.549   4.335   2.308
 3969WAT      O12425   1.989   3.444   1.820
 3969WAT     H112426   2.000   3.534   1.851
 3969WAT     H212427   1.898   3.440   1.791
 3970WAT      O12428   1.754   3.637   2.345
 3970WAT     H112429   1.822   3.663   2.407
 3970WAT     H212430   1.723   3.553   2.378
 3971WAT      O12431   2.173   3.741   2.253
 3971WAT     H112432   2.224   3.791   2.317
 3971WAT     H212433   2.227   3.664   2.236
 3972WAT      O12434   3.384   3.558   2.624
 3972WAT     H112435   3.313   3.597   2.572
 3972WAT     H212436   3.410   3.628   2.684
 3973WAT      O12437   2.641   4.216   1.830
 3973WAT     H112438   2.579   4.263   1.774
 3973WAT     H212439   2.692   4.286   1.872
 3974WAT      O12440   2.127   4.169   2.498
 3974WAT     H112441   2.094   4.232   2.562
 3974WAT     H212442   2.145   4.222   2.420
 3975WAT      O12443   2.048   4.366   2.679
 3975WAT     H112444   2.110   4.434   2.651
 3975WAT     H212445   1.962   4.407   2.670
 3976WAT      O12446   1.577   4.285   1.567
 3976WAT     H112447   1.540   4.334   1.494
 3976WAT     H212448   1.603   4.352   1.630
 3977WAT      O12449   3.140   4.512   2.471
 3977WAT     H112450   3.071   4.579   2.470
 3977WAT     H212451   3.194   4.532   2.394
 3978WAT      O12452   2.893   4.697   2.342
 3978WAT     H112453   2.895   4.657   2.255
 3978WAT     H212454   2.838   4.774   2.332
 3979WAT      O12455   3.023   4.369   1.851
 3979WAT     H112456   3.012   4.275   1.864
 3979WAT     H212457   3.023   4.405   1.940
 3980WAT      O12458   2.833   4.187   2.475
 3980WAT     H112459   2.875   4.166   2.392
 3980WAT     H212460   2.906   4.213   2.532
 3981WAT      O12461   2.577   3.932   1.787
 3981WAT     H112462   2.484   3.925   1.810
 3981WAT     H212463   2.592   4.026   1.775
 3982WAT      O12464   2.576   3.559   1.486
 3982WAT     H112465   2.482   3.575   1.495
 3982WAT     H212466   2.608   3.631   1.432
 3983WAT      O12467   3.228   4.027   2.484
 3983WAT     H112468   3.145   4.034   2.437
 3983WAT     H212469   3.287   4.086   2.437
 3984WAT      O12470   2.980   4.088   1.837
 3984WAT     H112471   2.918   4.054   1.772
 3984WAT     H212472   2.978   4.024   1.908
 3985WAT      O12473   2.924   3.706   2.579
 3985WAT     H112474   2.883   3.788   2.604
 3985WAT     H212475   2.851   3.647   2.560
 3986WAT      O12476   2.138   3.984   2.065
 3986WAT     H112477   2.097   3.913   2.015
 3986WAT     H212478   2.146   3.950   2.154
 3987WAT      O12479   2.184   4.353   2.281
 3987WAT     H112480   2.155   4.292   2.213
 3987WAT     H212481   2.279   4.357   2.270
 3988WAT      O12482   2.993   4.710   2.648
 3988WAT     H112483   2.946   4.791   2.628
 3988WAT     H212484   2.925   4.645   2.663
 3989WAT      O12485   2.094   4.327   2.946
 3989WAT     H112486   2.004   4.349   2.971
 3989WAT     H212487   2.096   4.339   2.852
 3990WAT      O12488   2.798   4.012   1.538
 3990WAT     H112489   2.842   3.928   1.523
 3990WAT     H212490   2.869   4.075   1.546
 3991WAT      O12491   1.976   4.014   2.804
 3991WAT     H112492   1.962   4.101   2.841
 3991WAT     H212493   1.888   3.980   2.789
 3992WAT      O12494   2.609   4.506   1.935
 3992WAT     H112495   2.653   4.580   1.893
 3992WAT     H212496   2.603   4.530   2.027
 3993WAT      O12497   2.156   4.608   3.025
 3993WAT     H112498   2.153   4.649   2.938
 3993WAT     H212499   2.140   4.515   3.009
 3994WAT      O12500   3.156   3.137   1.369
 3994WAT     H112501   3.125   3.146   1.459
 3994WAT     H212502   3.232   3.195   1.364
 3995WAT      O12503   1.808   3.874   1.815
 3995WAT     H112504   1.796   3.946   1.754
 3995WAT     H212505   1.777   3.797   1.767
 3996WAT      O12506   3.351   4.686   3.154
 3996WAT     H112507   3.399   4.734   3.222
 3996WAT     H212508   3.413   4.680   3.082
 3997WAT      O12509   1.572   4.191   2.396
 3997WAT     H112510   1.579   4.204   2.301
 3997WAT     H212511   1.633   4.120   2.415
 3998WAT      O12512   1.696   4.361   2.037
 3998WAT     H112513   1.655   4.375   1.951
 3998WAT     H212514   1.785   4.333   2.016
 3999WAT      O12515   3.292   4.406   2.870
 3999WAT     H112516   3.304   4.382   2.779
 3999WAT     H212517   3.296   4.322   2.918
 4000WAT      O12518   2.678   4.776   2.727
 4000WAT     H112519   2.729   4.767   2.808
 4000WAT     H212520   2.594   4.810   2.757
 4001WAT      O12521   2.875   4.804   1.670
 4001WAT     H112522   2.859   4.775   1.760
 4001WAT     H212523   2.859   4.727   1.617
 4002WAT      O12524   2.123   4.782   1.848
 4002WAT     H112525   2.106   4.691   1.827
 4002WAT     H212526   2.038   4.818   1.872
 4003WAT      O12527   2.846   4.555   1.526
 4003WAT     H112528   2.776   4.555   1.460
 4003WAT     H212529   2.920   4.513   1.483
 4004WAT      O12530   2.802   4.718   1.934
 4004WAT     H112531   2.848   4.640   1.965
 4004WAT     H212532   2.836   4.789   1.988
 4005WAT      O12533   1.577   4.295   2.650
 4005WAT     H112534   1.593   4.248   2.568
 4005WAT     H212535   1.624   4.244   2.716
 4006WAT      O12536   2.983   3.617   2.827
 4006WAT     H112537   2.898   3.587   2.859
 4006WAT     H212538   2.967   3.641   2.735
 4007WAT      O12539   2.693   3.767   3.037
 4007WAT     H112540   2.725   3.684   3.003
 4007WAT     H212541   2.771   3.819   3.051
 4008WAT      O12542   2.366   3.170   1.641
 4008WAT     H112543   2.303   3.170   1.714
 4008WAT     H212544   2.357   3.084   1.602
 4009WAT      O12545   2.033   3.720   1.926
 4009WAT     H112546   2.011   3.699   2.017
 4009WAT     H212547   1.955   3.764   1.892
 4010WAT      O12548   2.756   3.721   1.786
 4010WAT     H112549   2.697   3.793   1.768
 4010WAT     H212550   2.811   3.715   1.708
 4011WAT      O12551   2.277   3.810   2.993
 4011WAT     H112552   2.268   3.716   2.978
 4011WAT     H212553   2.362   3.832   2.953
 4012WAT      O12554   2.448   3.460   3.115
 4012WAT     H112555   2.379   3.441   3.178
 4012WAT     H212556   2.522   3.488   3.168
 4013WAT      O12557   1.521   3.244   2.211
 4013WAT     H112558   1.492   3.301   2.283
 4013WAT     H212559   1.595   3.196   2.248
 4014WAT      O12560   1.539   3.638   1.332
 4014WAT     H112561   1.531   3.732   1.346
 4014WAT     H212562   1.504   3.624   1.244
 4015WAT      O12563   2.676   3.844   2.399
 4015WAT     H112564   2.602   3.895   2.433
 4015WAT     H212565   2.636   3.762   2.368
 4016WAT      O12566   1.904   3.500   2.135
 4016WAT     H112567   1.870   3.547   2.211
 4016WAT     H212568   1.828   3.454   2.099
 4017WAT      O12569   2.326   3.611   1.538
 4017WAT     H112570   2.338   3.607   1.633
 4017WAT     H212571   2.287   3.698   1.523
 4018WAT      O12572   2.227   3.842   1.478
 4018WAT     H112573   2.170   3.798   1.415
 4018WAT     H212574   2.298   3.878   1.425
 4019WAT      O12575   1.735   4.233   2.866
 4019WAT     H112576   1.696   4.169   2.925
 4019WAT     H212577   1.766   4.303   2.923
 4020WAT      O12578   2.350   3.917   2.414
 4020WAT     H112579   2.386   3.870   2.488
 4020WAT     H212580   2.331   4.005   2.448
 4021WAT      O12581   1.636   3.392   2.027
 4021WAT     H112582   1.607   3.355   2.110
 4021WAT     H212583   1.630   3.319   1.965
 4022WAT      O12584   2.128   3.821   2.646
 4022WAT     H112585   2.098   3.909   2.668
 4022WAT     H212586   2.224   3.827   2.649
 4023WAT      O12587   1.981   4.242   1.705
 4023WAT     H112588   1.904   4.188   1.689
 4023WAT     H212589   2.054   4.190   1.671
 4024WAT      O12590   3.057   4.142   2.284
 4024WAT     H112591   3.129   4.191   2.245
 4024WAT     H212592   3.037   4.074   2.220
 4025WAT      O12593   2.595   4.149   2.873
 4025WAT     H112594   2.589   4.057   2.848
 4025WAT     H212595   2.532   4.159   2.945
 4026WAT      O12596   2.875   3.718   1.528
 4026WAT     H112597   2.964   3.749   1.511
 4026WAT     H212598   2.872   3.631   1.489
 4027WAT      O12599   1.986   4.209   2.069
 4027WAT     H112600   2.037   4.129   2.064
 4027WAT     H212601   1.941   4.203   2.153
 4028WAT      O12602   2.474   4.336   1.596
 4028WAT     H112603   2.509   4.410   1.547
 4028WAT     H212604   2.392   4.367   1.633
 4029WAT      O12605   1.734   3.905   2.760
 4029WAT     H112606   1.698   3.972   2.819
 4029WAT     H212607   1.705   3.822   2.797
 4030WAT      O12608   2.054   3.951   3.049
 4030WAT     H112609   2.024   3.966   2.959
 4030WAT     H212610   2.131   3.895   3.039
 4031WAT      O12611   2.589   4.431   2.848
 4031WAT     H112612   2.590   4.338   2.826
 4031WAT     H212613   2.518   4.440   2.912
 4032WAT      O12614   3.102   3.849   1.475
 4032WAT     H112615   3.094   3.893   1.390
 4032WAT     H212616   3.174   3.895   1.518
 4033WAT      O12617   3.210   4.095   2.783
 4033WAT     H112618   3.137   4.154   2.763
 4033WAT     H212619   3.262   4.094   2.703
 4034WAT      O12620   3.205   4.535   1.748
 4034WAT     H112621   3.141   4.469   1.775
 4034WAT     H212622   3.166   4.575   1.670
 4035WAT      O12623   2.763   4.268   2.133
 4035WAT     H112624   2.798   4.208   2.067
 4035WAT     H212625   2.674   4.235   2.150
 4036WAT      O12626   2.371   4.344   1.873
 4036WAT     H112627   2.440   4.398   1.912
 4036WAT     H212628   2.293   4.398   1.877
 4037WAT      O12629   1.585   3.905   1.423
 4037WAT     H112630   1.672   3.934   1.451
 4037WAT     H212631   1.536   3.987   1.411
 4038WAT      O12632   2.302   4.044   1.835
 4038WAT     H112633   2.347   4.125   1.857
 4038WAT     H212634   2.266   4.012   1.918
 4039WAT      O12635   2.532   4.595   2.558
 4039WAT     H112636   2.596   4.616   2.625
 4039WAT     H212637   2.568   4.519   2.512
 4040WAT      O12638   1.892   3.079   1.882
 4040WAT     H112639   1.879   3.078   1.977
 4040WAT     H212640   1.809   3.112   1.847
 4041WAT      O12641   2.659   4.396   2.429
 4041WAT     H112642   2.723   4.325   2.441
 4041WAT     H212643   2.712   4.473   2.411
 4042WAT      O12644   3.044   4.424   1.402
 4042WAT     H112645   3.021   4.352   1.461
 4042WAT     H212646   3.005   4.399   1.318
 4043WAT      O12647   2.837   4.475   2.750
 4043WAT     H112648   2.870   4.534   2.818
 4043WAT     H212649   2.745   4.462   2.773
 4044WAT      O12650   1.622   4.827   1.479
 4044WAT     H112651   1.658   4.887   1.414
 4044WAT     H212652   1.608   4.881   1.557
 4045WAT      O12653   3.002   4.216   1.568
 4045WAT     H112654   2.973   4.262   1.647
 4045WAT     H212655   3.081   4.170   1.595
 4046WAT      O12656   1.620   4.653   2.927
 4046WAT     H112657   1.631   4.559   2.913
 4046WAT     H212658   1.555   4.680   2.862
 4047WAT      O12659   2.419   4.480   3.067
 4047WAT     H112660   2.387   4.408   3.121
 4047WAT     H212661   2.352   4.548   3.074
 4048WAT      O12662   2.224   4.565   1.561
 4048WAT     H112663   2.223   4.638   1.499
 4048WAT     H212664   2.132   4.540   1.570
 4049WAT      O12665   1.784   4.087   1.635
 4049WAT     H112666   1.723   4.161   1.636
 4049WAT     H212667   1.831   4.096   1.553
 4050WAT      O12668   2.522   4.571   1.427
 4050WAT     H112669   2.532   4.551   1.334
 4050WAT     H212670   2.432   4.546   1.448
 4051WAT      O12671   2.274   3.627   1.825
 4051WAT     H112672   2.204   3.674   1.870
 4051WAT     H212673   2.303   3.561   1.889
 4052WAT      O12674   2.437   3.769   2.625
 4052WAT     H112675   2.487   3.816   2.692
 4052WAT     H212676   2.451   3.677   2.646
 4053WAT      O12677   2.386   4.823   1.897
 4053WAT     H112678   2.412   4.819   1.804
 4053WAT     H212679   2.292   4.810   1.896
 4054WAT      O12680   2.095   3.458   1.563
 4054WAT     H112681   2.180   3.502   1.556
 4054WAT     H212682   2.058   3.489   1.646
 4055WAT      O12683   3.158   3.391   2.710
 4055WAT     H112684   3.107   3.465   2.744
 4055WAT     H212685   3.239   3.430   2.678
 4056WAT      O12686   2.987   3.915   2.054
 4056WAT     H112687   2.893   3.917   2.072
 4056WAT     H212688   3.018   3.836   2.099
 4057WAT      O12689   1.985   4.083   1.410
 4057WAT     H112690   2.061   4.072   1.467
 4057WAT     H212691   1.992   4.014   1.345
 4058WAT      O12692   1.854   3.826   1.479
 4058WAT     H112693   1.862   3.732   1.490
 4058WAT     H212694   1.943   3.860   1.489
 4059WAT      O12695   3.187   4.632   2.222
 4059WAT     H112696   3.200   4.714   2.269
 4059WAT     H212697   3.274   4.611   2.187
 4060WAT      O12698   1.934   4.841   2.189
 4060WAT     H112699   2.008   4.787   2.216
 4060WAT     H212700   1.973   4.928   2.175
 4061WAT      O12701   1.623   4.448   1.776
 4061WAT     H112702   1.530   4.472   1.775
 4061WAT     H212703   1.669   4.531   1.764
 4062WAT      O12704   1.835   4.760   3.108
 4062WAT     H112705   1.915   4.792   3.149
 4062WAT     H212706   1.783   4.724   3.180
 4063WAT      O12707   2.245   4.759   1.371
 4063WAT     H112708   2.325   4.788   1.326
 4063WAT     H212709   2.193   4.716   1.303
 4064WAT      O12710   2.719   4.371   3.103
 4064WAT     H112711   2.658   4.373   3.029
 4064WAT     H212712   2.688   4.298   3.156
 4065WAT      O12713   2.862   4.744   2.964
 4065WAT     H112714   2.957   4.735   2.959
 4065WAT     H212715   2.847   4.810   3.031
 4066WAT      O12716   3.151   4.681   1.514
 4066WAT     H112717   3.122   4.640   1.432
 4066WAT     H212718   3.131   4.774   1.502
 4067WAT      O12719   1.607   4.009   3.002
 4067WAT     H112720   1.657   3.951   3.059
 4067WAT     H212721   1.533   4.037   3.056
 4068WAT      O12722   2.297   4.281   1.358
 4068WAT     H112723   2.287   4.219   1.430
 4068WAT     H212724   2.280   4.228   1.279
 4069WAT      O12725   2.312   4.149   2.956
 4069WAT     H112726   2.236   4.206   2.947
 4069WAT     H212727   2.330   4.120   2.866
 4070WAT      O12728   2.621   4.187   1.418
 4070WAT     H112729   2.566   4.232   1.483
 4070WAT     H212730   2.683   4.136   1.470
 4071WAT      O12731   3.027   4.322   3.011
 4071WAT     H112732   3.101   4.356   2.961
 4071WAT     H212733   2.950   4.339   2.956
 4072WAT      O12734   1.810   3.823   3.092
 4072WAT     H112735   1.814   3.793   3.183
 4072WAT     H212736   1.896   3.863   3.076
 4073WAT      O12737   2.188   4.083   1.608
 4073WAT     H112738   2.230   4.066   1.692
 4073WAT     H212739   2.200   4.002   1.558
 4074WAT      O12740   2.439   3.985   1.333
 4074WAT     H112741   2.491   3.914   1.296
 4074WAT     H212742   2.504   4.049   1.363
 4075WAT      O12743   2.894   4.128   2.865
 4075WAT     H112744   2.935   4.143   2.950
 4075WAT     H212745   2.800   4.140   2.881
 4076WAT      O12746   2.941   3.862   3.065
 4076WAT     H112747   2.999   3.786   3.056
 4076WAT     H212748   2.959   3.915   2.988
 4077WAT      O12749   2.370   4.123   2.662
 4077WAT     H112750   2.412   4.207   2.645
 4077WAT     H212751   2.278   4.136   2.639
 4078WAT      O12752   2.604   3.896   2.800
 4078WAT     H112753   2.616   3.836   2.874
 4078WAT     H212754   2.690   3.900   2.758
 4079WAT      O12755   2.838   3.951   2.658
 4079WAT     H112756   2.785   4.004   2.597
 4079WAT     H212757   2.872   4.015   2.721
 4080WAT      O12758   2.078   3.690   1.302
 4080WAT     H112759   2.057   3.604   1.338
 4080WAT     H212760   2.060   3.682   1.209
 4081WAT      O12761   2.155   4.753   2.773
 4081WAT     H112762   2.101   4.826   2.741
 4081WAT     H212763   2.181   4.706   2.694
 4082WAT      O12764   2.280   3.550   2.926
 4082WAT     H112765   2.339   3.519   2.995
 4082WAT     H212766   2.199   3.503   2.942
 4083WAT      O12767   2.762   3.512   2.949
 4083WAT     H112768   2.694   3.446   2.943
 4083WAT     H212769   2.834   3.467   2.994
 4084WAT      O12770   2.825   3.171   1.555
 4084WAT     H112771   2.853   3.087   1.591
 4084WAT     H212772   2.748   3.195   1.607
 4085WAT      O12773   1.957   3.400   1.301
 4085WAT     H112774   1.988   3.401   1.210
 4085WAT     H212775   2.031   3.365   1.351
 4086WAT      O12776   2.441   4.877   2.799
 4086WAT     H112777   2.433   4.967   2.830
 4086WAT     H212778   2.351   4.845   2.796
 4087WAT      O12779   2.279   3.295   1.400
 4087WAT     H112780   2.244   3.227   1.342
 4087WAT     H212781   2.299   3.248   1.481
 4088WAT      O12782   2.496   4.793   1.562
 4088WAT     H112783   2.585   4.827   1.564
 4088WAT     H212784   2.499   4.721   1.499
 4089WAT      O12785   1.860   4.331   1.384
 4089WAT     H112786   1.903   4.385   1.450
 4089WAT     H212787   1.908   4.248   1.385
 4090WAT      O12788   1.581   4.610   2.130
 4090WAT     H112789   1.614   4.523   2.106
 4090WAT     H212790   1.624   4.630   2.213
 4091WAT      O12791   2.041   4.443   1.896
 4091WAT     H112792   2.011   4.430   1.986
 4091WAT     H212793   2.030   4.357   1.855
 4092WAT      O12794   1.630   4.696   2.403
 4092WAT     H112795   1.586   4.714   2.487
 4092WAT     H212796   1.687   4.772   2.389
 4093WAT      O12797   3.194   4.646   2.832
 4093WAT     H112798   3.134   4.652   2.758
 4093WAT     H212799   3.207   4.552   2.845
 4094WAT      O12800   3.318   4.421   1.366
 4094WAT     H112801   3.235   4.427   1.413
 4094WAT     H212802   3.335   4.510   1.336
 4095WAT      O12803   3.263   4.095   1.616
 4095WAT     H112804   3.339   4.152   1.627
 4095WAT     H212805   3.265   4.038   1.693
 4096WAT      O12806   1.613   3.947   2.039
 4096WAT     H112807   1.548   3.921   1.975
 4096WAT     H212808   1.697   3.936   1.994
 4097WAT      O12809   3.364   4.181   2.101
 4097WAT     H112810   3.401   4.102   2.060
 4097WAT     H212811   3.428   4.249   2.083
 4098WAT      O12812   3.062   4.319   2.642
 4098WAT     H112813   2.981   4.362   2.668
 4098WAT     H212814   3.103   4.380   2.581
 4099WAT      O12815   3.268   4.124   1.332
 4099WAT     H112816   3.296   4.215   1.319
 4099WAT     H212817   3.250   4.118   1.426
 4100WAT      O12818   2.908   3.427   1.461
 4100WAT     H112819   2.950   3.408   1.377
 4100WAT     H212820   2.878   3.342   1.493
 4101WAT      O12821   3.258   3.918   1.831
 4101WAT     H112822   3.220   3.841   1.788
 4101WAT     H212823   3.185   3.956   1.880
 4102WAT      O12824   1.717   3.986   2.493
 4102WAT     H112825   1.754   3.977   2.581
 4102WAT     H212826   1.660   3.910   2.483
 4103WAT      O12827   3.197   3.833   2.795
 4103WAT     H112828   3.174   3.810   2.705
 4103WAT     H212829   3.223   3.925   2.790
 4104WAT      O12830   1.672   3.677   2.884
 4104WAT     H112831   1.583   3.674   2.918
 4104WAT     H212832   1.726   3.697   2.960
 4105WAT      O12833   1.535   3.668   1.634
 4105WAT     H112834   1.444   3.695   1.616
 4105WAT     H212835   1.583   3.696   1.556
 4106WAT      O12836   3.186   3.741   2.161
 4106WAT     H112837   3.238   3.691   2.098
 4106WAT     H212838   3.244   3.754   2.236
 4107WAT      O12839   3.203   3.749   2.514
 4107WAT     H112840   3.108   3.746   2.525
 4107WAT     H212841   3.222   3.840   2.490
 4108WAT      O12842   1.789   3.574   1.424
 4108WAT     H112843   1.860   3.532   1.376
 4108WAT     H212844   1.717   3.581   1.361
 4109WAT      O12845   1.754   3.179   1.329
 4109WAT     H112846   1.826   3.234   1.360
 4109WAT     H212847   1.781   3.152   1.241
 4110WAT      O12848   1.723   3.105   2.319
 4110WAT     H112849   1.787   3.050   2.275
 4110WAT     H212850   1.765   3.130   2.401
 4111WAT      O12851   3.366   3.313   1.333
 4111WAT     H112852   3.459   3.300   1.312
 4111WAT     H212853   3.364   3.321   1.428
 4112WAT      O12854   3.374   3.390   1.595
 4112WAT     H112855   3.294   3.384   1.648
 4112WAT     H212856   3.394   3.484   1.594
 4113WAT      O12857   3.068   4.794   1.995
 4113WAT     H112858   3.127   4.762   1.927
 4113WAT     H212859   3.094   4.747   2.074
 4114WAT      O12860   1.859   4.437   3.010
 4114WAT     H112861   1.854   4.400   3.098
 4114WAT     H212862   1.872   4.531   3.024
 4115WAT      O12863   2.229   4.593   2.570
 4115WAT     H112864   2.204   4.620   2.481
 4115WAT     H212865   2.323   4.610   2.575
 4116WAT      O12866   3.355   4.795   2.650
 4116WAT     H112867   3.305   4.835   2.578
 4116WAT     H212868   3.294   4.732   2.689
 4117WAT      O12869   1.842   4.732   2.722
 4117WAT     H112870   1.783   4.719   2.795
 4117WAT     H212871   1.842   4.648   2.675
 4118WAT      O12872   3.123   4.859   2.378
 4118WAT     H112873   3.077   4.934   2.340
 4118WAT     H212874   3.060   4.787   2.372
 4119WAT      O12875   1.806   4.469   2.617
 4119WAT     H112876   1.733   4.407   2.610
 4119WAT     H212877   1.812   4.508   2.530
 4120WAT      O12878   2.166   4.690   2.295
 4120WAT     H112879   2.218   4.629   2.243
 4120WAT     H212880   2.231   4.740   2.344
 4121WAT      O12881   2.440   4.779   2.378
 4121WAT     H112882   2.469   4.754   2.290
 4121WAT     H212883   2.491   4.724   2.437
 4122WAT      O12884   1.634   4.800   1.938
 4122WAT     H112885   1.617   4.737   2.007
 4122WAT     H212886   1.547   4.821   1.902
 4123WAT      O12887   1.696   3.183   1.688
 4123WAT     H112888   1.772   3.195   1.631
 4123WAT     H212889   1.650   3.267   1.683
 4124WAT      O12890   2.350   3.395   1.987
 4124WAT     H112891   2.269   3.357   1.953
 4124WAT     H212892   2.401   3.319   2.017
 4125WAT      O12893   1.794   4.670   1.682
 4125WAT     H112894   1.742   4.708   1.612
 4125WAT     H212895   1.787   4.732   1.754
 4126WAT      O12896   1.933   3.236   1.542
 4126WAT     H112897   1.986   3.157   1.529
 4126WAT     H212898   1.997   3.304   1.565
 4127WAT      O12899   2.153   3.210   1.847
 4127WAT     H112900   2.090   3.140   1.864
 4127WAT     H212901   2.099   3.286   1.826
 4128WAT      O12902   2.447   4.871   3.114
 4128WAT     H112903   2.539   4.848   3.119
 4128WAT     H212904   2.445   4.954   3.066
 4129WAT      O12905   3.270   4.825   1.814
 4129WAT     H112906   3.288   4.757   1.750
 4129WAT     H212907   3.200   4.878   1.775
 4130WAT      O12908   2.054   4.864   1.570
 4130WAT     H112909   2.128   4.836   1.515
 4130WAT     H212910   2.080   4.841   1.659
 4131WAT      O12911   1.971   4.476   1.570
 4131WAT     H112912   1.908   4.523   1.625
 4131WAT     H212913   1.982   4.392   1.613
 4132WAT      O12914   3.103   4.794   3.097
 4132WAT     H112915   3.183   4.744   3.076
 4132WAT     H212916   3.133   4.862   3.158
 4133WAT      O12917   2.529   4.059   0.373
 4133WAT     H112918   2.452   4.011   0.402
 4133WAT     H212919   2.594   3.991   0.356
 4134WAT      O12920   1.931   4.090   0.461
 4134WAT     H112921   1.848   4.065   0.501
 4134WAT     H212922   1.992   4.097   0.534
 4135WAT      O12923   2.931   4.500   0.251
 4135WAT     H112924   2.885   4.422   0.284
 4135WAT     H212925   3.013   4.502   0.302
 4136WAT      O12926   1.929   4.494   0.480
 4136WAT     H112927   1.959   4.404   0.463
 4136WAT     H212928   2.003   4.549   0.458
 4137WAT      O12929   1.568   3.846   0.428
 4137WAT     H112930   1.625   3.769   0.428
 4137WAT     H212931   1.568   3.876   0.337
 4138WAT      O12932   2.473   4.326   0.374
 4138WAT     H112933   2.466   4.232   0.358
 4138WAT     H212934   2.549   4.335   0.431
 4139WAT      O12935   1.692   3.387   0.606
 4139WAT     H112936   1.674   3.297   0.634
 4139WAT     H212937   1.652   3.442   0.674
 4140WAT      O12938   2.576   3.607   0.397
 4140WAT     H112939   2.614   3.520   0.385
 4140WAT     H212940   2.567   3.641   0.307
 4141WAT      O12941   1.754   3.637   0.467
 4141WAT     H112942   1.822   3.663   0.529
 4141WAT     H212943   1.723   3.553   0.501
 4142WAT      O12944   2.173   3.741   0.376
 4142WAT     H112945   2.224   3.791   0.440
 4142WAT     H212946   2.227   3.664   0.358
 4143WAT      O12947   3.384   3.558   0.746
 4143WAT     H112948   3.313   3.597   0.694
 4143WAT     H212949   3.410   3.628   0.806
 4144WAT      O12950   2.002   3.205   0.803
 4144WAT     H112951   2.002   3.257   0.722
 4144WAT     H212952   1.919   3.158   0.800
 4145WAT      O12953   2.127   4.169   0.620
 4145WAT     H112954   2.094   4.232   0.685
 4145WAT     H212955   2.145   4.222   0.542
 4146WAT      O12956   2.978   3.551   0.367
 4146WAT     H112957   2.908   3.580   0.425
 4146WAT     H212958   3.014   3.632   0.331
 4147WAT      O12959   1.970   3.376   0.603
 4147WAT     H112960   2.004   3.461   0.574
 4147WAT     H212961   1.876   3.391   0.615
 4148WAT      O12962   2.048   4.366   0.802
 4148WAT     H112963   2.110   4.434   0.774
 4148WAT     H212964   1.962   4.407   0.793
 4149WAT      O12965   3.140   4.512   0.593
 4149WAT     H112966   3.071   4.579   0.593
 4149WAT     H212967   3.194   4.532   0.517
 4150WAT      O12968   3.285   3.495   0.406
 4150WAT     H112969   3.190   3.499   0.419
 4150WAT     H212970   3.318   3.577   0.445
 4151WAT      O12971   2.893   4.697   0.465
 4151WAT     H112972   2.895   4.657   0.378
 4151WAT     H212973   2.838   4.774   0.454
 4152WAT      O12974   2.833   4.187   0.598
 4152WAT     H112975   2.875   4.166   0.514
 4152WAT     H212976   2.906   4.213   0.655
 4153WAT      O12977   3.228   4.027   0.607
 4153WAT     H112978   3.145   4.034   0.559
 4153WAT     H212979   3.287   4.086   0.560
 4154WAT      O12980   2.924   3.706   0.701
 4154WAT     H112981   2.883   3.788   0.727
 4154WAT     H212982   2.851   3.647   0.682
 4155WAT      O12983   2.184   4.353   0.404
 4155WAT     H112984   2.155   4.292   0.336
 4155WAT     H212985   2.279   4.357   0.393
 4156WAT      O12986   2.009   3.662   0.566
 4156WAT     H112987   2.064   3.673   0.488
 4156WAT     H212988   2.060   3.699   0.637
 4157WAT      O12989   2.993   4.710   0.770
 4157WAT     H112990   2.946   4.791   0.751
 4157WAT     H212991   2.925   4.645   0.785
 4158WAT      O12992   2.094   4.327   1.069
 4158WAT     H112993   2.004   4.349   1.094
 4158WAT     H212994   2.096   4.339   0.974
 4159WAT      O12995   1.976   4.014   0.927
 4159WAT     H112996   1.962   4.101   0.963
 4159WAT     H212997   1.888   3.980   0.912
 4160WAT      O12998   2.156   4.608   1.147
 4160WAT     H112999   2.153   4.649   1.061
 4160WAT     H213000   2.140   4.515   1.131
 4161WAT      O13001   3.351   4.686   1.277
 4161WAT     H113002   3.399   4.734   1.345
 4161WAT     H213003   3.413   4.680   1.205
 4162WAT      O13004   1.572   4.191   0.518
 4162WAT     H113005   1.579   4.204   0.424
 4162WAT     H213006   1.633   4.120   0.538
 4163WAT      O13007   3.292   4.406   0.993
 4163WAT     H113008   3.304   4.382   0.901
 4163WAT     H213009   3.296   4.322   1.040
 4164WAT      O13010   2.678   4.776   0.850
 4164WAT     H113011   2.729   4.767   0.930
 4164WAT     H213012   2.594   4.810   0.879
 4165WAT      O13013   3.277   3.611   1.090
 4165WAT     H113014   3.215   3.662   1.037
 4165WAT     H213015   3.245   3.521   1.084
 4166WAT      O13016   1.577   4.295   0.772
 4166WAT     H113017   1.593   4.248   0.690
 4166WAT     H213018   1.624   4.244   0.839
 4167WAT      O13019   2.054   3.208   0.276
 4167WAT     H113020   2.010   3.286   0.243
 4167WAT     H213021   2.110   3.240   0.347
 4168WAT      O13022   2.483   3.495   0.836
 4168WAT     H113023   2.437   3.516   0.917
 4168WAT     H213024   2.443   3.413   0.806
 4169WAT      O13025   2.983   3.617   0.949
 4169WAT     H113026   2.898   3.587   0.981
 4169WAT     H213027   2.967   3.641   0.858
 4170WAT      O13028   2.693   3.767   1.159
 4170WAT     H113029   2.725   3.684   1.125
 4170WAT     H213030   2.771   3.819   1.174
 4171WAT      O13031   2.258   3.263   0.462
 4171WAT     H113032   2.288   3.353   0.454
 4171WAT     H213033   2.313   3.214   0.400
 4172WAT      O13034   2.277   3.810   1.115
 4172WAT     H113035   2.268   3.716   1.100
 4172WAT     H213036   2.362   3.832   1.076
 4173WAT      O13037   1.791   3.451   0.931
 4173WAT     H113038   1.751   3.536   0.951
 4173WAT     H213039   1.722   3.388   0.950
 4174WAT      O13040   2.448   3.460   1.238
 4174WAT     H113041   2.379   3.441   1.301
 4174WAT     H213042   2.522   3.488   1.291
 4175WAT      O13043   1.521   3.244   0.334
 4175WAT     H113044   1.492   3.301   0.405
 4175WAT     H213045   1.595   3.196   0.370
 4176WAT      O13046   2.676   3.844   0.521
 4176WAT     H113047   2.602   3.895   0.556
 4176WAT     H213048   2.636   3.762   0.491
 4177WAT      O13049   2.319   3.511   0.362
 4177WAT     H113050   2.320   3.467   0.277
 4177WAT     H213051   2.409   3.544   0.372
 4178WAT      O13052   1.904   3.500   0.258
 4178WAT     H113053   1.870   3.547   0.333
 4178WAT     H213054   1.828   3.454   0.222
 4179WAT      O13055   2.722   3.389   0.462
 4179WAT     H113056   2.724   3.434   0.547
 4179WAT     H213057   2.697   3.299   0.484
 4180WAT      O13058   3.065   3.130   1.046
 4180WAT     H113059   3.097   3.057   1.099
 4180WAT     H213060   3.068   3.099   0.956
 4181WAT      O13061   1.735   4.233   0.988
 4181WAT     H113062   1.696   4.169   1.048
 4181WAT     H213063   1.766   4.303   1.045
 4182WAT      O13064   2.350   3.917   0.536
 4182WAT     H113065   2.386   3.870   0.611
 4182WAT     H213066   2.331   4.005   0.570
 4183WAT      O13067   2.128   3.821   0.768
 4183WAT     H113068   2.098   3.909   0.791
 4183WAT     H213069   2.224   3.827   0.772
 4184WAT      O13070   3.057   4.142   0.407
 4184WAT     H113071   3.129   4.191   0.368
 4184WAT     H213072   3.037   4.074   0.343
 4185WAT      O13073   2.595   4.149   0.996
 4185WAT     H113074   2.589   4.057   0.970
 4185WAT     H213075   2.532   4.159   1.067
 4186WAT      O13076   1.986   4.209   0.192
 4186WAT     H113077   2.037   4.129   0.186
 4186WAT     H213078   1.941   4.203   0.276
 4187WAT      O13079   1.734   3.905   0.883
 4187WAT     H113080   1.698   3.972   0.942
 4187WAT     H213081   1.705   3.822   0.920
 4188WAT      O13082   2.054   3.951   1.171
 4188WAT     H113083   2.024   3.966   1.081
 4188WAT     H213084   2.131   3.895   1.162
 4189WAT      O13085   2.589   4.431   0.971
 4189WAT     H113086   2.590   4.338   0.949
 4189WAT     H213087   2.518   4.440   1.035
 4190WAT      O13088   3.210   4.095   0.905
 4190WAT     H113089   3.137   4.154   0.886
 4190WAT     H213090   3.262   4.094   0.826
 4191WAT      O13091   2.763   4.268   0.255
 4191WAT     H113092   2.798   4.208   0.189
 4191WAT     H213093   2.674   4.235   0.272
 4192WAT      O13094   2.532   4.595   0.680
 4192WAT     H113095   2.596   4.616   0.748
 4192WAT     H213096   2.568   4.519   0.635
 4193WAT      O13097   2.659   4.396   0.552
 4193WAT     H113098   2.723   4.325   0.563
 4193WAT     H213099   2.712   4.473   0.534
 4194WAT      O13100   2.837   4.475   0.872
 4194WAT     H113101   2.870   4.534   0.940
 4194WAT     H213102   2.745   4.462   0.895
 4195WAT      O13103   1.592   3.254   0.951
 4195WAT     H113104   1.520   3.274   1.011
 4195WAT     H213105   1.634   3.177   0.988
 4196WAT      O13106   1.620   4.653   1.049
 4196WAT     H113107   1.631   4.559   1.035
 4196WAT     H213108   1.555   4.680   0.984
 4197WAT      O13109   2.419   4.480   1.189
 4197WAT     H113110   2.387   4.408   1.244
 4197WAT     H213111   2.352   4.548   1.197
 4198WAT      O13112   2.741   3.504   0.726
 4198WAT     H113113   2.778   3.422   0.758
 4198WAT     H213114   2.655   3.510   0.767
 4199WAT      O13115   2.437   3.769   0.748
 4199WAT     H113116   2.487   3.816   0.814
 4199WAT     H213117   2.451   3.677   0.769
 4200WAT      O13118   3.158   3.391   0.832
 4200WAT     H113119   3.107   3.465   0.866
 4200WAT     H213120   3.239   3.430   0.801
 4201WAT      O13121   2.987   3.915   0.177
 4201WAT     H113122   2.893   3.917   0.194
 4201WAT     H213123   3.018   3.836   0.221
 4202WAT      O13124   3.187   4.632   0.344
 4202WAT     H113125   3.200   4.714   0.392
 4202WAT     H213126   3.274   4.611   0.310
 4203WAT      O13127   1.934   4.841   0.312
 4203WAT     H113128   2.008   4.787   0.339
 4203WAT     H213129   1.973   4.928   0.298
 4204WAT      O13130   1.835   4.760   1.230
 4204WAT     H113131   1.915   4.792   1.272
 4204WAT     H213132   1.783   4.724   1.303
 4205WAT      O13133   2.719   4.371   1.225
 4205WAT     H113134   2.658   4.373   1.151
 4205WAT     H213135   2.688   4.298   1.279
 4206WAT      O13136   2.862   4.744   1.086
 4206WAT     H113137   2.957   4.735   1.081
 4206WAT     H213138   2.847   4.810   1.154
 4207WAT      O13139   1.607   4.009   1.125
 4207WAT     H113140   1.657   3.951   1.182
 4207WAT     H213141   1.533   4.037   1.179
 4208WAT      O13142   2.312   4.149   1.078
 4208WAT     H113143   2.236   4.206   1.070
 4208WAT     H213144   2.330   4.120   0.989
 4209WAT      O13145   3.027   4.322   1.134
 4209WAT     H113146   3.101   4.356   1.084
 4209WAT     H213147   2.950   4.339   1.079
 4210WAT      O13148   1.810   3.823   1.214
 4210WAT     H113149   1.814   3.793   1.305
 4210WAT     H213150   1.896   3.863   1.198
 4211WAT      O13151   2.004   3.681   1.011
 4211WAT     H113152   1.951   3.632   0.948
 4211WAT     H213153   2.071   3.724   0.958
 4212WAT      O13154   2.894   4.128   0.987
 4212WAT     H113155   2.935   4.143   1.072
 4212WAT     H213156   2.800   4.140   1.004
 4213WAT      O13157   2.941   3.862   1.188
 4213WAT     H113158   2.999   3.786   1.179
 4213WAT     H213159   2.959   3.915   1.110
 4214WAT      O13160   2.053   3.377   1.019
 4214WAT     H113161   2.043   3.316   0.946
 4214WAT     H213162   1.995   3.450   0.996
 4215WAT      O13163   2.330   3.233   0.722
 4215WAT     H113164   2.285   3.235   0.638
 4215WAT     H213165   2.266   3.193   0.782
 4216WAT      O13166   2.370   4.123   0.784
 4216WAT     H113167   2.412   4.207   0.767
 4216WAT     H213168   2.278   4.136   0.761
 4217WAT      O13169   2.604   3.896   0.923
 4217WAT     H113170   2.616   3.836   0.997
 4217WAT     H213171   2.690   3.900   0.881
 4218WAT      O13172   2.838   3.951   0.780
 4218WAT     H113173   2.785   4.004   0.720
 4218WAT     H213174   2.872   4.015   0.843
 4219WAT      O13175   2.155   4.753   0.896
 4219WAT     H113176   2.101   4.826   0.864
 4219WAT     H213177   2.181   4.706   0.817
 4220WAT      O13178   2.280   3.550   1.049
 4220WAT     H113179   2.339   3.519   1.117
 4220WAT     H213180   2.199   3.503   1.064
 4221WAT      O13181   2.762   3.512   1.072
 4221WAT     H113182   2.694   3.446   1.065
 4221WAT     H213183   2.834   3.467   1.116
 4222WAT      O13184   2.441   4.877   0.922
 4222WAT     H113185   2.433   4.967   0.953
 4222WAT     H213186   2.351   4.845   0.919
 4223WAT      O13187   1.581   4.610   0.252
 4223WAT     H113188   1.614   4.523   0.229
 4223WAT     H213189   1.624   4.630   0.335
 4224WAT      O13190   1.630   4.696   0.526
 4224WAT     H113191   1.586   4.714   0.609
 4224WAT     H213192   1.687   4.772   0.512
 4225WAT      O13193   3.194   4.646   0.955
 4225WAT     H113194   3.134   4.652   0.880
 4225WAT     H213195   3.207   4.552   0.968
 4226WAT      O13196   3.364   4.181   0.223
 4226WAT     H113197   3.401   4.102   0.183
 4226WAT     H213198   3.428   4.249   0.205
 4227WAT      O13199   3.062   4.319   0.765
 4227WAT     H113200   2.981   4.362   0.791
 4227WAT     H213201   3.103   4.380   0.703
 4228WAT      O13202   1.717   3.986   0.616
 4228WAT     H113203   1.754   3.977   0.704
 4228WAT     H213204   1.660   3.910   0.606
 4229WAT      O13205   3.197   3.833   0.917
 4229WAT     H113206   3.174   3.810   0.827
 4229WAT     H213207   3.223   3.925   0.913
 4230WAT      O13208   1.672   3.677   1.006
 4230WAT     H113209   1.583   3.674   1.040
 4230WAT     H213210   1.726   3.697   1.083
 4231WAT      O13211   3.041   3.355   1.195
 4231WAT     H113212   3.129   3.356   1.233
 4231WAT     H213213   3.042   3.282   1.134
 4232WAT      O13214   3.186   3.741   0.284
 4232WAT     H113215   3.238   3.691   0.221
 4232WAT     H213216   3.244   3.754   0.358
 4233WAT      O13217   3.203   3.749   0.636
 4233WAT     H113218   3.108   3.746   0.648
 4233WAT     H213219   3.222   3.840   0.613
 4234WAT      O13220   1.723   3.105   0.441
 4234WAT     H113221   1.787   3.050   0.397
 4234WAT     H213222   1.765   3.130   0.523
 4235WAT      O13223   3.112   3.124   0.777
 4235WAT     H113224   3.176   3.185   0.814
 4235WAT     H213225   3.127   3.128   0.683
 4236WAT      O13226   1.698   3.120   0.716
 4236WAT     H113227   1.663   3.166   0.792
 4236WAT     H213228   1.665   3.031   0.724
 4237WAT      O13229   1.859   4.437   1.132
 4237WAT     H113230   1.854   4.400   1.220
 4237WAT     H213231   1.872   4.531   1.146
 4238WAT      O13232   2.229   4.593   0.692
 4238WAT     H113233   2.204   4.620   0.603
 4238WAT     H213234   2.323   4.610   0.698
 4239WAT      O13235   2.449   3.239   1.068
 4239WAT     H113236   2.443   3.298   1.143
 4239WAT     H213237   2.543   3.228   1.053
 4240WAT      O13238   2.713   3.205   1.032
 4240WAT     H113239   2.774   3.237   0.965
 4240WAT     H213240   2.767   3.156   1.094
 4241WAT      O13241   3.355   4.795   0.772
 4241WAT     H113242   3.305   4.835   0.701
 4241WAT     H213243   3.294   4.732   0.812
 4242WAT      O13244   1.765   3.073   1.043
 4242WAT     H113245   1.820   3.055   0.967
 4242WAT     H213246   1.772   2.994   1.097
 4243WAT      O13247   1.842   4.732   0.844
 4243WAT     H113248   1.783   4.719   0.918
 4243WAT     H213249   1.842   4.648   0.797
 4244WAT      O13250   2.787   3.061   0.664
 4244WAT     H113251   2.700   3.095   0.644
 4244WAT     H213252   2.776   3.014   0.747
 4245WAT      O13253   2.878   3.282   0.803
 4245WAT     H113254   2.845   3.200   0.765
 4245WAT     H213255   2.972   3.278   0.790
 4246WAT      O13256   3.123   4.859   0.500
 4246WAT     H113257   3.077   4.934   0.463
 4246WAT     H213258   3.060   4.787   0.494
 4247WAT      O13259   1.806   4.469   0.739
 4247WAT     H113260   1.733   4.407   0.732
 4247WAT     H213261   1.812   4.508   0.652
 4248WAT      O13262   2.166   4.690   0.418
 4248WAT     H113263   2.218   4.629   0.365
 4248WAT     H213264   2.231   4.740   0.467
 4249WAT      O13265   2.440   4.779   0.500
 4249WAT     H113266   2.469   4.754   0.413
 4249WAT     H213267   2.491   4.724   0.559
 4250WAT      O13268   2.562   3.153   0.558
 4250WAT     H113269   2.483   3.200   0.586
 4250WAT     H213270   2.532   3.062   0.547
 4251WAT      O13271   3.017   3.223   0.363
 4251WAT     H113272   3.061   3.218   0.278
 4251WAT     H213273   2.990   3.315   0.370
 4252WAT      O13274   2.800   3.061   0.233
 4252WAT     H113275   2.861   3.118   0.281
 4252WAT     H213276   2.726   3.118   0.211
 4253WAT      O13277   2.447   4.871   1.237
 4253WAT     H113278   2.539   4.848   1.241
 4253WAT     H213279   2.445   4.954   1.189
 4254WAT      O13280   2.165   3.138   1.213
 4254WAT     H113281   2.137   3.188   1.137
 4254WAT     H213282   2.203   3.058   1.177
 4255WAT      O13283   2.825   3.079   1.271
 4255WAT     H113284   2.814   3.111   1.361
 4255WAT     H213285   2.907   3.119   1.242
 4256WAT      O13286   3.103   4.794   1.219
 4256WAT     H113287   3.183   4.744   1.199
 4256WAT     H213288   3.133   4.862   1.280
 4257WAT      O13289   2.716   2.004   5.817
 4257WAT     H113290   2.708   1.912   5.790
 4257WAT     H213291   2.675   2.053   5.747
 4258WAT      O13292   2.529   2.181   6.005
 4258WAT     H113293   2.452   2.133   6.034
 4258WAT     H213294   2.594   2.114   5.988
 4259WAT      O13295   2.931   2.622   5.883
 4259WAT     H113296   2.885   2.545   5.916
 4259WAT     H213297   3.013   2.625   5.934
 4260WAT      O13298   1.929   2.616   6.113
 4260WAT     H113299   1.959   2.527   6.095
 4260WAT     H213300   2.003   2.672   6.090
 4261WAT      O13301   1.772   1.709   5.472
 4261WAT     H113302   1.683   1.743   5.461
 4261WAT     H213303   1.800   1.689   5.382
 4262WAT      O13304   1.568   1.969   6.060
 4262WAT     H113305   1.625   1.892   6.060
 4262WAT     H213306   1.568   1.999   5.969
 4263WAT      O13307   2.554   2.851   5.845
 4263WAT     H113308   2.492   2.896   5.788
 4263WAT     H213309   2.639   2.866   5.805
 4264WAT      O13310   2.473   2.449   6.006
 4264WAT     H113311   2.466   2.355   5.990
 4264WAT     H213312   2.549   2.458   6.063
 4265WAT      O13313   2.576   1.730   6.029
 4265WAT     H113314   2.614   1.642   6.018
 4265WAT     H213315   2.567   1.763   5.940
 4266WAT      O13316   1.989   1.567   5.575
 4266WAT     H113317   2.000   1.657   5.606
 4266WAT     H213318   1.898   1.562   5.546
 4267WAT      O13319   2.955   1.479   5.722
 4267WAT     H113320   3.037   1.430   5.726
 4267WAT     H213321   2.958   1.538   5.797
 4268WAT      O13322   2.173   1.864   6.008
 4268WAT     H113323   2.224   1.914   6.072
 4268WAT     H213324   2.227   1.786   5.991
 4269WAT      O13325   2.641   2.339   5.585
 4269WAT     H113326   2.579   2.386   5.528
 4269WAT     H213327   2.692   2.408   5.626
 4270WAT      O13328   2.978   1.673   5.999
 4270WAT     H113329   2.908   1.702   6.057
 4270WAT     H213330   3.014   1.754   5.963
 4271WAT      O13331   1.577   2.408   5.322
 4271WAT     H113332   1.540   2.456   5.249
 4271WAT     H213333   1.603   2.475   5.385
 4272WAT      O13334   3.285   1.618   6.038
 4272WAT     H113335   3.190   1.621   6.052
 4272WAT     H213336   3.318   1.699   6.077
 4273WAT      O13337   2.338   1.248   5.868
 4273WAT     H113338   2.369   1.192   5.796
 4273WAT     H213339   2.245   1.261   5.850
 4274WAT      O13340   2.893   2.819   6.097
 4274WAT     H113341   2.895   2.779   6.010
 4274WAT     H213342   2.838   2.897   6.087
 4275WAT      O13343   3.023   2.492   5.606
 4275WAT     H113344   3.012   2.397   5.618
 4275WAT     H213345   3.023   2.528   5.695
 4276WAT      O13346   2.577   2.054   5.542
 4276WAT     H113347   2.484   2.048   5.565
 4276WAT     H213348   2.592   2.148   5.530
 4277WAT      O13349   2.576   1.681   5.241
 4277WAT     H113350   2.482   1.698   5.250
 4277WAT     H213351   2.608   1.753   5.187
 4278WAT      O13352   2.980   2.210   5.592
 4278WAT     H113353   2.918   2.177   5.527
 4278WAT     H213354   2.978   2.146   5.663
 4279WAT      O13355   2.138   2.107   5.820
 4279WAT     H113356   2.097   2.036   5.770
 4279WAT     H213357   2.146   2.072   5.909
 4280WAT      O13358   2.184   2.476   6.036
 4280WAT     H113359   2.155   2.415   5.968
 4280WAT     H213360   2.279   2.479   6.025
 4281WAT      O13361   2.798   2.134   5.293
 4281WAT     H113362   2.842   2.051   5.278
 4281WAT     H213363   2.869   2.198   5.301
 4282WAT      O13364   2.609   2.628   5.690
 4282WAT     H113365   2.653   2.703   5.648
 4282WAT     H213366   2.603   2.653   5.782
 4283WAT      O13367   3.156   1.260   5.124
 4283WAT     H113368   3.125   1.269   5.214
 4283WAT     H213369   3.232   1.318   5.119
 4284WAT      O13370   1.808   1.996   5.570
 4284WAT     H113371   1.796   2.069   5.509
 4284WAT     H213372   1.777   1.919   5.522
 4285WAT      O13373   1.696   2.484   5.792
 4285WAT     H113374   1.655   2.498   5.706
 4285WAT     H213375   1.785   2.455   5.771
 4286WAT      O13376   2.875   2.927   5.425
 4286WAT     H113377   2.859   2.898   5.515
 4286WAT     H213378   2.859   2.849   5.372
 4287WAT      O13379   2.123   2.905   5.603
 4287WAT     H113380   2.106   2.813   5.582
 4287WAT     H213381   2.038   2.941   5.627
 4288WAT      O13382   2.846   2.678   5.281
 4288WAT     H113383   2.776   2.678   5.215
 4288WAT     H213384   2.920   2.635   5.238
 4289WAT      O13385   2.802   2.840   5.689
 4289WAT     H113386   2.848   2.762   5.720
 4289WAT     H213387   2.836   2.912   5.743
 4290WAT      O13388   2.054   1.331   5.908
 4290WAT     H113389   2.010   1.409   5.875
 4290WAT     H213390   2.110   1.363   5.979
 4291WAT      O13391   2.366   1.293   5.396
 4291WAT     H113392   2.303   1.292   5.469
 4291WAT     H213393   2.357   1.206   5.357
 4292WAT      O13394   2.258   1.385   6.094
 4292WAT     H113395   2.288   1.476   6.086
 4292WAT     H213396   2.313   1.336   6.033
 4293WAT      O13397   2.033   1.843   5.681
 4293WAT     H113398   2.011   1.821   5.771
 4293WAT     H213399   1.955   1.886   5.646
 4294WAT      O13400   2.756   1.844   5.541
 4294WAT     H113401   2.697   1.916   5.522
 4294WAT     H213402   2.811   1.837   5.463
 4295WAT      O13403   2.617   1.707   5.744
 4295WAT     H113404   2.656   1.739   5.663
 4295WAT     H213405   2.653   1.619   5.755
 4296WAT      O13406   1.521   1.366   5.966
 4296WAT     H113407   1.492   1.423   6.037
 4296WAT     H213408   1.595   1.318   6.002
 4297WAT      O13409   1.539   1.761   5.087
 4297WAT     H113410   1.531   1.855   5.101
 4297WAT     H213411   1.504   1.746   4.999
 4298WAT      O13412   2.319   1.634   5.994
 4298WAT     H113413   2.320   1.590   5.909
 4298WAT     H213414   2.409   1.666   6.005
 4299WAT      O13415   1.904   1.622   5.890
 4299WAT     H113416   1.870   1.670   5.966
 4299WAT     H213417   1.828   1.577   5.854
 4300WAT      O13418   2.326   1.734   5.293
 4300WAT     H113419   2.338   1.730   5.388
 4300WAT     H213420   2.287   1.820   5.277
 4301WAT      O13421   2.227   1.965   5.233
 4301WAT     H113422   2.170   1.920   5.170
 4301WAT     H213423   2.298   2.001   5.179
 4302WAT      O13424   1.636   1.514   5.782
 4302WAT     H113425   1.607   1.478   5.865
 4302WAT     H213426   1.630   1.441   5.720
 4303WAT      O13427   1.981   2.365   5.460
 4303WAT     H113428   1.904   2.311   5.444
 4303WAT     H213429   2.054   2.313   5.426
 4304WAT      O13430   3.057   2.264   6.039
 4304WAT     H113431   3.129   2.314   6.000
 4304WAT     H213432   3.037   2.196   5.975
 4305WAT      O13433   2.603   1.404   5.454
 4305WAT     H113434   2.522   1.354   5.446
 4305WAT     H213435   2.584   1.488   5.412
 4306WAT      O13436   2.875   1.841   5.283
 4306WAT     H113437   2.964   1.872   5.266
 4306WAT     H213438   2.872   1.754   5.244
 4307WAT      O13439   1.986   2.331   5.824
 4307WAT     H113440   2.037   2.251   5.818
 4307WAT     H213441   1.941   2.325   5.908
 4308WAT      O13442   2.474   2.458   5.351
 4308WAT     H113443   2.509   2.533   5.302
 4308WAT     H213444   2.392   2.489   5.387
 4309WAT      O13445   3.102   1.972   5.230
 4309WAT     H113446   3.094   2.015   5.145
 4309WAT     H213447   3.174   2.018   5.273
 4310WAT      O13448   3.205   2.657   5.503
 4310WAT     H113449   3.141   2.592   5.530
 4310WAT     H213450   3.166   2.698   5.425
 4311WAT      O13451   2.763   2.390   5.888
 4311WAT     H113452   2.798   2.331   5.822
 4311WAT     H213453   2.674   2.358   5.905
 4312WAT      O13454   2.371   2.466   5.628
 4312WAT     H113455   2.440   2.521   5.666
 4312WAT     H213456   2.293   2.521   5.632
 4313WAT      O13457   1.585   2.028   5.177
 4313WAT     H113458   1.672   2.056   5.206
 4313WAT     H213459   1.536   2.109   5.166
 4314WAT      O13460   2.302   2.167   5.590
 4314WAT     H113461   2.347   2.248   5.612
 4314WAT     H213462   2.266   2.135   5.673
 4315WAT      O13463   1.892   1.201   5.637
 4315WAT     H113464   1.879   1.200   5.732
 4315WAT     H213465   1.809   1.235   5.602
 4316WAT      O13466   3.044   2.547   5.157
 4316WAT     H113467   3.021   2.475   5.216
 4316WAT     H213468   3.005   2.522   5.073
 4317WAT      O13469   1.622   2.949   5.234
 4317WAT     H113470   1.658   3.009   5.169
 4317WAT     H213471   1.608   3.004   5.311
 4318WAT      O13472   3.002   2.338   5.323
 4318WAT     H113473   2.973   2.384   5.402
 4318WAT     H213474   3.081   2.292   5.350
 4319WAT      O13475   2.224   2.688   5.316
 4319WAT     H113476   2.223   2.761   5.254
 4319WAT     H213477   2.132   2.663   5.325
 4320WAT      O13478   1.784   2.210   5.390
 4320WAT     H113479   1.723   2.284   5.391
 4320WAT     H213480   1.831   2.219   5.308
 4321WAT      O13481   3.078   1.522   5.439
 4321WAT     H113482   3.015   1.532   5.367
 4321WAT     H213483   3.028   1.544   5.518
 4322WAT      O13484   2.522   2.694   5.182
 4322WAT     H113485   2.532   2.673   5.089
 4322WAT     H213486   2.432   2.668   5.203
 4323WAT      O13487   2.274   1.750   5.580
 4323WAT     H113488   2.204   1.796   5.624
 4323WAT     H213489   2.303   1.684   5.644
 4324WAT      O13490   2.678   1.422   5.724
 4324WAT     H113491   2.665   1.424   5.629
 4324WAT     H213492   2.772   1.427   5.736
 4325WAT      O13493   2.386   2.946   5.652
 4325WAT     H113494   2.412   2.942   5.559
 4325WAT     H213495   2.292   2.933   5.651
 4326WAT      O13496   2.095   1.580   5.318
 4326WAT     H113497   2.180   1.624   5.311
 4326WAT     H213498   2.058   1.612   5.401
 4327WAT      O13499   2.987   2.038   5.809
 4327WAT     H113500   2.893   2.039   5.827
 4327WAT     H213501   3.018   1.959   5.854
 4328WAT      O13502   1.985   2.206   5.165
 4328WAT     H113503   2.061   2.195   5.221
 4328WAT     H213504   1.992   2.136   5.100
 4329WAT      O13505   1.854   1.949   5.234
 4329WAT     H113506   1.862   1.854   5.245
 4329WAT     H213507   1.943   1.982   5.244
 4330WAT      O13508   3.187   2.755   5.977
 4330WAT     H113509   3.200   2.837   6.024
 4330WAT     H213510   3.274   2.734   5.942
 4331WAT      O13511   1.934   2.964   5.944
 4331WAT     H113512   2.008   2.909   5.971
 4331WAT     H213513   1.973   3.051   5.930
 4332WAT      O13514   1.623   2.571   5.531
 4332WAT     H113515   1.530   2.595   5.530
 4332WAT     H213516   1.669   2.653   5.519
 4333WAT      O13517   2.245   2.881   5.126
 4333WAT     H113518   2.325   2.910   5.081
 4333WAT     H213519   2.193   2.838   5.058
 4334WAT      O13520   3.151   2.804   5.268
 4334WAT     H113521   3.122   2.763   5.187
 4334WAT     H213522   3.131   2.897   5.256
 4335WAT      O13523   2.297   2.403   5.113
 4335WAT     H113524   2.287   2.342   5.185
 4335WAT     H213525   2.280   2.351   5.034
 4336WAT      O13526   2.621   2.310   5.173
 4336WAT     H113527   2.566   2.354   5.237
 4336WAT     H213528   2.683   2.259   5.225
 4337WAT      O13529   2.188   2.205   5.363
 4337WAT     H113530   2.230   2.189   5.447
 4337WAT     H213531   2.200   2.124   5.313
 4338WAT      O13532   2.439   2.108   5.087
 4338WAT     H113533   2.491   2.036   5.051
 4338WAT     H213534   2.504   2.172   5.117
 4339WAT      O13535   2.078   1.813   5.057
 4339WAT     H113536   2.057   1.726   5.093
 4339WAT     H213537   2.060   1.804   4.963
 4340WAT      O13538   2.825   1.294   5.310
 4340WAT     H113539   2.853   1.210   5.346
 4340WAT     H213540   2.748   1.317   5.361
 4341WAT      O13541   1.957   1.523   5.056
 4341WAT     H113542   1.988   1.523   4.965
 4341WAT     H213543   2.031   1.488   5.106
 4342WAT      O13544   2.279   1.417   5.155
 4342WAT     H113545   2.244   1.349   5.097
 4342WAT     H213546   2.299   1.371   5.236
 4343WAT      O13547   2.496   2.916   5.316
 4343WAT     H113548   2.585   2.950   5.319
 4343WAT     H213549   2.499   2.844   5.254
 4344WAT      O13550   1.860   2.453   5.139
 4344WAT     H113551   1.903   2.508   5.205
 4344WAT     H213552   1.908   2.371   5.140
 4345WAT      O13553   1.581   2.732   5.884
 4345WAT     H113554   1.614   2.645   5.861
 4345WAT     H213555   1.624   2.753   5.968
 4346WAT      O13556   2.041   2.565   5.650
 4346WAT     H113557   2.011   2.553   5.741
 4346WAT     H213558   2.030   2.479   5.610
 4347WAT      O13559   3.318   2.543   5.121
 4347WAT     H113560   3.235   2.550   5.168
 4347WAT     H213561   3.335   2.632   5.090
 4348WAT      O13562   3.263   2.218   5.371
 4348WAT     H113563   3.339   2.275   5.382
 4348WAT     H213564   3.265   2.161   5.448
 4349WAT      O13565   1.613   2.070   5.794
 4349WAT     H113566   1.548   2.043   5.730
 4349WAT     H213567   1.697   2.059   5.749
 4350WAT      O13568   3.364   2.303   5.856
 4350WAT     H113569   3.401   2.225   5.815
 4350WAT     H213570   3.428   2.372   5.838
 4351WAT      O13571   3.268   2.247   5.087
 4351WAT     H113572   3.296   2.338   5.074
 4351WAT     H213573   3.250   2.241   5.180
 4352WAT      O13574   2.908   1.549   5.216
 4352WAT     H113575   2.950   1.531   5.132
 4352WAT     H213576   2.878   1.464   5.247
 4353WAT      O13577   3.258   2.041   5.586
 4353WAT     H113578   3.220   1.964   5.543
 4353WAT     H213579   3.185   2.079   5.635
 4354WAT      O13580   1.535   1.791   5.388
 4354WAT     H113581   1.444   1.817   5.371
 4354WAT     H213582   1.583   1.818   5.310
 4355WAT      O13583   3.186   1.863   5.916
 4355WAT     H113584   3.238   1.814   5.853
 4355WAT     H213585   3.244   1.877   5.991
 4356WAT      O13586   1.789   1.697   5.179
 4356WAT     H113587   1.860   1.654   5.131
 4356WAT     H213588   1.717   1.703   5.116
 4357WAT      O13589   1.754   1.302   5.083
 4357WAT     H113590   1.826   1.356   5.115
 4357WAT     H213591   1.781   1.275   4.996
 4358WAT      O13592   3.135   1.789   5.510
 4358WAT     H113593   3.184   1.766   5.589
 4358WAT     H213594   3.115   1.705   5.468
 4359WAT      O13595   3.277   1.653   5.763
 4359WAT     H113596   3.266   1.637   5.857
 4359WAT     H213597   3.354   1.600   5.739
 4360WAT      O13598   3.366   1.436   5.088
 4360WAT     H113599   3.459   1.422   5.067
 4360WAT     H213600   3.364   1.444   5.183
 4361WAT      O13601   3.374   1.513   5.350
 4361WAT     H113602   3.294   1.506   5.403
 4361WAT     H213603   3.394   1.606   5.349
 4362WAT      O13604   3.068   2.917   5.749
 4362WAT     H113605   3.127   2.885   5.682
 4362WAT     H213606   3.094   2.869   5.829
 4363WAT      O13607   3.123   2.982   6.132
 4363WAT     H113608   3.077   3.057   6.095
 4363WAT     H213609   3.060   2.910   6.127
 4364WAT      O13610   2.166   2.813   6.050
 4364WAT     H113611   2.218   2.751   5.997
 4364WAT     H213612   2.231   2.863   6.099
 4365WAT      O13613   3.017   1.346   5.995
 4365WAT     H113614   3.061   1.340   5.910
 4365WAT     H213615   2.990   1.437   6.002
 4366WAT      O13616   3.203   1.309   5.796
 4366WAT     H113617   3.197   1.215   5.781
 4366WAT     H213618   3.281   1.320   5.851
 4367WAT      O13619   1.634   2.923   5.692
 4367WAT     H113620   1.617   2.860   5.762
 4367WAT     H213621   1.547   2.943   5.657
 4368WAT      O13622   1.696   1.306   5.443
 4368WAT     H113623   1.772   1.317   5.385
 4368WAT     H213624   1.650   1.390   5.438
 4369WAT      O13625   2.350   1.517   5.742
 4369WAT     H113626   2.269   1.480   5.708
 4369WAT     H213627   2.401   1.442   5.772
 4370WAT      O13628   2.800   1.184   5.866
 4370WAT     H113629   2.861   1.241   5.913
 4370WAT     H213630   2.726   1.240   5.843
 4371WAT      O13631   3.115   1.224   5.393
 4371WAT     H113632   3.134   1.314   5.420
 4371WAT     H213633   3.036   1.201   5.442
 4372WAT      O13634   1.794   2.792   5.437
 4372WAT     H113635   1.742   2.830   5.367
 4372WAT     H213636   1.787   2.855   5.509
 4373WAT      O13637   1.933   1.359   5.297
 4373WAT     H113638   1.986   1.280   5.284
 4373WAT     H213639   1.997   1.427   5.320
 4374WAT      O13640   2.153   1.332   5.602
 4374WAT     H113641   2.090   1.262   5.619
 4374WAT     H213642   2.099   1.408   5.581
 4375WAT      O13643   3.270   2.948   5.569
 4375WAT     H113644   3.288   2.879   5.505
 4375WAT     H213645   3.200   3.001   5.530
 4376WAT      O13646   2.054   2.987   5.324
 4376WAT     H113647   2.128   2.959   5.270
 4376WAT     H213648   2.080   2.963   5.413
 4377WAT      O13649   1.971   2.599   5.325
 4377WAT     H113650   1.908   2.645   5.380
 4377WAT     H213651   1.982   2.514   5.368
 4378WAT      O13652   2.716   2.004   3.940
 4378WAT     H113653   2.708   1.912   3.913
 4378WAT     H213654   2.675   2.053   3.869
 4379WAT      O13655   2.529   2.181   4.128
 4379WAT     H113656   2.452   2.133   4.157
 4379WAT     H213657   2.594   2.114   4.111
 4380WAT      O13658   1.772   1.709   3.594
 4380WAT     H113659   1.683   1.743   3.584
 4380WAT     H213660   1.800   1.689   3.505
 4381WAT      O13661   1.568   1.969   4.183
 4381WAT     H113662   1.625   1.892   4.183
 4381WAT     H213663   1.568   1.999   4.092
 4382WAT      O13664   1.692   1.510   4.361
 4382WAT     H113665   1.674   1.420   4.389
 4382WAT     H213666   1.652   1.564   4.429
 4383WAT      O13667   2.576   1.730   4.151
 4383WAT     H113668   2.614   1.642   4.140
 4383WAT     H213669   2.567   1.763   4.062
 4384WAT      O13670   1.989   1.567   3.698
 4384WAT     H113671   2.000   1.657   3.728
 4384WAT     H213672   1.898   1.562   3.669
 4385WAT      O13673   2.955   1.479   3.845
 4385WAT     H113674   3.037   1.430   3.849
 4385WAT     H213675   2.958   1.538   3.920
 4386WAT      O13676   1.754   1.759   4.222
 4386WAT     H113677   1.822   1.786   4.284
 4386WAT     H213678   1.723   1.675   4.255
 4387WAT      O13679   2.173   1.864   4.131
 4387WAT     H113680   2.224   1.914   4.195
 4387WAT     H213681   2.227   1.786   4.113
 4388WAT      O13682   3.384   1.681   4.501
 4388WAT     H113683   3.313   1.720   4.449
 4388WAT     H213684   3.410   1.750   4.561
 4389WAT      O13685   2.002   1.328   4.557
 4389WAT     H113686   2.002   1.380   4.477
 4389WAT     H213687   1.919   1.280   4.555
 4390WAT      O13688   2.978   1.673   4.122
 4390WAT     H113689   2.908   1.702   4.180
 4390WAT     H213690   3.014   1.754   4.086
 4391WAT      O13691   1.970   1.499   4.358
 4391WAT     H113692   2.004   1.583   4.329
 4391WAT     H213693   1.876   1.514   4.370
 4392WAT      O13694   1.577   2.408   3.445
 4392WAT     H113695   1.540   2.456   3.372
 4392WAT     H213696   1.603   2.475   3.508
 4393WAT      O13697   3.140   2.635   4.348
 4393WAT     H113698   3.071   2.702   4.347
 4393WAT     H213699   3.194   2.655   4.272
 4394WAT      O13700   3.285   1.618   4.161
 4394WAT     H113701   3.190   1.621   4.174
 4394WAT     H213702   3.318   1.699   4.200
 4395WAT      O13703   2.338   1.248   3.991
 4395WAT     H113704   2.369   1.192   3.919
 4395WAT     H213705   2.245   1.261   3.972
 4396WAT      O13706   2.893   2.819   4.220
 4396WAT     H113707   2.895   2.779   4.133
 4396WAT     H213708   2.838   2.897   4.209
 4397WAT      O13709   2.833   2.310   4.352
 4397WAT     H113710   2.875   2.288   4.269
 4397WAT     H213711   2.906   2.335   4.410
 4398WAT      O13712   2.576   1.681   3.364
 4398WAT     H113713   2.482   1.698   3.372
 4398WAT     H213714   2.608   1.753   3.309
 4399WAT      O13715   3.228   2.150   4.362
 4399WAT     H113716   3.145   2.157   4.314
 4399WAT     H213717   3.287   2.208   4.315
 4400WAT      O13718   2.980   2.210   3.715
 4400WAT     H113719   2.918   2.177   3.650
 4400WAT     H213720   2.978   2.146   3.785
 4401WAT      O13721   2.924   1.828   4.456
 4401WAT     H113722   2.883   1.911   4.482
 4401WAT     H213723   2.851   1.770   4.437
 4402WAT      O13724   2.138   2.107   3.942
 4402WAT     H113725   2.097   2.036   3.893
 4402WAT     H213726   2.146   2.072   4.031
 4403WAT      O13727   2.009   1.784   4.320
 4403WAT     H113728   2.064   1.795   4.243
 4403WAT     H213729   2.060   1.822   4.392
 4404WAT      O13730   2.993   2.833   4.525
 4404WAT     H113731   2.946   2.914   4.506
 4404WAT     H213732   2.925   2.768   4.540
 4405WAT      O13733   2.094   2.449   4.824
 4405WAT     H113734   2.004   2.472   4.849
 4405WAT     H213735   2.096   2.462   4.729
 4406WAT      O13736   2.798   2.134   3.415
 4406WAT     H113737   2.842   2.051   3.401
 4406WAT     H213738   2.869   2.198   3.424
 4407WAT      O13739   1.976   2.137   4.681
 4407WAT     H113740   1.962   2.224   4.718
 4407WAT     H213741   1.888   2.102   4.667
 4408WAT      O13742   2.156   2.731   4.902
 4408WAT     H113743   2.153   2.771   4.816
 4408WAT     H213744   2.140   2.638   4.886
 4409WAT      O13745   3.156   1.260   3.247
 4409WAT     H113746   3.125   1.269   3.337
 4409WAT     H213747   3.232   1.318   3.242
 4410WAT      O13748   1.808   1.996   3.692
 4410WAT     H113749   1.796   2.069   3.631
 4410WAT     H213750   1.777   1.919   3.645
 4411WAT      O13751   3.351   2.809   5.032
 4411WAT     H113752   3.399   2.857   5.100
 4411WAT     H213753   3.413   2.802   4.959
 4412WAT      O13754   1.696   2.484   3.914
 4412WAT     H113755   1.655   2.498   3.829
 4412WAT     H213756   1.785   2.455   3.894
 4413WAT      O13757   3.292   2.528   4.748
 4413WAT     H113758   3.304   2.504   4.656
 4413WAT     H213759   3.296   2.445   4.795
 4414WAT      O13760   2.678   2.898   4.605
 4414WAT     H113761   2.729   2.890   4.685
 4414WAT     H213762   2.594   2.933   4.634
 4415WAT      O13763   3.277   1.733   4.844
 4415WAT     H113764   3.215   1.784   4.792
 4415WAT     H213765   3.245   1.643   4.839
 4416WAT      O13766   2.054   1.331   4.031
 4416WAT     H113767   2.010   1.409   3.998
 4416WAT     H213768   2.110   1.363   4.101
 4417WAT      O13769   2.483   1.617   4.591
 4417WAT     H113770   2.437   1.638   4.672
 4417WAT     H213771   2.443   1.536   4.561
 4418WAT      O13772   2.983   1.739   4.704
 4418WAT     H113773   2.898   1.710   4.736
 4418WAT     H213774   2.967   1.764   4.613
 4419WAT      O13775   2.693   1.890   4.914
 4419WAT     H113776   2.725   1.806   4.880
 4419WAT     H213777   2.771   1.942   4.929
 4420WAT      O13778   2.366   1.293   3.519
 4420WAT     H113779   2.303   1.292   3.591
 4420WAT     H213780   2.357   1.206   3.479
 4421WAT      O13781   2.258   1.385   4.217
 4421WAT     H113782   2.288   1.476   4.209
 4421WAT     H213783   2.313   1.336   4.155
 4422WAT      O13784   2.033   1.843   3.804
 4422WAT     H113785   2.011   1.821   3.894
 4422WAT     H213786   1.955   1.886   3.769
 4423WAT      O13787   2.756   1.844   3.663
 4423WAT     H113788   2.697   1.916   3.645
 4423WAT     H213789   2.811   1.837   3.585
 4424WAT      O13790   2.277   1.933   4.870
 4424WAT     H113791   2.268   1.839   4.855
 4424WAT     H213792   2.362   1.955   4.831
 4425WAT      O13793   2.617   1.707   3.866
 4425WAT     H113794   2.656   1.739   3.785
 4425WAT     H213795   2.653   1.619   3.878
 4426WAT      O13796   1.791   1.574   4.685
 4426WAT     H113797   1.751   1.659   4.706
 4426WAT     H213798   1.722   1.510   4.705
 4427WAT      O13799   2.448   1.582   4.992
 4427WAT     H113800   2.379   1.563   5.056
 4427WAT     H213801   2.522   1.611   5.046
 4428WAT      O13802   1.521   1.366   4.089
 4428WAT     H113803   1.492   1.423   4.160
 4428WAT     H213804   1.595   1.318   4.125
 4429WAT      O13805   1.539   1.761   3.210
 4429WAT     H113806   1.531   1.855   3.224
 4429WAT     H213807   1.504   1.746   3.122
 4430WAT      O13808   2.676   1.966   4.276
 4430WAT     H113809   2.602   2.017   4.311
 4430WAT     H213810   2.636   1.885   4.246
 4431WAT      O13811   2.319   1.634   4.116
 4431WAT     H113812   2.320   1.590   4.032
 4431WAT     H213813   2.409   1.666   4.127
 4432WAT      O13814   1.904   1.622   4.012
 4432WAT     H113815   1.870   1.670   4.088
 4432WAT     H213816   1.828   1.577   3.976
 4433WAT      O13817   2.326   1.734   3.416
 4433WAT     H113818   2.338   1.730   3.510
 4433WAT     H213819   2.287   1.820   3.400
 4434WAT      O13820   2.722   1.512   4.217
 4434WAT     H113821   2.724   1.557   4.302
 4434WAT     H213822   2.697   1.422   4.239
 4435WAT      O13823   2.227   1.965   3.355
 4435WAT     H113824   2.170   1.920   3.293
 4435WAT     H213825   2.298   2.001   3.302
 4436WAT      O13826   3.065   1.253   4.801
 4436WAT     H113827   3.097   1.180   4.854
 4436WAT     H213828   3.068   1.221   4.711
 4437WAT      O13829   2.350   2.040   4.291
 4437WAT     H113830   2.386   1.993   4.366
 4437WAT     H213831   2.331   2.127   4.325
 4438WAT      O13832   1.636   1.514   3.904
 4438WAT     H113833   1.607   1.478   3.988
 4438WAT     H213834   1.630   1.441   3.843
 4439WAT      O13835   2.128   1.944   4.523
 4439WAT     H113836   2.098   2.032   4.545
 4439WAT     H213837   2.224   1.950   4.527
 4440WAT      O13838   3.057   2.264   4.162
 4440WAT     H113839   3.129   2.314   4.123
 4440WAT     H213840   3.037   2.196   4.097
 4441WAT      O13841   2.603   1.404   3.576
 4441WAT     H113842   2.522   1.354   3.569
 4441WAT     H213843   2.584   1.488   3.535
 4442WAT      O13844   2.595   2.271   4.751
 4442WAT     H113845   2.589   2.179   4.725
 4442WAT     H213846   2.532   2.281   4.822
 4443WAT      O13847   2.875   1.841   3.406
 4443WAT     H113848   2.964   1.872   3.388
 4443WAT     H213849   2.872   1.754   3.367
 4444WAT      O13850   1.734   2.028   4.638
 4444WAT     H113851   1.698   2.095   4.696
 4444WAT     H213852   1.705   1.945   4.675
 4445WAT      O13853   2.054   2.074   4.926
 4445WAT     H113854   2.024   2.088   4.836
 4445WAT     H213855   2.131   2.018   4.917
 4446WAT      O13856   2.589   2.554   4.726
 4446WAT     H113857   2.590   2.460   4.704
 4446WAT     H213858   2.518   2.562   4.790
 4447WAT      O13859   3.102   1.972   3.353
 4447WAT     H113860   3.094   2.015   3.268
 4447WAT     H213861   3.174   2.018   3.396
 4448WAT      O13862   3.210   2.218   4.660
 4448WAT     H113863   3.137   2.277   4.641
 4448WAT     H213864   3.262   2.217   4.580
 4449WAT      O13865   1.585   2.028   3.300
 4449WAT     H113866   1.672   2.056   3.328
 4449WAT     H213867   1.536   2.109   3.289
 4450WAT      O13868   1.892   1.201   3.759
 4450WAT     H113869   1.879   1.200   3.854
 4450WAT     H213870   1.809   1.235   3.724
 4451WAT      O13871   2.659   2.518   4.307
 4451WAT     H113872   2.723   2.448   4.318
 4451WAT     H213873   2.712   2.596   4.289
 4452WAT      O13874   2.837   2.598   4.627
 4452WAT     H113875   2.870   2.657   4.695
 4452WAT     H213876   2.745   2.585   4.650
 4453WAT      O13877   1.622   2.949   3.357
 4453WAT     H113878   1.658   3.009   3.291
 4453WAT     H213879   1.608   3.004   3.434
 4454WAT      O13880   1.592   1.377   4.705
 4454WAT     H113881   1.520   1.397   4.766
 4454WAT     H213882   1.634   1.299   4.743
 4455WAT      O13883   1.620   2.776   4.804
 4455WAT     H113884   1.631   2.682   4.790
 4455WAT     H213885   1.555   2.802   4.739
 4456WAT      O13886   2.419   2.603   4.944
 4456WAT     H113887   2.387   2.531   4.999
 4456WAT     H213888   2.352   2.670   4.951
 4457WAT      O13889   1.784   2.210   3.513
 4457WAT     H113890   1.723   2.284   3.514
 4457WAT     H213891   1.831   2.219   3.430
 4458WAT      O13892   2.741   1.626   4.480
 4458WAT     H113893   2.778   1.544   4.513
 4458WAT     H213894   2.655   1.632   4.522
 4459WAT      O13895   3.078   1.522   3.561
 4459WAT     H113896   3.015   1.532   3.490
 4459WAT     H213897   3.028   1.544   3.640
 4460WAT      O13898   2.274   1.750   3.703
 4460WAT     H113899   2.204   1.796   3.747
 4460WAT     H213900   2.303   1.684   3.766
 4461WAT      O13901   2.437   1.892   4.503
 4461WAT     H113902   2.487   1.939   4.569
 4461WAT     H213903   2.451   1.799   4.524
 4462WAT      O13904   2.678   1.422   3.847
 4462WAT     H113905   2.665   1.424   3.752
 4462WAT     H213906   2.772   1.427   3.859
 4463WAT      O13907   2.095   1.580   3.440
 4463WAT     H113908   2.180   1.624   3.434
 4463WAT     H213909   2.058   1.612   3.523
 4464WAT      O13910   3.158   1.513   4.587
 4464WAT     H113911   3.107   1.587   4.621
 4464WAT     H213912   3.239   1.552   4.555
 4465WAT      O13913   2.987   2.038   3.932
 4465WAT     H113914   2.893   2.039   3.949
 4465WAT     H213915   3.018   1.959   3.976
 4466WAT      O13916   1.985   2.206   3.288
 4466WAT     H113917   2.061   2.195   3.344
 4466WAT     H213918   1.992   2.136   3.223
 4467WAT      O13919   1.854   1.949   3.356
 4467WAT     H113920   1.862   1.854   3.367
 4467WAT     H213921   1.943   1.982   3.367
 4468WAT      O13922   3.187   2.755   4.099
 4468WAT     H113923   3.200   2.837   4.146
 4468WAT     H213924   3.274   2.734   4.064
 4469WAT      O13925   1.623   2.571   3.654
 4469WAT     H113926   1.530   2.595   3.653
 4469WAT     H213927   1.669   2.653   3.642
 4470WAT      O13928   1.835   2.882   4.985
 4470WAT     H113929   1.915   2.915   5.027
 4470WAT     H213930   1.783   2.846   5.057
 4471WAT      O13931   2.719   2.493   4.980
 4471WAT     H113932   2.658   2.496   4.906
 4471WAT     H213933   2.688   2.420   5.034
 4472WAT      O13934   2.862   2.866   4.841
 4472WAT     H113935   2.957   2.858   4.836
 4472WAT     H213936   2.847   2.932   4.908
 4473WAT      O13937   1.607   2.131   4.880
 4473WAT     H113938   1.657   2.073   4.937
 4473WAT     H213939   1.533   2.160   4.933
 4474WAT      O13940   2.312   2.272   4.833
 4474WAT     H113941   2.236   2.329   4.825
 4474WAT     H213942   2.330   2.243   4.744
 4475WAT      O13943   3.027   2.445   4.889
 4475WAT     H113944   3.101   2.479   4.838
 4475WAT     H213945   2.950   2.462   4.833
 4476WAT      O13946   1.810   1.946   4.969
 4476WAT     H113947   1.814   1.916   5.060
 4476WAT     H213948   1.896   1.986   4.953
 4477WAT      O13949   2.004   1.803   4.766
 4477WAT     H113950   1.951   1.754   4.703
 4477WAT     H213951   2.071   1.846   4.712
 4478WAT      O13952   2.439   2.108   3.210
 4478WAT     H113953   2.491   2.036   3.173
 4478WAT     H213954   2.504   2.172   3.240
 4479WAT      O13955   2.894   2.250   4.742
 4479WAT     H113956   2.935   2.266   4.827
 4479WAT     H213957   2.800   2.263   4.759
 4480WAT      O13958   2.941   1.984   4.943
 4480WAT     H113959   2.999   1.909   4.934
 4480WAT     H213960   2.959   2.037   4.865
 4481WAT      O13961   2.053   1.500   4.774
 4481WAT     H113962   2.043   1.438   4.701
 4481WAT     H213963   1.995   1.573   4.751
 4482WAT      O13964   2.330   1.356   4.477
 4482WAT     H113965   2.285   1.358   4.393
 4482WAT     H213966   2.266   1.316   4.537
 4483WAT      O13967   2.370   2.245   4.539
 4483WAT     H113968   2.412   2.330   4.522
 4483WAT     H213969   2.278   2.259   4.516
 4484WAT      O13970   2.604   2.018   4.678
 4484WAT     H113971   2.616   1.959   4.752
 4484WAT     H213972   2.690   2.022   4.636
 4485WAT      O13973   2.838   2.074   4.535
 4485WAT     H113974   2.785   2.126   4.475
 4485WAT     H213975   2.872   2.137   4.598
 4486WAT      O13976   2.078   1.813   3.180
 4486WAT     H113977   2.057   1.726   3.216
 4486WAT     H213978   2.060   1.804   3.086
 4487WAT      O13979   2.280   1.673   4.803
 4487WAT     H113980   2.339   1.642   4.872
 4487WAT     H213981   2.199   1.625   4.819
 4488WAT      O13982   2.762   1.634   4.827
 4488WAT     H113983   2.694   1.568   4.820
 4488WAT     H213984   2.834   1.590   4.871
 4489WAT      O13985   2.825   1.294   3.433
 4489WAT     H113986   2.853   1.210   3.468
 4489WAT     H213987   2.748   1.317   3.484
 4490WAT      O13988   1.957   1.523   3.179
 4490WAT     H113989   1.988   1.523   3.088
 4490WAT     H213990   2.031   1.488   3.228
 4491WAT      O13991   2.441   2.999   4.677
 4491WAT     H113992   2.433   3.090   4.707
 4491WAT     H213993   2.351   2.967   4.674
 4492WAT      O13994   2.279   1.417   3.277
 4492WAT     H113995   2.244   1.349   3.219
 4492WAT     H213996   2.299   1.371   3.359
 4493WAT      O13997   3.194   2.769   4.710
 4493WAT     H113998   3.134   2.775   4.635
 4493WAT     H213999   3.207   2.675   4.723
 4494WAT      O14000   1.613   2.070   3.917
 4494WAT     H114001   1.548   2.043   3.852
 4494WAT     H214002   1.697   2.059   3.872
 4495WAT      O14003   3.364   2.303   3.978
 4495WAT     H114004   3.401   2.225   3.937
 4495WAT     H214005   3.428   2.372   3.960
 4496WAT      O14006   3.062   2.442   4.519
 4496WAT     H114007   2.981   2.484   4.546
 4496WAT     H214008   3.103   2.503   4.458
 4497WAT      O14009   2.908   1.549   3.339
 4497WAT     H114010   2.950   1.531   3.255
 4497WAT     H214011   2.878   1.464   3.370
 4498WAT      O14012   3.258   2.041   3.709
 4498WAT     H114013   3.220   1.964   3.665
 4498WAT     H214014   3.185   2.079   3.757
 4499WAT      O14015   3.197   1.955   4.672
 4499WAT     H114016   3.174   1.933   4.582
 4499WAT     H214017   3.223   2.047   4.668
 4500WAT      O14018   1.672   1.800   4.761
 4500WAT     H114019   1.583   1.796   4.795
 4500WAT     H214020   1.726   1.820   4.838
 4501WAT      O14021   3.041   1.478   4.950
 4501WAT     H114022   3.129   1.479   4.988
 4501WAT     H214023   3.042   1.404   4.889
 4502WAT      O14024   1.535   1.791   3.511
 4502WAT     H114025   1.444   1.817   3.494
 4502WAT     H214026   1.583   1.818   3.433
 4503WAT      O14027   3.186   1.863   4.039
 4503WAT     H114028   3.238   1.814   3.976
 4503WAT     H214029   3.244   1.877   4.113
 4504WAT      O14030   3.203   1.872   4.391
 4504WAT     H114031   3.108   1.868   4.402
 4504WAT     H214032   3.222   1.963   4.367
 4505WAT      O14033   1.789   1.697   3.302
 4505WAT     H114034   1.860   1.654   3.253
 4505WAT     H214035   1.717   1.703   3.239
 4506WAT      O14036   1.754   1.302   3.206
 4506WAT     H114037   1.826   1.356   3.238
 4506WAT     H214038   1.781   1.275   3.118
 4507WAT      O14039   3.135   1.789   3.633
 4507WAT     H114040   3.184   1.766   3.711
 4507WAT     H214041   3.115   1.705   3.591
 4508WAT      O14042   1.723   1.227   4.196
 4508WAT     H114043   1.787   1.172   4.152
 4508WAT     H214044   1.765   1.253   4.278
 4509WAT      O14045   3.277   1.653   3.886
 4509WAT     H114046   3.266   1.637   3.980
 4509WAT     H214047   3.354   1.600   3.862
 4510WAT      O14048   3.112   1.247   4.532
 4510WAT     H114049   3.176   1.308   4.568
 4510WAT     H214050   3.127   1.250   4.437
 4511WAT      O14051   3.366   1.436   3.210
 4511WAT     H114052   3.459   1.422   3.189
 4511WAT     H214053   3.364   1.444   3.305
 4512WAT      O14054   3.374   1.513   3.473
 4512WAT     H114055   3.294   1.506   3.526
 4512WAT     H214056   3.394   1.606   3.472
 4513WAT      O14057   1.698   1.243   4.470
 4513WAT     H114058   1.663   1.288   4.547
 4513WAT     H214059   1.665   1.153   4.479
 4514WAT      O14060   1.859   2.560   4.887
 4514WAT     H114061   1.854   2.523   4.975
 4514WAT     H214062   1.872   2.654   4.901
 4515WAT      O14063   2.449   1.362   4.823
 4515WAT     H114064   2.443   1.421   4.898
 4515WAT     H214065   2.543   1.351   4.808
 4516WAT      O14066   2.713   1.327   4.787
 4516WAT     H114067   2.774   1.359   4.720
 4516WAT     H214068   2.767   1.279   4.849
 4517WAT      O14069   3.355   2.917   4.527
 4517WAT     H114070   3.305   2.957   4.455
 4517WAT     H214071   3.294   2.855   4.567
 4518WAT      O14072   1.765   1.195   4.798
 4518WAT     H114073   1.820   1.177   4.722
 4518WAT     H214074   1.772   1.116   4.852
 4519WAT      O14075   2.787   1.184   4.419
 4519WAT     H114076   2.700   1.217   4.399
 4519WAT     H214077   2.776   1.137   4.502
 4520WAT      O14078   2.878   1.405   4.558
 4520WAT     H114079   2.845   1.323   4.520
 4520WAT     H214080   2.972   1.400   4.545
 4521WAT      O14081   3.123   2.982   4.255
 4521WAT     H114082   3.077   3.057   4.218
 4521WAT     H214083   3.060   2.910   4.249
 4522WAT      O14084   2.562   1.276   4.313
 4522WAT     H114085   2.483   1.323   4.341
 4522WAT     H214086   2.532   1.185   4.302
 4523WAT      O14087   3.017   1.346   4.118
 4523WAT     H114088   3.061   1.340   4.033
 4523WAT     H214089   2.990   1.437   4.125
 4524WAT      O14090   3.203   1.309   3.919
 4524WAT     H114091   3.197   1.215   3.904
 4524WAT     H214092   3.281   1.320   3.973
 4525WAT      O14093   1.696   1.306   3.565
 4525WAT     H114094   1.772   1.317   3.508
 4525WAT     H214095   1.650   1.390   3.561
 4526WAT      O14096   2.350   1.517   3.864
 4526WAT     H114097   2.269   1.480   3.830
 4526WAT     H214098   2.401   1.442   3.895
 4527WAT      O14099   2.800   1.184   3.988
 4527WAT     H114100   2.861   1.241   4.036
 4527WAT     H214101   2.726   1.240   3.966
 4528WAT      O14102   3.115   1.224   3.516
 4528WAT     H114103   3.134   1.314   3.542
 4528WAT     H214104   3.036   1.201   3.565
 4529WAT      O14105   1.933   1.359   3.419
 4529WAT     H114106   1.986   1.280   3.406
 4529WAT     H214107   1.997   1.427   3.443
 4530WAT      O14108   2.153   1.332   3.725
 4530WAT     H114109   2.090   1.262   3.741
 4530WAT     H214110   2.099   1.408   3.703
 4531WAT      O14111   2.447   2.994   4.992
 4531WAT     H114112   2.539   2.970   4.996
 4531WAT     H214113   2.445   3.076   4.944
 4532WAT      O14114   2.165   1.260   4.968
 4532WAT     H114115   2.137   1.311   4.892
 4532WAT     H214116   2.203   1.180   4.932
 4533WAT      O14117   2.825   1.202   5.026
 4533WAT     H114118   2.814   1.234   5.116
 4533WAT     H214119   2.907   1.242   4.996
 4534WAT      O14120   3.103   2.916   4.974
 4534WAT     H114121   3.183   2.867   4.954
 4534WAT     H214122   3.133   2.984   5.035
 4535WAT      O14123   2.716   2.004   2.062
 4535WAT     H114124   2.708   1.912   2.035
 4535WAT     H214125   2.675   2.053   1.992
 4536WAT      O14126   2.529   2.181   2.251
 4536WAT     H114127   2.452   2.133   2.280
 4536WAT     H214128   2.594   2.114   2.233
 4537WAT      O14129   1.931   2.213   2.338
 4537WAT     H114130   1.848   2.187   2.378
 4537WAT     H214131   1.992   2.220   2.412
 4538WAT      O14132   1.929   2.616   2.358
 4538WAT     H114133   1.959   2.527   2.340
 4538WAT     H214134   2.003   2.672   2.335
 4539WAT      O14135   1.772   1.709   1.717
 4539WAT     H114136   1.683   1.743   1.707
 4539WAT     H214137   1.800   1.689   1.628
 4540WAT      O14138   1.568   1.969   2.305
 4540WAT     H114139   1.625   1.892   2.305
 4540WAT     H214140   1.568   1.999   2.214
 4541WAT      O14141   1.692   1.510   2.484
 4541WAT     H114142   1.674   1.420   2.512
 4541WAT     H214143   1.652   1.564   2.551
 4542WAT      O14144   2.576   1.730   2.274
 4542WAT     H114145   2.614   1.642   2.263
 4542WAT     H214146   2.567   1.763   2.185
 4543WAT      O14147   1.989   1.567   1.820
 4543WAT     H114148   2.000   1.657   1.851
 4543WAT     H214149   1.898   1.562   1.791
 4544WAT      O14150   2.955   1.479   1.967
 4544WAT     H114151   3.037   1.430   1.971
 4544WAT     H214152   2.958   1.538   2.043
 4545WAT      O14153   1.754   1.759   2.345
 4545WAT     H114154   1.822   1.786   2.407
 4545WAT     H214155   1.723   1.675   2.378
 4546WAT      O14156   2.173   1.864   2.253
 4546WAT     H114157   2.224   1.914   2.317
 4546WAT     H214158   2.227   1.786   2.236
 4547WAT      O14159   2.002   1.328   2.680
 4547WAT     H114160   2.002   1.380   2.599
 4547WAT     H214161   1.919   1.280   2.678
 4548WAT      O14162   2.641   2.339   1.830
 4548WAT     H114163   2.579   2.386   1.774
 4548WAT     H214164   2.692   2.408   1.872
 4549WAT      O14165   2.127   2.292   2.498
 4549WAT     H114166   2.094   2.354   2.562
 4549WAT     H214167   2.145   2.344   2.420
 4550WAT      O14168   2.978   1.673   2.245
 4550WAT     H114169   2.908   1.702   2.303
 4550WAT     H214170   3.014   1.754   2.208
 4551WAT      O14171   1.970   1.499   2.481
 4551WAT     H114172   2.004   1.583   2.451
 4551WAT     H214173   1.876   1.514   2.492
 4552WAT      O14174   1.577   2.408   1.567
 4552WAT     H114175   1.540   2.456   1.494
 4552WAT     H214176   1.603   2.475   1.630
 4553WAT      O14177   3.285   1.618   2.284
 4553WAT     H114178   3.190   1.621   2.297
 4553WAT     H214179   3.318   1.699   2.322
 4554WAT      O14180   2.338   1.248   2.113
 4554WAT     H114181   2.369   1.192   2.042
 4554WAT     H214182   2.245   1.261   2.095
 4555WAT      O14183   2.577   2.054   1.787
 4555WAT     H114184   2.484   2.048   1.810
 4555WAT     H214185   2.592   2.148   1.775
 4556WAT      O14186   2.576   1.681   1.486
 4556WAT     H114187   2.482   1.698   1.495
 4556WAT     H214188   2.608   1.753   1.432
 4557WAT      O14189   2.924   1.828   2.579
 4557WAT     H114190   2.883   1.911   2.604
 4557WAT     H214191   2.851   1.770   2.560
 4558WAT      O14192   2.138   2.107   2.065
 4558WAT     H114193   2.097   2.036   2.015
 4558WAT     H214194   2.146   2.072   2.154
 4559WAT      O14195   2.184   2.476   2.281
 4559WAT     H114196   2.155   2.415   2.213
 4559WAT     H214197   2.279   2.479   2.270
 4560WAT      O14198   2.009   1.784   2.443
 4560WAT     H114199   2.064   1.795   2.365
 4560WAT     H214200   2.060   1.822   2.514
 4561WAT      O14201   2.798   2.134   1.538
 4561WAT     H114202   2.842   2.051   1.523
 4561WAT     H214203   2.869   2.198   1.546
 4562WAT      O14204   1.976   2.137   2.804
 4562WAT     H114205   1.962   2.224   2.841
 4562WAT     H214206   1.888   2.102   2.789
 4563WAT      O14207   3.156   1.260   1.369
 4563WAT     H114208   3.125   1.269   1.459
 4563WAT     H214209   3.232   1.318   1.364
 4564WAT      O14210   1.808   1.996   1.815
 4564WAT     H114211   1.796   2.069   1.754
 4564WAT     H214212   1.777   1.919   1.767
 4565WAT      O14213   1.572   2.314   2.396
 4565WAT     H114214   1.579   2.327   2.301
 4565WAT     H214215   1.633   2.243   2.415
 4566WAT      O14216   1.696   2.484   2.037
 4566WAT     H114217   1.655   2.498   1.951
 4566WAT     H214218   1.785   2.455   2.016
 4567WAT      O14219   2.875   2.927   1.670
 4567WAT     H114220   2.859   2.898   1.760
 4567WAT     H214221   2.859   2.849   1.617
 4568WAT      O14222   2.123   2.905   1.848
 4568WAT     H114223   2.106   2.813   1.827
 4568WAT     H214224   2.038   2.941   1.872
 4569WAT      O14225   2.846   2.678   1.526
 4569WAT     H114226   2.776   2.678   1.460
 4569WAT     H214227   2.920   2.635   1.483
 4570WAT      O14228   1.577   2.418   2.650
 4570WAT     H114229   1.593   2.371   2.568
 4570WAT     H214230   1.624   2.367   2.716
 4571WAT      O14231   2.054   1.331   2.153
 4571WAT     H114232   2.010   1.409   2.120
 4571WAT     H214233   2.110   1.363   2.224
 4572WAT      O14234   2.483   1.617   2.714
 4572WAT     H114235   2.437   1.638   2.795
 4572WAT     H214236   2.443   1.536   2.683
 4573WAT      O14237   2.983   1.739   2.827
 4573WAT     H114238   2.898   1.710   2.859
 4573WAT     H214239   2.967   1.764   2.735
 4574WAT      O14240   2.693   1.890   3.037
 4574WAT     H114241   2.725   1.806   3.003
 4574WAT     H214242   2.771   1.942   3.051
 4575WAT      O14243   2.366   1.293   1.641
 4575WAT     H114244   2.303   1.292   1.714
 4575WAT     H214245   2.357   1.206   1.602
 4576WAT      O14246   2.258   1.385   2.339
 4576WAT     H114247   2.288   1.476   2.331
 4576WAT     H214248   2.313   1.336   2.278
 4577WAT      O14249   2.033   1.843   1.926
 4577WAT     H114250   2.011   1.821   2.017
 4577WAT     H214251   1.955   1.886   1.892
 4578WAT      O14252   2.756   1.844   1.786
 4578WAT     H114253   2.697   1.916   1.768
 4578WAT     H214254   2.811   1.837   1.708
 4579WAT      O14255   2.277   1.933   2.993
 4579WAT     H114256   2.268   1.839   2.978
 4579WAT     H214257   2.362   1.955   2.953
 4580WAT      O14258   2.617   1.707   1.989
 4580WAT     H114259   2.656   1.739   1.908
 4580WAT     H214260   2.653   1.619   2.000
 4581WAT      O14261   1.791   1.574   2.808
 4581WAT     H114262   1.751   1.659   2.829
 4581WAT     H214263   1.722   1.510   2.827
 4582WAT      O14264   2.448   1.582   3.115
 4582WAT     H114265   2.379   1.563   3.178
 4582WAT     H214266   2.522   1.611   3.168
 4583WAT      O14267   1.521   1.366   2.211
 4583WAT     H114268   1.492   1.423   2.283
 4583WAT     H214269   1.595   1.318   2.248
 4584WAT      O14270   1.539   1.761   1.332
 4584WAT     H114271   1.531   1.855   1.346
 4584WAT     H214272   1.504   1.746   1.244
 4585WAT      O14273   2.676   1.966   2.399
 4585WAT     H114274   2.602   2.017   2.433
 4585WAT     H214275   2.636   1.885   2.368
 4586WAT      O14276   2.319   1.634   2.239
 4586WAT     H114277   2.320   1.590   2.154
 4586WAT     H214278   2.409   1.666   2.250
 4587WAT      O14279   1.904   1.622   2.135
 4587WAT     H114280   1.870   1.670   2.211
 4587WAT     H214281   1.828   1.577   2.099
 4588WAT      O14282   2.326   1.734   1.538
 4588WAT     H114283   2.338   1.730   1.633
 4588WAT     H214284   2.287   1.820   1.523
 4589WAT      O14285   2.722   1.512   2.340
 4589WAT     H114286   2.724   1.557   2.424
 4589WAT     H214287   2.697   1.422   2.361
 4590WAT      O14288   2.227   1.965   1.478
 4590WAT     H114289   2.170   1.920   1.415
 4590WAT     H214290   2.298   2.001   1.425
 4591WAT      O14291   3.065   1.253   2.924
 4591WAT     H114292   3.097   1.180   2.976
 4591WAT     H214293   3.068   1.221   2.833
 4592WAT      O14294   2.350   2.040   2.414
 4592WAT     H114295   2.386   1.993   2.488
 4592WAT     H214296   2.331   2.127   2.448
 4593WAT      O14297   1.636   1.514   2.027
 4593WAT     H114298   1.607   1.478   2.110
 4593WAT     H214299   1.630   1.441   1.965
 4594WAT      O14300   2.128   1.944   2.646
 4594WAT     H114301   2.098   2.032   2.668
 4594WAT     H214302   2.224   1.950   2.649
 4595WAT      O14303   1.981   2.365   1.705
 4595WAT     H114304   1.904   2.311   1.689
 4595WAT     H214305   2.054   2.313   1.671
 4596WAT      O14306   2.603   1.404   1.699
 4596WAT     H114307   2.522   1.354   1.691
 4596WAT     H214308   2.584   1.488   1.657
 4597WAT      O14309   2.875   1.841   1.528
 4597WAT     H114310   2.964   1.872   1.511
 4597WAT     H214311   2.872   1.754   1.489
 4598WAT      O14312   1.986   2.331   2.069
 4598WAT     H114313   2.037   2.251   2.064
 4598WAT     H214314   1.941   2.325   2.153
 4599WAT      O14315   2.474   2.458   1.596
 4599WAT     H114316   2.509   2.533   1.547
 4599WAT     H214317   2.392   2.489   1.633
 4600WAT      O14318   1.734   2.028   2.760
 4600WAT     H114319   1.698   2.095   2.819
 4600WAT     H214320   1.705   1.945   2.797
 4601WAT      O14321   2.054   2.074   3.049
 4601WAT     H114322   2.024   2.088   2.959
 4601WAT     H214323   2.131   2.018   3.039
 4602WAT      O14324   3.102   1.972   1.475
 4602WAT     H114325   3.094   2.015   1.390
 4602WAT     H214326   3.174   2.018   1.518
 4603WAT      O14327   2.371   2.466   1.873
 4603WAT     H114328   2.440   2.521   1.912
 4603WAT     H214329   2.293   2.521   1.877
 4604WAT      O14330   1.585   2.028   1.423
 4604WAT     H114331   1.672   2.056   1.451
 4604WAT     H214332   1.536   2.109   1.411
 4605WAT      O14333   2.302   2.167   1.835
 4605WAT     H114334   2.347   2.248   1.857
 4605WAT     H214335   2.266   2.135   1.918
 4606WAT      O14336   1.892   1.201   1.882
 4606WAT     H114337   1.879   1.200   1.977
 4606WAT     H214338   1.809   1.235   1.847
 4607WAT      O14339   3.044   2.547   1.402
 4607WAT     H114340   3.021   2.475   1.461
 4607WAT     H214341   3.005   2.522   1.318
 4608WAT      O14342   1.622   2.949   1.479
 4608WAT     H114343   1.658   3.009   1.414
 4608WAT     H214344   1.608   3.004   1.557
 4609WAT      O14345   1.592   1.377   2.828
 4609WAT     H114346   1.520   1.397   2.888
 4609WAT     H214347   1.634   1.299   2.865
 4610WAT      O14348   3.002   2.338   1.568
 4610WAT     H114349   2.973   2.384   1.647
 4610WAT     H214350   3.081   2.292   1.595
 4611WAT      O14351   2.224   2.688   1.561
 4611WAT     H114352   2.223   2.761   1.499
 4611WAT     H214353   2.132   2.663   1.570
 4612WAT      O14354   1.784   2.210   1.635
 4612WAT     H114355   1.723   2.284   1.636
 4612WAT     H214356   1.831   2.219   1.553
 4613WAT      O14357   2.741   1.626   2.603
 4613WAT     H114358   2.778   1.544   2.636
 4613WAT     H214359   2.655   1.632   2.645
 4614WAT      O14360   3.078   1.522   1.684
 4614WAT     H114361   3.015   1.532   1.612
 4614WAT     H214362   3.028   1.544   1.763
 4615WAT      O14363   2.522   2.694   1.427
 4615WAT     H114364   2.532   2.673   1.334
 4615WAT     H214365   2.432   2.668   1.448
 4616WAT      O14366   2.274   1.750   1.825
 4616WAT     H114367   2.204   1.796   1.870
 4616WAT     H214368   2.303   1.684   1.889
 4617WAT      O14369   2.437   1.892   2.625
 4617WAT     H114370   2.487   1.939   2.692
 4617WAT     H214371   2.451   1.799   2.646
 4618WAT      O14372   2.678   1.422   1.969
 4618WAT     H114373   2.665   1.424   1.874
 4618WAT     H214374   2.772   1.427   1.981
 4619WAT      O14375   2.386   2.946   1.897
 4619WAT     H114376   2.412   2.942   1.804
 4619WAT     H214377   2.292   2.933   1.896
 4620WAT      O14378   2.095   1.580   1.563
 4620WAT     H114379   2.180   1.624   1.556
 4620WAT     H214380   2.058   1.612   1.646
 4621WAT      O14381   3.158   1.513   2.710
 4621WAT     H114382   3.107   1.587   2.744
 4621WAT     H214383   3.239   1.552   2.678
 4622WAT      O14384   1.985   2.206   1.410
 4622WAT     H114385   2.061   2.195   1.467
 4622WAT     H214386   1.992   2.136   1.345
 4623WAT      O14387   1.854   1.949   1.479
 4623WAT     H114388   1.862   1.854   1.490
 4623WAT     H214389   1.943   1.982   1.489
 4624WAT      O14390   1.623   2.571   1.776
 4624WAT     H114391   1.530   2.595   1.775
 4624WAT     H214392   1.669   2.653   1.764
 4625WAT      O14393   2.245   2.881   1.371
 4625WAT     H114394   2.325   2.910   1.326
 4625WAT     H214395   2.193   2.838   1.303
 4626WAT      O14396   3.151   2.804   1.514
 4626WAT     H114397   3.122   2.763   1.432
 4626WAT     H214398   3.131   2.897   1.502
 4627WAT      O14399   1.607   2.131   3.002
 4627WAT     H114400   1.657   2.073   3.059
 4627WAT     H214401   1.533   2.160   3.056
 4628WAT      O14402   2.297   2.403   1.358
 4628WAT     H114403   2.287   2.342   1.430
 4628WAT     H214404   2.280   2.351   1.279
 4629WAT      O14405   2.312   2.272   2.956
 4629WAT     H114406   2.236   2.329   2.947
 4629WAT     H214407   2.330   2.243   2.866
 4630WAT      O14408   2.621   2.310   1.418
 4630WAT     H114409   2.566   2.354   1.483
 4630WAT     H214410   2.683   2.259   1.470
 4631WAT      O14411   1.810   1.946   3.092
 4631WAT     H114412   1.814   1.916   3.183
 4631WAT     H214413   1.896   1.986   3.076
 4632WAT      O14414   2.188   2.205   1.608
 4632WAT     H114415   2.230   2.189   1.692
 4632WAT     H214416   2.200   2.124   1.558
 4633WAT      O14417   2.004   1.803   2.888
 4633WAT     H114418   1.951   1.754   2.826
 4633WAT     H214419   2.071   1.846   2.835
 4634WAT      O14420   2.439   2.108   1.333
 4634WAT     H114421   2.491   2.036   1.296
 4634WAT     H214422   2.504   2.172   1.363
 4635WAT      O14423   2.053   1.500   2.896
 4635WAT     H114424   2.043   1.438   2.824
 4635WAT     H214425   1.995   1.573   2.874
 4636WAT      O14426   2.330   1.356   2.600
 4636WAT     H114427   2.285   1.358   2.515
 4636WAT     H214428   2.266   1.316   2.659
 4637WAT      O14429   2.370   2.245   2.662
 4637WAT     H114430   2.412   2.330   2.645
 4637WAT     H214431   2.278   2.259   2.639
 4638WAT      O14432   2.604   2.018   2.800
 4638WAT     H114433   2.616   1.959   2.874
 4638WAT     H214434   2.690   2.022   2.758
 4639WAT      O14435   2.078   1.813   1.302
 4639WAT     H114436   2.057   1.726   1.338
 4639WAT     H214437   2.060   1.804   1.209
 4640WAT      O14438   2.280   1.673   2.926
 4640WAT     H114439   2.339   1.642   2.995
 4640WAT     H214440   2.199   1.625   2.942
 4641WAT      O14441   2.762   1.634   2.949
 4641WAT     H114442   2.694   1.568   2.943
 4641WAT     H214443   2.834   1.590   2.994
 4642WAT      O14444   2.825   1.294   1.555
 4642WAT     H114445   2.853   1.210   1.591
 4642WAT     H214446   2.748   1.317   1.607
 4643WAT      O14447   1.957   1.523   1.301
 4643WAT     H114448   1.988   1.523   1.210
 4643WAT     H214449   2.031   1.488   1.351
 4644WAT      O14450   2.279   1.417   1.400
 4644WAT     H114451   2.244   1.349   1.342
 4644WAT     H214452   2.299   1.371   1.481
 4645WAT      O14453   2.496   2.916   1.562
 4645WAT     H114454   2.585   2.950   1.564
 4645WAT     H214455   2.499   2.844   1.499
 4646WAT      O14456   1.860   2.453   1.384
 4646WAT     H114457   1.903   2.508   1.450
 4646WAT     H214458   1.908   2.371   1.385
 4647WAT      O14459   1.581   2.732   2.130
 4647WAT     H114460   1.614   2.645   2.106
 4647WAT     H214461   1.624   2.753   2.213
 4648WAT      O14462   2.041   2.565   1.896
 4648WAT     H114463   2.011   2.553   1.986
 4648WAT     H214464   2.030   2.479   1.855
 4649WAT      O14465   1.630   2.819   2.403
 4649WAT     H114466   1.586   2.837   2.487
 4649WAT     H214467   1.687   2.895   2.389
 4650WAT      O14468   3.318   2.543   1.366
 4650WAT     H114469   3.235   2.550   1.413
 4650WAT     H214470   3.335   2.632   1.336
 4651WAT      O14471   3.263   2.218   1.616
 4651WAT     H114472   3.339   2.275   1.627
 4651WAT     H214473   3.265   2.161   1.693
 4652WAT      O14474   1.613   2.070   2.039
 4652WAT     H114475   1.548   2.043   1.975
 4652WAT     H214476   1.697   2.059   1.994
 4653WAT      O14477   3.268   2.247   1.332
 4653WAT     H114478   3.296   2.338   1.319
 4653WAT     H214479   3.250   2.241   1.426
 4654WAT      O14480   2.908   1.549   1.461
 4654WAT     H114481   2.950   1.531   1.377
 4654WAT     H214482   2.878   1.464   1.493
 4655WAT      O14483   1.717   2.109   2.493
 4655WAT     H114484   1.754   2.100   2.581
 4655WAT     H214485   1.660   2.032   2.483
 4656WAT      O14486   1.672   1.800   2.884
 4656WAT     H114487   1.583   1.796   2.918
 4656WAT     H214488   1.726   1.820   2.960
 4657WAT      O14489   3.041   1.478   3.072
 4657WAT     H114490   3.129   1.479   3.111
 4657WAT     H214491   3.042   1.404   3.011
 4658WAT      O14492   1.535   1.791   1.634
 4658WAT     H114493   1.444   1.817   1.616
 4658WAT     H214494   1.583   1.818   1.556
 4659WAT      O14495   3.186   1.863   2.161
 4659WAT     H114496   3.238   1.814   2.098
 4659WAT     H214497   3.244   1.877   2.236
 4660WAT      O14498   1.789   1.697   1.424
 4660WAT     H114499   1.860   1.654   1.376
 4660WAT     H214500   1.717   1.703   1.361
 4661WAT      O14501   1.754   1.302   1.329
 4661WAT     H114502   1.826   1.356   1.360
 4661WAT     H214503   1.781   1.275   1.241
 4662WAT      O14504   3.135   1.789   1.755
 4662WAT     H114505   3.184   1.766   1.834
 4662WAT     H214506   3.115   1.705   1.714
 4663WAT      O14507   1.723   1.227   2.319
 4663WAT     H114508   1.787   1.172   2.275
 4663WAT     H214509   1.765   1.253   2.401
 4664WAT      O14510   3.277   1.653   2.009
 4664WAT     H114511   3.266   1.637   2.102
 4664WAT     H214512   3.354   1.600   1.984
 4665WAT      O14513   3.112   1.247   2.654
 4665WAT     H114514   3.176   1.308   2.691
 4665WAT     H214515   3.127   1.250   2.560
 4666WAT      O14516   3.366   1.436   1.333
 4666WAT     H114517   3.459   1.422   1.312
 4666WAT     H214518   3.364   1.444   1.428
 4667WAT      O14519   3.374   1.513   1.595
 4667WAT     H114520   3.294   1.506   1.648
 4667WAT     H214521   3.394   1.606   1.594
 4668WAT      O14522   1.698   1.243   2.593
 4668WAT     H114523   1.663   1.288   2.670
 4668WAT     H214524   1.665   1.153   2.601
 4669WAT      O14525   2.449   1.362   2.945
 4669WAT     H114526   2.443   1.421   3.020
 4669WAT     H214527   2.543   1.351   2.931
 4670WAT      O14528   2.713   1.327   2.909
 4670WAT     H114529   2.774   1.359   2.843
 4670WAT     H214530   2.767   1.279   2.971
 4671WAT      O14531   3.355   2.917   2.650
 4671WAT     H114532   3.305   2.957   2.578
 4671WAT     H214533   3.294   2.855   2.689
 4672WAT      O14534   1.765   1.195   2.921
 4672WAT     H114535   1.820   1.177   2.844
 4672WAT     H214536   1.772   1.116   2.974
 4673WAT      O14537   2.787   1.184   2.542
 4673WAT     H114538   2.700   1.217   2.522
 4673WAT     H214539   2.776   1.137   2.624
 4674WAT      O14540   2.878   1.405   2.680
 4674WAT     H114541   2.845   1.323   2.642
 4674WAT     H214542   2.972   1.400   2.668
 4675WAT      O14543   2.562   1.276   2.436
 4675WAT     H114544   2.483   1.323   2.464
 4675WAT     H214545   2.532   1.185   2.425
 4676WAT      O14546   3.017   1.346   2.240
 4676WAT     H114547   3.061   1.340   2.155
 4676WAT     H214548   2.990   1.437   2.247
 4677WAT      O14549   3.203   1.309   2.041
 4677WAT     H114550   3.197   1.215   2.027
 4677WAT     H214551   3.281   1.320   2.096
 4678WAT      O14552   1.634   2.923   1.938
 4678WAT     H114553   1.617   2.860   2.007
 4678WAT     H214554   1.547   2.943   1.902
 4679WAT      O14555   1.696   1.306   1.688
 4679WAT     H114556   1.772   1.317   1.631
 4679WAT     H214557   1.650   1.390   1.683
 4680WAT      O14558   2.350   1.517   1.987
 4680WAT     H114559   2.269   1.480   1.953
 4680WAT     H214560   2.401   1.442   2.017
 4681WAT      O14561   2.800   1.184   2.111
 4681WAT     H114562   2.861   1.241   2.158
 4681WAT     H214563   2.726   1.240   2.088
 4682WAT      O14564   3.115   1.224   1.638
 4682WAT     H114565   3.134   1.314   1.665
 4682WAT     H214566   3.036   1.201   1.687
 4683WAT      O14567   1.794   2.792   1.682
 4683WAT     H114568   1.742   2.830   1.612
 4683WAT     H214569   1.787   2.855   1.754
 4684WAT      O14570   1.933   1.359   1.542
 4684WAT     H114571   1.986   1.280   1.529
 4684WAT     H214572   1.997   1.427   1.565
 4685WAT      O14573   2.153   1.332   1.847
 4685WAT     H114574   2.090   1.262   1.864
 4685WAT     H214575   2.099   1.408   1.826
 4686WAT      O14576   2.165   1.260   3.091
 4686WAT     H114577   2.137   1.311   3.014
 4686WAT     H214578   2.203   1.180   3.054
 4687WAT      O14579   2.054   2.987   1.570
 4687WAT     H114580   2.128   2.959   1.515
 4687WAT     H214581   2.080   2.963   1.659
 4688WAT      O14582   1.971   2.599   1.570
 4688WAT     H114583   1.908   2.645   1.625
 4688WAT     H214584   1.982   2.514   1.613
 4689WAT      O14585   2.825   1.202   3.149
 4689WAT     H114586   2.814   1.234   3.238
 4689WAT     H214587   2.907   1.242   3.119
 4690WAT      O14588   2.529   2.181   0.373
 4690WAT     H114589   2.452   2.133   0.402
 4690WAT     H214590   2.594   2.114   0.356
 4691WAT      O14591   1.931   2.213   0.461
 4691WAT     H114592   1.848   2.187   0.501
 4691WAT     H214593   1.992   2.220   0.534
 4692WAT      O14594   2.931   2.622   0.251
 4692WAT     H114595   2.885   2.545   0.284
 4692WAT     H214596   3.013   2.625   0.302
 4693WAT      O14597   1.929   2.616   0.480
 4693WAT     H114598   1.959   2.527   0.463
 4693WAT     H214599   2.003   2.672   0.458
 4694WAT      O14600   1.568   1.969   0.428
 4694WAT     H114601   1.625   1.892   0.428
 4694WAT     H214602   1.568   1.999   0.337
 4695WAT      O14603   2.473   2.449   0.374
 4695WAT     H114604   2.466   2.355   0.358
 4695WAT     H214605   2.549   2.458   0.431
 4696WAT      O14606   1.692   1.510   0.606
 4696WAT     H114607   1.674   1.420   0.634
 4696WAT     H214608   1.652   1.564   0.674
 4697WAT      O14609   2.576   1.730   0.397
 4697WAT     H114610   2.614   1.642   0.385
 4697WAT     H214611   2.567   1.763   0.307
 4698WAT      O14612   1.754   1.759   0.467
 4698WAT     H114613   1.822   1.786   0.529
 4698WAT     H214614   1.723   1.675   0.501
 4699WAT      O14615   2.173   1.864   0.376
 4699WAT     H114616   2.224   1.914   0.440
 4699WAT     H214617   2.227   1.786   0.358
 4700WAT      O14618   3.384   1.681   0.746
 4700WAT     H114619   3.313   1.720   0.694
 4700WAT     H214620   3.410   1.750   0.806
 4701WAT      O14621   2.002   1.328   0.803
 4701WAT     H114622   2.002   1.380   0.722
 4701WAT     H214623   1.919   1.280   0.800
 4702WAT      O14624   2.127   2.292   0.620
 4702WAT     H114625   2.094   2.354   0.685
 4702WAT     H214626   2.145   2.344   0.542
 4703WAT      O14627   2.978   1.673   0.367
 4703WAT     H114628   2.908   1.702   0.425
 4703WAT     H214629   3.014   1.754   0.331
 4704WAT      O14630   1.970   1.499   0.603
 4704WAT     H114631   2.004   1.583   0.574
 4704WAT     H214632   1.876   1.514   0.615
 4705WAT      O14633   2.048   2.489   0.802
 4705WAT     H114634   2.110   2.556   0.774
 4705WAT     H214635   1.962   2.529   0.793
 4706WAT      O14636   3.140   2.635   0.593
 4706WAT     H114637   3.071   2.702   0.593
 4706WAT     H214638   3.194   2.655   0.517
 4707WAT      O14639   3.285   1.618   0.406
 4707WAT     H114640   3.190   1.621   0.419
 4707WAT     H214641   3.318   1.699   0.445
 4708WAT      O14642   2.893   2.819   0.465
 4708WAT     H114643   2.895   2.779   0.378
 4708WAT     H214644   2.838   2.897   0.454
 4709WAT      O14645   2.833   2.310   0.598
 4709WAT     H114646   2.875   2.288   0.514
 4709WAT     H214647   2.906   2.335   0.655
 4710WAT      O14648   3.228   2.150   0.607
 4710WAT     H114649   3.145   2.157   0.559
 4710WAT     H214650   3.287   2.208   0.560
 4711WAT      O14651   2.924   1.828   0.701
 4711WAT     H114652   2.883   1.911   0.727
 4711WAT     H214653   2.851   1.770   0.682
 4712WAT      O14654   2.184   2.476   0.404
 4712WAT     H114655   2.155   2.415   0.336
 4712WAT     H214656   2.279   2.479   0.393
 4713WAT      O14657   2.009   1.784   0.566
 4713WAT     H114658   2.064   1.795   0.488
 4713WAT     H214659   2.060   1.822   0.637
 4714WAT      O14660   2.993   2.833   0.770
 4714WAT     H114661   2.946   2.914   0.751
 4714WAT     H214662   2.925   2.768   0.785
 4715WAT      O14663   2.094   2.449   1.069
 4715WAT     H114664   2.004   2.472   1.094
 4715WAT     H214665   2.096   2.462   0.974
 4716WAT      O14666   1.976   2.137   0.927
 4716WAT     H114667   1.962   2.224   0.963
 4716WAT     H214668   1.888   2.102   0.912
 4717WAT      O14669   2.156   2.731   1.147
 4717WAT     H114670   2.153   2.771   1.061
 4717WAT     H214671   2.140   2.638   1.131
 4718WAT      O14672   3.351   2.809   1.277
 4718WAT     H114673   3.399   2.857   1.345
 4718WAT     H214674   3.413   2.802   1.205
 4719WAT      O14675   1.572   2.314   0.518
 4719WAT     H114676   1.579   2.327   0.424
 4719WAT     H214677   1.633   2.243   0.538
 4720WAT      O14678   3.292   2.528   0.993
 4720WAT     H114679   3.304   2.504   0.901
 4720WAT     H214680   3.296   2.445   1.040
 4721WAT      O14681   2.678   2.898   0.850
 4721WAT     H114682   2.729   2.890   0.930
 4721WAT     H214683   2.594   2.933   0.879
 4722WAT      O14684   3.277   1.733   1.090
 4722WAT     H114685   3.215   1.784   1.037
 4722WAT     H214686   3.245   1.643   1.084
 4723WAT      O14687   1.577   2.418   0.772
 4723WAT     H114688   1.593   2.371   0.690
 4723WAT     H214689   1.624   2.367   0.839
 4724WAT      O14690   2.054   1.331   0.276
 4724WAT     H114691   2.010   1.409   0.243
 4724WAT     H214692   2.110   1.363   0.347
 4725WAT      O14693   2.483   1.617   0.836
 4725WAT     H114694   2.437   1.638   0.917
 4725WAT     H214695   2.443   1.536   0.806
 4726WAT      O14696   2.983   1.739   0.949
 4726WAT     H114697   2.898   1.710   0.981
 4726WAT     H214698   2.967   1.764   0.858
 4727WAT      O14699   2.693   1.890   1.159
 4727WAT     H114700   2.725   1.806   1.125
 4727WAT     H214701   2.771   1.942   1.174
 4728WAT      O14702   2.258   1.385   0.462
 4728WAT     H114703   2.288   1.476   0.454
 4728WAT     H214704   2.313   1.336   0.400
 4729WAT      O14705   2.277   1.933   1.115
 4729WAT     H114706   2.268   1.839   1.100
 4729WAT     H214707   2.362   1.955   1.076
 4730WAT      O14708   1.791   1.574   0.931
 4730WAT     H114709   1.751   1.659   0.951
 4730WAT     H214710   1.722   1.510   0.950
 4731WAT      O14711   2.448   1.582   1.238
 4731WAT     H114712   2.379   1.563   1.301
 4731WAT     H214713   2.522   1.611   1.291
 4732WAT      O14714   1.521   1.366   0.334
 4732WAT     H114715   1.492   1.423   0.405
 4732WAT     H214716   1.595   1.318   0.370
 4733WAT      O14717   2.676   1.966   0.521
 4733WAT     H114718   2.602   2.017   0.556
 4733WAT     H214719   2.636   1.885   0.491
 4734WAT      O14720   2.319   1.634   0.362
 4734WAT     H114721   2.320   1.590   0.277
 4734WAT     H214722   2.409   1.666   0.372
 4735WAT      O14723   1.904   1.622   0.258
 4735WAT     H114724   1.870   1.670   0.333
 4735WAT     H214725   1.828   1.577   0.222
 4736WAT      O14726   2.722   1.512   0.462
 4736WAT     H114727   2.724   1.557   0.547
 4736WAT     H214728   2.697   1.422   0.484
 4737WAT      O14729   3.065   1.253   1.046
 4737WAT     H114730   3.097   1.180   1.099
 4737WAT     H214731   3.068   1.221   0.956
 4738WAT      O14732   1.735   2.355   0.988
 4738WAT     H114733   1.696   2.291   1.048
 4738WAT     H214734   1.766   2.426   1.045
 4739WAT      O14735   2.350   2.040   0.536
 4739WAT     H114736   2.386   1.993   0.611
 4739WAT     H214737   2.331   2.127   0.570
 4740WAT      O14738   2.128   1.944   0.768
 4740WAT     H114739   2.098   2.032   0.791
 4740WAT     H214740   2.224   1.950   0.772
 4741WAT      O14741   3.057   2.264   0.407
 4741WAT     H114742   3.129   2.314   0.368
 4741WAT     H214743   3.037   2.196   0.343
 4742WAT      O14744   2.595   2.271   0.996
 4742WAT     H114745   2.589   2.179   0.970
 4742WAT     H214746   2.532   2.281   1.067
 4743WAT      O14747   1.986   2.331   0.192
 4743WAT     H114748   2.037   2.251   0.186
 4743WAT     H214749   1.941   2.325   0.276
 4744WAT      O14750   1.734   2.028   0.883
 4744WAT     H114751   1.698   2.095   0.942
 4744WAT     H214752   1.705   1.945   0.920
 4745WAT      O14753   2.054   2.074   1.171
 4745WAT     H114754   2.024   2.088   1.081
 4745WAT     H214755   2.131   2.018   1.162
 4746WAT      O14756   2.589   2.554   0.971
 4746WAT     H114757   2.590   2.460   0.949
 4746WAT     H214758   2.518   2.562   1.035
 4747WAT      O14759   3.210   2.218   0.905
 4747WAT     H114760   3.137   2.277   0.886
 4747WAT     H214761   3.262   2.217   0.826
 4748WAT      O14762   2.763   2.390   0.255
 4748WAT     H114763   2.798   2.331   0.189
 4748WAT     H214764   2.674   2.358   0.272
 4749WAT      O14765   2.532   2.718   0.680
 4749WAT     H114766   2.596   2.738   0.748
 4749WAT     H214767   2.568   2.642   0.635
 4750WAT      O14768   2.659   2.518   0.552
 4750WAT     H114769   2.723   2.448   0.563
 4750WAT     H214770   2.712   2.596   0.534
 4751WAT      O14771   2.837   2.598   0.872
 4751WAT     H114772   2.870   2.657   0.940
 4751WAT     H214773   2.745   2.585   0.895
 4752WAT      O14774   1.592   1.377   0.951
 4752WAT     H114775   1.520   1.397   1.011
 4752WAT     H214776   1.634   1.299   0.988
 4753WAT      O14777   1.620   2.776   1.049
 4753WAT     H114778   1.631   2.682   1.035
 4753WAT     H214779   1.555   2.802   0.984
 4754WAT      O14780   2.419   2.603   1.189
 4754WAT     H114781   2.387   2.531   1.244
 4754WAT     H214782   2.352   2.670   1.197
 4755WAT      O14783   2.741   1.626   0.726
 4755WAT     H114784   2.778   1.544   0.758
 4755WAT     H214785   2.655   1.632   0.767
 4756WAT      O14786   2.437   1.892   0.748
 4756WAT     H114787   2.487   1.939   0.814
 4756WAT     H214788   2.451   1.799   0.769
 4757WAT      O14789   3.158   1.513   0.832
 4757WAT     H114790   3.107   1.587   0.866
 4757WAT     H214791   3.239   1.552   0.801
 4758WAT      O14792   2.987   2.038   0.177
 4758WAT     H114793   2.893   2.039   0.194
 4758WAT     H214794   3.018   1.959   0.221
 4759WAT      O14795   3.187   2.755   0.344
 4759WAT     H114796   3.200   2.837   0.392
 4759WAT     H214797   3.274   2.734   0.310
 4760WAT      O14798   1.934   2.964   0.312
 4760WAT     H114799   2.008   2.909   0.339
 4760WAT     H214800   1.973   3.051   0.298
 4761WAT      O14801   1.835   2.882   1.230
 4761WAT     H114802   1.915   2.915   1.272
 4761WAT     H214803   1.783   2.846   1.303
 4762WAT      O14804   2.719   2.493   1.225
 4762WAT     H114805   2.658   2.496   1.151
 4762WAT     H214806   2.688   2.420   1.279
 4763WAT      O14807   2.862   2.866   1.086
 4763WAT     H114808   2.957   2.858   1.081
 4763WAT     H214809   2.847   2.932   1.154
 4764WAT      O14810   1.607   2.131   1.125
 4764WAT     H114811   1.657   2.073   1.182
 4764WAT     H214812   1.533   2.160   1.179
 4765WAT      O14813   2.312   2.272   1.078
 4765WAT     H114814   2.236   2.329   1.070
 4765WAT     H214815   2.330   2.243   0.989
 4766WAT      O14816   3.027   2.445   1.134
 4766WAT     H114817   3.101   2.479   1.084
 4766WAT     H214818   2.950   2.462   1.079
 4767WAT      O14819   1.810   1.946   1.214
 4767WAT     H114820   1.814   1.916   1.305
 4767WAT     H214821   1.896   1.986   1.198
 4768WAT      O14822   2.004   1.803   1.011
 4768WAT     H114823   1.951   1.754   0.948
 4768WAT     H214824   2.071   1.846   0.958
 4769WAT      O14825   2.894   2.250   0.987
 4769WAT     H114826   2.935   2.266   1.072
 4769WAT     H214827   2.800   2.263   1.004
 4770WAT      O14828   2.941   1.984   1.188
 4770WAT     H114829   2.999   1.909   1.179
 4770WAT     H214830   2.959   2.037   1.110
 4771WAT      O14831   2.053   1.500   1.019
 4771WAT     H114832   2.043   1.438   0.946
 4771WAT     H214833   1.995   1.573   0.996
 4772WAT      O14834   2.330   1.356   0.722
 4772WAT     H114835   2.285   1.358   0.638
 4772WAT     H214836   2.266   1.316   0.782
 4773WAT      O14837   2.370   2.245   0.784
 4773WAT     H114838   2.412   2.330   0.767
 4773WAT     H214839   2.278   2.259   0.761
 4774WAT      O14840   2.604   2.018   0.923
 4774WAT     H114841   2.616   1.959   0.997
 4774WAT     H214842   2.690   2.022   0.881
 4775WAT      O14843   2.838   2.074   0.780
 4775WAT     H114844   2.785   2.126   0.720
 4775WAT     H214845   2.872   2.137   0.843
 4776WAT      O14846   2.155   2.876   0.896
 4776WAT     H114847   2.101   2.948   0.864
 4776WAT     H214848   2.181   2.828   0.817
 4777WAT      O14849   2.280   1.673   1.049
 4777WAT     H114850   2.339   1.642   1.117
 4777WAT     H214851   2.199   1.625   1.064
 4778WAT      O14852   2.762   1.634   1.072
 4778WAT     H114853   2.694   1.568   1.065
 4778WAT     H214854   2.834   1.590   1.116
 4779WAT      O14855   2.441   2.999   0.922
 4779WAT     H114856   2.433   3.090   0.953
 4779WAT     H214857   2.351   2.967   0.919
 4780WAT      O14858   1.581   2.732   0.252
 4780WAT     H114859   1.614   2.645   0.229
 4780WAT     H214860   1.624   2.753   0.335
 4781WAT      O14861   1.630   2.819   0.526
 4781WAT     H114862   1.586   2.837   0.609
 4781WAT     H214863   1.687   2.895   0.512
 4782WAT      O14864   3.194   2.769   0.955
 4782WAT     H114865   3.134   2.775   0.880
 4782WAT     H214866   3.207   2.675   0.968
 4783WAT      O14867   3.364   2.303   0.223
 4783WAT     H114868   3.401   2.225   0.183
 4783WAT     H214869   3.428   2.372   0.205
 4784WAT      O14870   3.062   2.442   0.765
 4784WAT     H114871   2.981   2.484   0.791
 4784WAT     H214872   3.103   2.503   0.703
 4785WAT      O14873   1.717   2.109   0.616
 4785WAT     H114874   1.754   2.100   0.704
 4785WAT     H214875   1.660   2.032   0.606
 4786WAT      O14876   3.197   1.955   0.917
 4786WAT     H114877   3.174   1.933   0.827
 4786WAT     H214878   3.223   2.047   0.913
 4787WAT      O14879   1.672   1.800   1.006
 4787WAT     H114880   1.583   1.796   1.040
 4787WAT     H214881   1.726   1.820   1.083
 4788WAT      O14882   3.041   1.478   1.195
 4788WAT     H114883   3.129   1.479   1.233
 4788WAT     H214884   3.042   1.404   1.134
 4789WAT      O14885   3.186   1.863   0.284
 4789WAT     H114886   3.238   1.814   0.221
 4789WAT     H214887   3.244   1.877   0.358
 4790WAT      O14888   3.203   1.872   0.636
 4790WAT     H114889   3.108   1.868   0.648
 4790WAT     H214890   3.222   1.963   0.613
 4791WAT      O14891   1.723   1.227   0.441
 4791WAT     H114892   1.787   1.172   0.397
 4791WAT     H214893   1.765   1.253   0.523
 4792WAT      O14894   3.112   1.247   0.777
 4792WAT     H114895   3.176   1.308   0.814
 4792WAT     H214896   3.127   1.250   0.683
 4793WAT      O14897   1.698   1.243   0.716
 4793WAT     H114898   1.663   1.288   0.792
 4793WAT     H214899   1.665   1.153   0.724
 4794WAT      O14900   1.859   2.560   1.132
 4794WAT     H114901   1.854   2.523   1.220
 4794WAT     H214902   1.872   2.654   1.146
 4795WAT      O14903   2.229   2.715   0.692
 4795WAT     H114904   2.204   2.742   0.603
 4795WAT     H214905   2.323   2.733   0.698
 4796WAT      O14906   2.449   1.362   1.068
 4796WAT     H114907   2.443   1.421   1.143
 4796WAT     H214908   2.543   1.351   1.053
 4797WAT      O14909   2.713   1.327   1.032
 4797WAT     H114910   2.774   1.359   0.965
 4797WAT     H214911   2.767   1.279   1.094
 4798WAT      O14912   3.355   2.917   0.772
 4798WAT     H114913   3.305   2.957   0.701
 4798WAT     H214914   3.294   2.855   0.812
 4799WAT      O14915   1.765   1.195   1.043
 4799WAT     H114916   1.820   1.177   0.967
 4799WAT     H214917   1.772   1.116   1.097
 4800WAT      O14918   1.842   2.854   0.844
 4800WAT     H114919   1.783   2.841   0.918
 4800WAT     H214920   1.842   2.771   0.797
 4801WAT      O14921   2.787   1.184   0.664
 4801WAT     H114922   2.700   1.217   0.644
 4801WAT     H214923   2.776   1.137   0.747
 4802WAT      O14924   2.878   1.405   0.803
 4802WAT     H114925   2.845   1.323   0.765
 4802WAT     H214926   2.972   1.400   0.790
 4803WAT      O14927   3.123   2.982   0.500
 4803WAT     H114928   3.077   3.057   0.463
 4803WAT     H214929   3.060   2.910   0.494
 4804WAT      O14930   1.806   2.591   0.739
 4804WAT     H114931   1.733   2.529   0.732
 4804WAT     H214932   1.812   2.630   0.652
 4805WAT      O14933   2.166   2.813   0.418
 4805WAT     H114934   2.218   2.751   0.365
 4805WAT     H214935   2.231   2.863   0.467
 4806WAT      O14936   2.440   2.902   0.500
 4806WAT     H114937   2.469   2.876   0.413
 4806WAT     H214938   2.491   2.846   0.559
 4807WAT      O14939   2.562   1.276   0.558
 4807WAT     H114940   2.483   1.323   0.586
 4807WAT     H214941   2.532   1.185   0.547
 4808WAT      O14942   3.017   1.346   0.363
 4808WAT     H114943   3.061   1.340   0.278
 4808WAT     H214944   2.990   1.437   0.370
 4809WAT      O14945   2.800   1.184   0.233
 4809WAT     H114946   2.861   1.241   0.281
 4809WAT     H214947   2.726   1.240   0.211
 4810WAT      O14948   2.447   2.994   1.237
 4810WAT     H114949   2.539   2.970   1.241
 4810WAT     H214950   2.445   3.076   1.189
 4811WAT      O14951   2.165   1.260   1.213
 4811WAT     H114952   2.137   1.311   1.137
 4811WAT     H214953   2.203   1.180   1.177
 4812WAT      O14954   2.825   1.202   1.271
 4812WAT     H114955   2.814   1.234   1.361
 4812WAT     H214956   2.907   1.242   1.242
 4813WAT      O14957   3.103   2.916   1.219
 4813WAT     H114958   3.183   2.867   1.199
 4813WAT     H214959   3.133   2.984   1.280
 4814WAT      O14960   2.529   0.304   6.005
 4814WAT     H114961   2.452   0.256   6.034
 4814WAT     H214962   2.594   0.236   5.988
 4815WAT      O14963   2.931   0.745   5.883
 4815WAT     H114964   2.885   0.668   5.916
 4815WAT     H214965   3.013   0.747   5.934
 4816WAT      O14966   1.929   0.739   6.113
 4816WAT     H114967   1.959   0.650   6.095
 4816WAT     H214968   2.003   0.794   6.090
 4817WAT      O14969   2.554   0.973   5.845
 4817WAT     H114970   2.492   1.019   5.788
 4817WAT     H214971   2.639   0.989   5.805
 4818WAT      O14972   2.473   0.572   6.006
 4818WAT     H114973   2.466   0.478   5.990
 4818WAT     H214974   2.549   0.581   6.063
 4819WAT      O14975   2.641   0.462   5.585
 4819WAT     H114976   2.579   0.508   5.528
 4819WAT     H214977   2.692   0.531   5.626
 4820WAT      O14978   1.577   0.530   5.322
 4820WAT     H114979   1.540   0.579   5.249
 4820WAT     H214980   1.603   0.597   5.385
 4821WAT      O14981   2.893   0.942   6.097
 4821WAT     H114982   2.895   0.902   6.010
 4821WAT     H214983   2.838   1.019   6.087
 4822WAT      O14984   3.023   0.614   5.606
 4822WAT     H114985   3.012   0.520   5.618
 4822WAT     H214986   3.023   0.650   5.695
 4823WAT      O14987   2.577   0.177   5.542
 4823WAT     H114988   2.484   0.170   5.565
 4823WAT     H214989   2.592   0.271   5.530
 4824WAT      O14990   2.980   0.333   5.592
 4824WAT     H114991   2.918   0.299   5.527
 4824WAT     H214992   2.978   0.269   5.663
 4825WAT      O14993   2.138   0.229   5.820
 4825WAT     H114994   2.097   0.158   5.770
 4825WAT     H214995   2.146   0.195   5.909
 4826WAT      O14996   2.184   0.598   6.036
 4826WAT     H114997   2.155   0.538   5.968
 4826WAT     H214998   2.279   0.602   6.025
 4827WAT      O14999   2.798   0.257   5.293
 4827WAT     H115000   2.842   0.173   5.278
 4827WAT     H215001   2.869   0.320   5.301
 4828WAT      O15002   2.609   0.751   5.690
 4828WAT     H115003   2.653   0.825   5.648
 4828WAT     H215004   2.603   0.775   5.782
 4829WAT      O15005   1.696   0.606   5.792
 4829WAT     H115006   1.655   0.620   5.706
 4829WAT     H215007   1.785   0.578   5.771
 4830WAT      O15008   2.875   1.050   5.425
 4830WAT     H115009   2.859   1.021   5.515
 4830WAT     H215010   2.859   0.972   5.372
 4831WAT      O15011   2.123   1.028   5.603
 4831WAT     H115012   2.106   0.936   5.582
 4831WAT     H215013   2.038   1.063   5.627
 4832WAT      O15014   2.846   0.800   5.281
 4832WAT     H115015   2.776   0.800   5.215
 4832WAT     H215016   2.920   0.758   5.238
 4833WAT      O15017   2.802   0.963   5.689
 4833WAT     H115018   2.848   0.885   5.720
 4833WAT     H215019   2.836   1.034   5.743
 4834WAT      O15020   1.981   0.487   5.460
 4834WAT     H115021   1.904   0.433   5.444
 4834WAT     H215022   2.054   0.435   5.426
 4835WAT      O15023   3.057   0.387   6.039
 4835WAT     H115024   3.129   0.436   6.000
 4835WAT     H215025   3.037   0.319   5.975
 4836WAT      O15026   1.986   0.454   5.824
 4836WAT     H115027   2.037   0.374   5.818
 4836WAT     H215028   1.941   0.448   5.908
 4837WAT      O15029   2.474   0.581   5.351
 4837WAT     H115030   2.509   0.655   5.302
 4837WAT     H215031   2.392   0.612   5.387
 4838WAT      O15032   3.205   0.780   5.503
 4838WAT     H115033   3.141   0.715   5.530
 4838WAT     H215034   3.166   0.821   5.425
 4839WAT      O15035   2.763   0.513   5.888
 4839WAT     H115036   2.798   0.453   5.822
 4839WAT     H215037   2.674   0.480   5.905
 4840WAT      O15038   2.371   0.589   5.628
 4840WAT     H115039   2.440   0.643   5.666
 4840WAT     H215040   2.293   0.643   5.632
 4841WAT      O15041   2.302   0.289   5.590
 4841WAT     H115042   2.347   0.370   5.612
 4841WAT     H215043   2.266   0.257   5.673
 4842WAT      O15044   3.044   0.669   5.157
 4842WAT     H115045   3.021   0.597   5.216
 4842WAT     H215046   3.005   0.644   5.073
 4843WAT      O15047   1.622   1.072   5.234
 4843WAT     H115048   1.658   1.132   5.169
 4843WAT     H215049   1.608   1.126   5.311
 4844WAT      O15050   3.002   0.461   5.323
 4844WAT     H115051   2.973   0.507   5.402
 4844WAT     H215052   3.081   0.415   5.350
 4845WAT      O15053   2.224   0.810   5.316
 4845WAT     H115054   2.223   0.883   5.254
 4845WAT     H215055   2.132   0.785   5.325
 4846WAT      O15056   1.784   0.332   5.390
 4846WAT     H115057   1.723   0.406   5.391
 4846WAT     H215058   1.831   0.341   5.308
 4847WAT      O15059   2.522   0.816   5.182
 4847WAT     H115060   2.532   0.796   5.089
 4847WAT     H215061   2.432   0.791   5.203
 4848WAT      O15062   2.386   1.068   5.652
 4848WAT     H115063   2.412   1.064   5.559
 4848WAT     H215064   2.292   1.056   5.651
 4849WAT      O15065   1.985   0.328   5.165
 4849WAT     H115066   2.061   0.317   5.221
 4849WAT     H215067   1.992   0.259   5.100
 4850WAT      O15068   3.187   0.877   5.977
 4850WAT     H115069   3.200   0.960   6.024
 4850WAT     H215070   3.274   0.856   5.942
 4851WAT      O15071   1.934   1.087   5.944
 4851WAT     H115072   2.008   1.032   5.971
 4851WAT     H215073   1.973   1.173   5.930
 4852WAT      O15074   1.623   0.693   5.531
 4852WAT     H115075   1.530   0.718   5.530
 4852WAT     H215076   1.669   0.776   5.519
 4853WAT      O15077   2.245   1.004   5.126
 4853WAT     H115078   2.325   1.033   5.081
 4853WAT     H215079   2.193   0.961   5.058
 4854WAT      O15080   3.151   0.927   5.268
 4854WAT     H115081   3.122   0.885   5.187
 4854WAT     H215082   3.131   1.019   5.256
 4855WAT      O15083   2.297   0.526   5.113
 4855WAT     H115084   2.287   0.464   5.185
 4855WAT     H215085   2.280   0.474   5.034
 4856WAT      O15086   2.621   0.432   5.173
 4856WAT     H115087   2.566   0.477   5.237
 4856WAT     H215088   2.683   0.382   5.225
 4857WAT      O15089   2.188   0.328   5.363
 4857WAT     H115090   2.230   0.311   5.447
 4857WAT     H215091   2.200   0.247   5.313
 4858WAT      O15092   2.439   0.230   5.087
 4858WAT     H115093   2.491   0.159   5.051
 4858WAT     H215094   2.504   0.294   5.117
 4859WAT      O15095   2.496   1.039   5.316
 4859WAT     H115096   2.585   1.072   5.319
 4859WAT     H215097   2.499   0.966   5.254
 4860WAT      O15098   1.860   0.576   5.139
 4860WAT     H115099   1.903   0.630   5.205
 4860WAT     H215100   1.908   0.493   5.140
 4861WAT      O15101   1.581   0.855   5.884
 4861WAT     H115102   1.614   0.768   5.861
 4861WAT     H215103   1.624   0.875   5.968
 4862WAT      O15104   2.041   0.688   5.650
 4862WAT     H115105   2.011   0.675   5.741
 4862WAT     H215106   2.030   0.602   5.610
 4863WAT      O15107   3.318   0.666   5.121
 4863WAT     H115108   3.235   0.672   5.168
 4863WAT     H215109   3.335   0.755   5.090
 4864WAT      O15110   3.263   0.340   5.371
 4864WAT     H115111   3.339   0.397   5.382
 4864WAT     H215112   3.265   0.283   5.448
 4865WAT      O15113   1.613   0.193   5.794
 4865WAT     H115114   1.548   0.166   5.730
 4865WAT     H215115   1.697   0.182   5.749
 4866WAT      O15116   3.364   0.426   5.856
 4866WAT     H115117   3.401   0.347   5.815
 4866WAT     H215118   3.428   0.495   5.838
 4867WAT      O15119   3.268   0.370   5.087
 4867WAT     H115120   3.296   0.460   5.074
 4867WAT     H215121   3.250   0.363   5.180
 4868WAT      O15122   3.068   1.039   5.749
 4868WAT     H115123   3.127   1.007   5.682
 4868WAT     H215124   3.094   0.992   5.829
 4869WAT      O15125   3.123   1.104   6.132
 4869WAT     H115126   3.077   1.179   6.095
 4869WAT     H215127   3.060   1.032   6.127
 4870WAT      O15128   2.166   0.935   6.050
 4870WAT     H115129   2.218   0.874   5.997
 4870WAT     H215130   2.231   0.985   6.099
 4871WAT      O15131   1.634   1.045   5.692
 4871WAT     H115132   1.617   0.982   5.762
 4871WAT     H215133   1.547   1.066   5.657
 4872WAT      O15134   1.794   0.915   5.437
 4872WAT     H115135   1.742   0.953   5.367
 4872WAT     H215136   1.787   0.977   5.509
 4873WAT      O15137   3.270   1.071   5.569
 4873WAT     H115138   3.288   1.002   5.505
 4873WAT     H215139   3.200   1.123   5.530
 4874WAT      O15140   2.054   1.110   5.324
 4874WAT     H115141   2.128   1.081   5.270
 4874WAT     H215142   2.080   1.086   5.413
 4875WAT      O15143   1.971   0.721   5.325
 4875WAT     H115144   1.908   0.768   5.380
 4875WAT     H215145   1.982   0.637   5.368
 4876WAT      O15146   2.529   0.304   4.128
 4876WAT     H115147   2.452   0.256   4.157
 4876WAT     H215148   2.594   0.236   4.111
 4877WAT      O15149   1.931   0.335   4.216
 4877WAT     H115150   1.848   0.310   4.256
 4877WAT     H215151   1.992   0.342   4.289
 4878WAT      O15152   2.931   0.745   4.006
 4878WAT     H115153   2.885   0.668   4.039
 4878WAT     H215154   3.013   0.747   4.057
 4879WAT      O15155   1.929   0.739   4.235
 4879WAT     H115156   1.959   0.650   4.217
 4879WAT     H215157   2.003   0.794   4.213
 4880WAT      O15158   2.554   0.973   3.968
 4880WAT     H115159   2.492   1.019   3.911
 4880WAT     H215160   2.639   0.989   3.928
 4881WAT      O15161   2.473   0.572   4.129
 4881WAT     H115162   2.466   0.478   4.113
 4881WAT     H215163   2.549   0.581   4.186
 4882WAT      O15164   2.641   0.462   3.707
 4882WAT     H115165   2.579   0.508   3.651
 4882WAT     H215166   2.692   0.531   3.749
 4883WAT      O15167   2.127   0.414   4.375
 4883WAT     H115168   2.094   0.477   4.439
 4883WAT     H215169   2.145   0.467   4.297
 4884WAT      O15170   2.048   0.611   4.557
 4884WAT     H115171   2.110   0.679   4.529
 4884WAT     H215172   1.962   0.652   4.548
 4885WAT      O15173   1.577   0.530   3.445
 4885WAT     H115174   1.540   0.579   3.372
 4885WAT     H215175   1.603   0.597   3.508
 4886WAT      O15176   3.140   0.758   4.348
 4886WAT     H115177   3.071   0.825   4.347
 4886WAT     H215178   3.194   0.777   4.272
 4887WAT      O15179   2.893   0.942   4.220
 4887WAT     H115180   2.895   0.902   4.133
 4887WAT     H215181   2.838   1.019   4.209
 4888WAT      O15182   3.023   0.614   3.729
 4888WAT     H115183   3.012   0.520   3.741
 4888WAT     H215184   3.023   0.650   3.817
 4889WAT      O15185   2.833   0.432   4.352
 4889WAT     H115186   2.875   0.411   4.269
 4889WAT     H215187   2.906   0.458   4.410
 4890WAT      O15188   2.577   0.177   3.664
 4890WAT     H115189   2.484   0.170   3.687
 4890WAT     H215190   2.592   0.271   3.653
 4891WAT      O15191   3.228   0.272   4.362
 4891WAT     H115192   3.145   0.279   4.314
 4891WAT     H215193   3.287   0.331   4.315
 4892WAT      O15194   2.980   0.333   3.715
 4892WAT     H115195   2.918   0.299   3.650
 4892WAT     H215196   2.978   0.269   3.785
 4893WAT      O15197   2.138   0.229   3.942
 4893WAT     H115198   2.097   0.158   3.893
 4893WAT     H215199   2.146   0.195   4.031
 4894WAT      O15200   2.184   0.598   4.159
 4894WAT     H115201   2.155   0.538   4.091
 4894WAT     H215202   2.279   0.602   4.148
 4895WAT      O15203   2.993   0.955   4.525
 4895WAT     H115204   2.946   1.036   4.506
 4895WAT     H215205   2.925   0.890   4.540
 4896WAT      O15206   2.094   0.572   4.824
 4896WAT     H115207   2.004   0.594   4.849
 4896WAT     H215208   2.096   0.584   4.729
 4897WAT      O15209   2.798   0.257   3.415
 4897WAT     H115210   2.842   0.173   3.401
 4897WAT     H215211   2.869   0.320   3.424
 4898WAT      O15212   1.976   0.259   4.681
 4898WAT     H115213   1.962   0.346   4.718
 4898WAT     H215214   1.888   0.225   4.667
 4899WAT      O15215   2.609   0.751   3.812
 4899WAT     H115216   2.653   0.825   3.771
 4899WAT     H215217   2.603   0.775   3.904
 4900WAT      O15218   2.156   0.853   4.902
 4900WAT     H115219   2.153   0.894   4.816
 4900WAT     H215220   2.140   0.760   4.886
 4901WAT      O15221   3.351   0.932   5.032
 4901WAT     H115222   3.399   0.979   5.100
 4901WAT     H215223   3.413   0.925   4.959
 4902WAT      O15224   1.572   0.436   4.273
 4902WAT     H115225   1.579   0.450   4.179
 4902WAT     H215226   1.633   0.365   4.292
 4903WAT      O15227   1.696   0.606   3.914
 4903WAT     H115228   1.655   0.620   3.829
 4903WAT     H215229   1.785   0.578   3.894
 4904WAT      O15230   3.292   0.651   4.748
 4904WAT     H115231   3.304   0.627   4.656
 4904WAT     H215232   3.296   0.568   4.795
 4905WAT      O15233   2.678   1.021   4.605
 4905WAT     H115234   2.729   1.012   4.685
 4905WAT     H215235   2.594   1.056   4.634
 4906WAT      O15236   2.875   1.050   3.548
 4906WAT     H115237   2.859   1.021   3.638
 4906WAT     H215238   2.859   0.972   3.494
 4907WAT      O15239   2.123   1.028   3.725
 4907WAT     H115240   2.106   0.936   3.704
 4907WAT     H215241   2.038   1.063   3.749
 4908WAT      O15242   2.846   0.800   3.404
 4908WAT     H115243   2.776   0.800   3.338
 4908WAT     H215244   2.920   0.758   3.361
 4909WAT      O15245   2.802   0.963   3.811
 4909WAT     H115246   2.848   0.885   3.843
 4909WAT     H215247   2.836   1.034   3.866
 4910WAT      O15248   1.577   0.540   4.527
 4910WAT     H115249   1.593   0.493   4.445
 4910WAT     H215250   1.624   0.489   4.594
 4911WAT      O15251   1.735   0.478   4.743
 4911WAT     H115252   1.696   0.414   4.803
 4911WAT     H215253   1.766   0.548   4.800
 4912WAT      O15254   1.981   0.487   3.583
 4912WAT     H115255   1.904   0.433   3.567
 4912WAT     H215256   2.054   0.435   3.549
 4913WAT      O15257   3.057   0.387   4.162
 4913WAT     H115258   3.129   0.436   4.123
 4913WAT     H215259   3.037   0.319   4.097
 4914WAT      O15260   2.595   0.394   4.751
 4914WAT     H115261   2.589   0.302   4.725
 4914WAT     H215262   2.532   0.404   4.822
 4915WAT      O15263   1.986   0.454   3.946
 4915WAT     H115264   2.037   0.374   3.941
 4915WAT     H215265   1.941   0.448   4.031
 4916WAT      O15266   2.474   0.581   3.474
 4916WAT     H115267   2.509   0.655   3.424
 4916WAT     H215268   2.392   0.612   3.510
 4917WAT      O15269   2.589   0.676   4.726
 4917WAT     H115270   2.590   0.583   4.704
 4917WAT     H215271   2.518   0.685   4.790
 4918WAT      O15272   3.210   0.340   4.660
 4918WAT     H115273   3.137   0.400   4.641
 4918WAT     H215274   3.262   0.339   4.580
 4919WAT      O15275   3.205   0.780   3.625
 4919WAT     H115276   3.141   0.715   3.653
 4919WAT     H215277   3.166   0.821   3.548
 4920WAT      O15278   2.763   0.513   4.010
 4920WAT     H115279   2.798   0.453   3.944
 4920WAT     H215280   2.674   0.480   4.027
 4921WAT      O15281   2.371   0.589   3.751
 4921WAT     H115282   2.440   0.643   3.789
 4921WAT     H215283   2.293   0.643   3.754
 4922WAT      O15284   2.302   0.289   3.712
 4922WAT     H115285   2.347   0.370   3.735
 4922WAT     H215286   2.266   0.257   3.795
 4923WAT      O15287   2.532   0.840   4.435
 4923WAT     H115288   2.596   0.861   4.503
 4923WAT     H215289   2.568   0.764   4.390
 4924WAT      O15290   2.659   0.641   4.307
 4924WAT     H115291   2.723   0.571   4.318
 4924WAT     H215292   2.712   0.719   4.289
 4925WAT      O15293   3.044   0.669   3.279
 4925WAT     H115294   3.021   0.597   3.338
 4925WAT     H215295   3.005   0.644   3.195
 4926WAT      O15296   2.837   0.721   4.627
 4926WAT     H115297   2.870   0.779   4.695
 4926WAT     H215298   2.745   0.708   4.650
 4927WAT      O15299   1.622   1.072   3.357
 4927WAT     H115300   1.658   1.132   3.291
 4927WAT     H215301   1.608   1.126   3.434
 4928WAT      O15302   3.002   0.461   3.445
 4928WAT     H115303   2.973   0.507   3.524
 4928WAT     H215304   3.081   0.415   3.472
 4929WAT      O15305   1.620   0.898   4.804
 4929WAT     H115306   1.631   0.804   4.790
 4929WAT     H215307   1.555   0.925   4.739
 4930WAT      O15308   2.419   0.726   4.944
 4930WAT     H115309   2.387   0.654   4.999
 4930WAT     H215310   2.352   0.793   4.951
 4931WAT      O15311   2.224   0.810   3.438
 4931WAT     H115312   2.223   0.883   3.377
 4931WAT     H215313   2.132   0.785   3.448
 4932WAT      O15314   1.784   0.332   3.513
 4932WAT     H115315   1.723   0.406   3.514
 4932WAT     H215316   1.831   0.341   3.430
 4933WAT      O15317   2.522   0.816   3.305
 4933WAT     H115318   2.532   0.796   3.212
 4933WAT     H215319   2.432   0.791   3.325
 4934WAT      O15320   2.386   1.068   3.774
 4934WAT     H115321   2.412   1.064   3.682
 4934WAT     H215322   2.292   1.056   3.773
 4935WAT      O15323   1.985   0.328   3.288
 4935WAT     H115324   2.061   0.317   3.344
 4935WAT     H215325   1.992   0.259   3.223
 4936WAT      O15326   3.187   0.877   4.099
 4936WAT     H115327   3.200   0.960   4.146
 4936WAT     H215328   3.274   0.856   4.064
 4937WAT      O15329   1.934   1.087   4.066
 4937WAT     H115330   2.008   1.032   4.093
 4937WAT     H215331   1.973   1.173   4.052
 4938WAT      O15332   1.623   0.693   3.654
 4938WAT     H115333   1.530   0.718   3.653
 4938WAT     H215334   1.669   0.776   3.642
 4939WAT      O15335   1.835   1.005   4.985
 4939WAT     H115336   1.915   1.037   5.027
 4939WAT     H215337   1.783   0.969   5.057
 4940WAT      O15338   2.245   1.004   3.249
 4940WAT     H115339   2.325   1.033   3.203
 4940WAT     H215340   2.193   0.961   3.181
 4941WAT      O15341   2.719   0.616   4.980
 4941WAT     H115342   2.658   0.618   4.906
 4941WAT     H215343   2.688   0.543   5.034
 4942WAT      O15344   2.862   0.989   4.841
 4942WAT     H115345   2.957   0.980   4.836
 4942WAT     H215346   2.847   1.055   4.908
 4943WAT      O15347   3.151   0.927   3.391
 4943WAT     H115348   3.122   0.885   3.310
 4943WAT     H215349   3.131   1.019   3.379
 4944WAT      O15350   1.607   0.254   4.880
 4944WAT     H115351   1.657   0.196   4.937
 4944WAT     H215352   1.533   0.282   4.933
 4945WAT      O15353   2.297   0.526   3.235
 4945WAT     H115354   2.287   0.464   3.308
 4945WAT     H215355   2.280   0.474   3.157
 4946WAT      O15356   2.312   0.394   4.833
 4946WAT     H115357   2.236   0.451   4.825
 4946WAT     H215358   2.330   0.365   4.744
 4947WAT      O15359   2.621   0.432   3.296
 4947WAT     H115360   2.566   0.477   3.360
 4947WAT     H215361   2.683   0.382   3.348
 4948WAT      O15362   3.027   0.568   4.889
 4948WAT     H115363   3.101   0.601   4.838
 4948WAT     H215364   2.950   0.584   4.833
 4949WAT      O15365   2.188   0.328   3.485
 4949WAT     H115366   2.230   0.311   3.569
 4949WAT     H215367   2.200   0.247   3.436
 4950WAT      O15368   2.439   0.230   3.210
 4950WAT     H115369   2.491   0.159   3.173
 4950WAT     H215370   2.504   0.294   3.240
 4951WAT      O15371   2.894   0.373   4.742
 4951WAT     H115372   2.935   0.388   4.827
 4951WAT     H215373   2.800   0.385   4.759
 4952WAT      O15374   2.370   0.368   4.539
 4952WAT     H115375   2.412   0.452   4.522
 4952WAT     H215376   2.278   0.382   4.516
 4953WAT      O15377   2.838   0.196   4.535
 4953WAT     H115378   2.785   0.249   4.475
 4953WAT     H215379   2.872   0.260   4.598
 4954WAT      O15380   2.155   0.998   4.651
 4954WAT     H115381   2.101   1.071   4.619
 4954WAT     H215382   2.181   0.951   4.572
 4955WAT      O15383   2.441   1.122   4.677
 4955WAT     H115384   2.433   1.212   4.707
 4955WAT     H215385   2.351   1.090   4.674
 4956WAT      O15386   2.496   1.039   3.439
 4956WAT     H115387   2.585   1.072   3.441
 4956WAT     H215388   2.499   0.966   3.376
 4957WAT      O15389   1.860   0.576   3.262
 4957WAT     H115390   1.903   0.630   3.327
 4957WAT     H215391   1.908   0.493   3.263
 4958WAT      O15392   1.581   0.855   4.007
 4958WAT     H115393   1.614   0.768   3.984
 4958WAT     H215394   1.624   0.875   4.090
 4959WAT      O15395   2.041   0.688   3.773
 4959WAT     H115396   2.011   0.675   3.863
 4959WAT     H215397   2.030   0.602   3.732
 4960WAT      O15398   1.630   0.941   4.281
 4960WAT     H115399   1.586   0.959   4.364
 4960WAT     H215400   1.687   1.017   4.267
 4961WAT      O15401   3.194   0.892   4.710
 4961WAT     H115402   3.134   0.897   4.635
 4961WAT     H215403   3.207   0.798   4.723
 4962WAT      O15404   3.318   0.666   3.243
 4962WAT     H115405   3.235   0.672   3.290
 4962WAT     H215406   3.335   0.755   3.213
 4963WAT      O15407   3.263   0.340   3.494
 4963WAT     H115408   3.339   0.397   3.504
 4963WAT     H215409   3.265   0.283   3.571
 4964WAT      O15410   1.613   0.193   3.917
 4964WAT     H115411   1.548   0.166   3.852
 4964WAT     H215412   1.697   0.182   3.872
 4965WAT      O15413   3.364   0.426   3.978
 4965WAT     H115414   3.401   0.347   3.937
 4965WAT     H215415   3.428   0.495   3.960
 4966WAT      O15416   3.062   0.564   4.519
 4966WAT     H115417   2.981   0.607   4.546
 4966WAT     H215418   3.103   0.625   4.458
 4967WAT      O15419   3.268   0.370   3.209
 4967WAT     H115420   3.296   0.460   3.197
 4967WAT     H215421   3.250   0.363   3.303
 4968WAT      O15422   3.068   1.039   3.872
 4968WAT     H115423   3.127   1.007   3.804
 4968WAT     H215424   3.094   0.992   3.951
 4969WAT      O15425   1.859   0.682   4.887
 4969WAT     H115426   1.854   0.645   4.975
 4969WAT     H215427   1.872   0.776   4.901
 4970WAT      O15428   2.229   0.838   4.447
 4970WAT     H115429   2.204   0.865   4.358
 4970WAT     H215430   2.323   0.855   4.453
 4971WAT      O15431   3.355   1.040   4.527
 4971WAT     H115432   3.305   1.080   4.455
 4971WAT     H215433   3.294   0.977   4.567
 4972WAT      O15434   1.842   0.977   4.599
 4972WAT     H115435   1.783   0.964   4.673
 4972WAT     H215436   1.842   0.893   4.552
 4973WAT      O15437   3.123   1.104   4.255
 4973WAT     H115438   3.077   1.179   4.218
 4973WAT     H215439   3.060   1.032   4.249
 4974WAT      O15440   1.806   0.714   4.494
 4974WAT     H115441   1.733   0.652   4.487
 4974WAT     H215442   1.812   0.753   4.407
 4975WAT      O15443   2.166   0.935   4.173
 4975WAT     H115444   2.218   0.874   4.120
 4975WAT     H215445   2.231   0.985   4.222
 4976WAT      O15446   2.440   1.024   4.255
 4976WAT     H115447   2.469   0.999   4.168
 4976WAT     H215448   2.491   0.969   4.314
 4977WAT      O15449   1.634   1.045   3.815
 4977WAT     H115450   1.617   0.982   3.885
 4977WAT     H215451   1.547   1.066   3.780
 4978WAT      O15452   1.794   0.915   3.559
 4978WAT     H115453   1.742   0.953   3.489
 4978WAT     H215454   1.787   0.977   3.632
 4979WAT      O15455   2.447   1.116   4.992
 4979WAT     H115456   2.539   1.093   4.996
 4979WAT     H215457   2.445   1.199   4.944
 4980WAT      O15458   3.270   1.071   3.692
 4980WAT     H115459   3.288   1.002   3.627
 4980WAT     H215460   3.200   1.123   3.652
 4981WAT      O15461   2.054   1.110   3.447
 4981WAT     H115462   2.128   1.081   3.392
 4981WAT     H215463   2.080   1.086   3.536
 4982WAT      O15464   1.971   0.721   3.447
 4982WAT     H115465   1.908   0.768   3.502
 4982WAT     H215466   1.982   0.637   3.491
 4983WAT      O15467   3.103   1.039   4.974
 4983WAT     H115468   3.183   0.990   4.954
 4983WAT     H215469   3.133   1.107   5.035
 4984WAT      O15470   2.529   0.304   2.251
 4984WAT     H115471   2.452   0.256   2.280
 4984WAT     H215472   2.594   0.236   2.233
 4985WAT      O15473   1.931   0.335   2.338
 4985WAT     H115474   1.848   0.310   2.378
 4985WAT     H215475   1.992   0.342   2.412
 4986WAT      O15476   2.931   0.745   2.129
 4986WAT     H115477   2.885   0.668   2.161
 4986WAT     H215478   3.013   0.747   2.179
 4987WAT      O15479   1.929   0.739   2.358
 4987WAT     H115480   1.959   0.650   2.340
 4987WAT     H215481   2.003   0.794   2.335
 4988WAT      O15482   2.554   0.973   2.091
 4988WAT     H115483   2.492   1.019   2.034
 4988WAT     H215484   2.639   0.989   2.050
 4989WAT      O15485   2.473   0.572   2.251
 4989WAT     H115486   2.466   0.478   2.235
 4989WAT     H215487   2.549   0.581   2.308
 4990WAT      O15488   2.641   0.462   1.830
 4990WAT     H115489   2.579   0.508   1.774
 4990WAT     H215490   2.692   0.531   1.872
 4991WAT      O15491   2.127   0.414   2.498
 4991WAT     H115492   2.094   0.477   2.562
 4991WAT     H215493   2.145   0.467   2.420
 4992WAT      O15494   2.048   0.611   2.679
 4992WAT     H115495   2.110   0.679   2.651
 4992WAT     H215496   1.962   0.652   2.670
 4993WAT      O15497   1.577   0.530   1.567
 4993WAT     H115498   1.540   0.579   1.494
 4993WAT     H215499   1.603   0.597   1.630
 4994WAT      O15500   3.140   0.758   2.471
 4994WAT     H115501   3.071   0.825   2.470
 4994WAT     H215502   3.194   0.777   2.394
 4995WAT      O15503   2.893   0.942   2.342
 4995WAT     H115504   2.895   0.902   2.255
 4995WAT     H215505   2.838   1.019   2.332
 4996WAT      O15506   3.023   0.614   1.851
 4996WAT     H115507   3.012   0.520   1.864
 4996WAT     H215508   3.023   0.650   1.940
 4997WAT      O15509   2.833   0.432   2.475
 4997WAT     H115510   2.875   0.411   2.392
 4997WAT     H215511   2.906   0.458   2.532
 4998WAT      O15512   2.577   0.177   1.787
 4998WAT     H115513   2.484   0.170   1.810
 4998WAT     H215514   2.592   0.271   1.775
 4999WAT      O15515   3.228   0.272   2.484
 4999WAT     H115516   3.145   0.279   2.437
 4999WAT     H215517   3.287   0.331   2.437
 5000WAT      O15518   2.980   0.333   1.837
 5000WAT     H115519   2.918   0.299   1.772
 5000WAT     H215520   2.978   0.269   1.908
 5001WAT      O15521   2.138   0.229   2.065
 5001WAT     H115522   2.097   0.158   2.015
 5001WAT     H215523   2.146   0.195   2.154
 5002WAT      O15524   2.184   0.598   2.281
 5002WAT     H115525   2.155   0.538   2.213
 5002WAT     H215526   2.279   0.602   2.270
 5003WAT      O15527   2.993   0.955   2.648
 5003WAT     H115528   2.946   1.036   2.628
 5003WAT     H215529   2.925   0.890   2.663
 5004WAT      O15530   2.094   0.572   2.946
 5004WAT     H115531   2.004   0.594   2.971
 5004WAT     H215532   2.096   0.584   2.852
 5005WAT      O15533   2.798   0.257   1.538
 5005WAT     H115534   2.842   0.173   1.523
 5005WAT     H215535   2.869   0.320   1.546
 5006WAT      O15536   1.976   0.259   2.804
 5006WAT     H115537   1.962   0.346   2.841
 5006WAT     H215538   1.888   0.225   2.789
 5007WAT      O15539   2.609   0.751   1.935
 5007WAT     H115540   2.653   0.825   1.893
 5007WAT     H215541   2.603   0.775   2.027
 5008WAT      O15542   2.156   0.853   3.025
 5008WAT     H115543   2.153   0.894   2.938
 5008WAT     H215544   2.140   0.760   3.009
 5009WAT      O15545   3.351   0.932   3.154
 5009WAT     H115546   3.399   0.979   3.222
 5009WAT     H215547   3.413   0.925   3.082
 5010WAT      O15548   1.572   0.436   2.396
 5010WAT     H115549   1.579   0.450   2.301
 5010WAT     H215550   1.633   0.365   2.415
 5011WAT      O15551   1.696   0.606   2.037
 5011WAT     H115552   1.655   0.620   1.951
 5011WAT     H215553   1.785   0.578   2.016
 5012WAT      O15554   3.292   0.651   2.870
 5012WAT     H115555   3.304   0.627   2.779
 5012WAT     H215556   3.296   0.568   2.918
 5013WAT      O15557   2.678   1.021   2.727
 5013WAT     H115558   2.729   1.012   2.808
 5013WAT     H215559   2.594   1.056   2.757
 5014WAT      O15560   2.875   1.050   1.670
 5014WAT     H115561   2.859   1.021   1.760
 5014WAT     H215562   2.859   0.972   1.617
 5015WAT      O15563   2.123   1.028   1.848
 5015WAT     H115564   2.106   0.936   1.827
 5015WAT     H215565   2.038   1.063   1.872
 5016WAT      O15566   2.846   0.800   1.526
 5016WAT     H115567   2.776   0.800   1.460
 5016WAT     H215568   2.920   0.758   1.483
 5017WAT      O15569   2.802   0.963   1.934
 5017WAT     H115570   2.848   0.885   1.965
 5017WAT     H215571   2.836   1.034   1.988
 5018WAT      O15572   1.577   0.540   2.650
 5018WAT     H115573   1.593   0.493   2.568
 5018WAT     H215574   1.624   0.489   2.716
 5019WAT      O15575   1.735   0.478   2.866
 5019WAT     H115576   1.696   0.414   2.925
 5019WAT     H215577   1.766   0.548   2.923
 5020WAT      O15578   1.981   0.487   1.705
 5020WAT     H115579   1.904   0.433   1.689
 5020WAT     H215580   2.054   0.435   1.671
 5021WAT      O15581   3.057   0.387   2.284
 5021WAT     H115582   3.129   0.436   2.245
 5021WAT     H215583   3.037   0.319   2.220
 5022WAT      O15584   2.595   0.394   2.873
 5022WAT     H115585   2.589   0.302   2.848
 5022WAT     H215586   2.532   0.404   2.945
 5023WAT      O15587   1.986   0.454   2.069
 5023WAT     H115588   2.037   0.374   2.064
 5023WAT     H215589   1.941   0.448   2.153
 5024WAT      O15590   2.474   0.581   1.596
 5024WAT     H115591   2.509   0.655   1.547
 5024WAT     H215592   2.392   0.612   1.633
 5025WAT      O15593   2.589   0.676   2.848
 5025WAT     H115594   2.590   0.583   2.826
 5025WAT     H215595   2.518   0.685   2.912
 5026WAT      O15596   3.210   0.340   2.783
 5026WAT     H115597   3.137   0.400   2.763
 5026WAT     H215598   3.262   0.339   2.703
 5027WAT      O15599   3.205   0.780   1.748
 5027WAT     H115600   3.141   0.715   1.775
 5027WAT     H215601   3.166   0.821   1.670
 5028WAT      O15602   2.763   0.513   2.133
 5028WAT     H115603   2.798   0.453   2.067
 5028WAT     H215604   2.674   0.480   2.150
 5029WAT      O15605   2.371   0.589   1.873
 5029WAT     H115606   2.440   0.643   1.912
 5029WAT     H215607   2.293   0.643   1.877
 5030WAT      O15608   2.302   0.289   1.835
 5030WAT     H115609   2.347   0.370   1.857
 5030WAT     H215610   2.266   0.257   1.918
 5031WAT      O15611   2.532   0.840   2.558
 5031WAT     H115612   2.596   0.861   2.625
 5031WAT     H215613   2.568   0.764   2.512
 5032WAT      O15614   2.659   0.641   2.429
 5032WAT     H115615   2.723   0.571   2.441
 5032WAT     H215616   2.712   0.719   2.411
 5033WAT      O15617   3.044   0.669   1.402
 5033WAT     H115618   3.021   0.597   1.461
 5033WAT     H215619   3.005   0.644   1.318
 5034WAT      O15620   2.837   0.721   2.750
 5034WAT     H115621   2.870   0.779   2.818
 5034WAT     H215622   2.745   0.708   2.773
 5035WAT      O15623   1.622   1.072   1.479
 5035WAT     H115624   1.658   1.132   1.414
 5035WAT     H215625   1.608   1.126   1.557
 5036WAT      O15626   3.002   0.461   1.568
 5036WAT     H115627   2.973   0.507   1.647
 5036WAT     H215628   3.081   0.415   1.595
 5037WAT      O15629   1.620   0.898   2.927
 5037WAT     H115630   1.631   0.804   2.913
 5037WAT     H215631   1.555   0.925   2.862
 5038WAT      O15632   2.419   0.726   3.067
 5038WAT     H115633   2.387   0.654   3.121
 5038WAT     H215634   2.352   0.793   3.074
 5039WAT      O15635   2.224   0.810   1.561
 5039WAT     H115636   2.223   0.883   1.499
 5039WAT     H215637   2.132   0.785   1.570
 5040WAT      O15638   1.784   0.332   1.635
 5040WAT     H115639   1.723   0.406   1.636
 5040WAT     H215640   1.831   0.341   1.553
 5041WAT      O15641   2.522   0.816   1.427
 5041WAT     H115642   2.532   0.796   1.334
 5041WAT     H215643   2.432   0.791   1.448
 5042WAT      O15644   2.386   1.068   1.897
 5042WAT     H115645   2.412   1.064   1.804
 5042WAT     H215646   2.292   1.056   1.896
 5043WAT      O15647   1.985   0.328   1.410
 5043WAT     H115648   2.061   0.317   1.467
 5043WAT     H215649   1.992   0.259   1.345
 5044WAT      O15650   3.187   0.877   2.222
 5044WAT     H115651   3.200   0.960   2.269
 5044WAT     H215652   3.274   0.856   2.187
 5045WAT      O15653   1.934   1.087   2.189
 5045WAT     H115654   2.008   1.032   2.216
 5045WAT     H215655   1.973   1.173   2.175
 5046WAT      O15656   1.623   0.693   1.776
 5046WAT     H115657   1.530   0.718   1.775
 5046WAT     H215658   1.669   0.776   1.764
 5047WAT      O15659   1.835   1.005   3.108
 5047WAT     H115660   1.915   1.037   3.149
 5047WAT     H215661   1.783   0.969   3.180
 5048WAT      O15662   2.245   1.004   1.371
 5048WAT     H115663   2.325   1.033   1.326
 5048WAT     H215664   2.193   0.961   1.303
 5049WAT      O15665   2.719   0.616   3.103
 5049WAT     H115666   2.658   0.618   3.029
 5049WAT     H215667   2.688   0.543   3.156
 5050WAT      O15668   2.862   0.989   2.964
 5050WAT     H115669   2.957   0.980   2.959
 5050WAT     H215670   2.847   1.055   3.031
 5051WAT      O15671   3.151   0.927   1.514
 5051WAT     H115672   3.122   0.885   1.432
 5051WAT     H215673   3.131   1.019   1.502
 5052WAT      O15674   1.607   0.254   3.002
 5052WAT     H115675   1.657   0.196   3.059
 5052WAT     H215676   1.533   0.282   3.056
 5053WAT      O15677   2.297   0.526   1.358
 5053WAT     H115678   2.287   0.464   1.430
 5053WAT     H215679   2.280   0.474   1.279
 5054WAT      O15680   2.312   0.394   2.956
 5054WAT     H115681   2.236   0.451   2.947
 5054WAT     H215682   2.330   0.365   2.866
 5055WAT      O15683   2.621   0.432   1.418
 5055WAT     H115684   2.566   0.477   1.483
 5055WAT     H215685   2.683   0.382   1.470
 5056WAT      O15686   3.027   0.568   3.011
 5056WAT     H115687   3.101   0.601   2.961
 5056WAT     H215688   2.950   0.584   2.956
 5057WAT      O15689   2.188   0.328   1.608
 5057WAT     H115690   2.230   0.311   1.692
 5057WAT     H215691   2.200   0.247   1.558
 5058WAT      O15692   2.439   0.230   1.333
 5058WAT     H115693   2.491   0.159   1.296
 5058WAT     H215694   2.504   0.294   1.363
 5059WAT      O15695   2.894   0.373   2.865
 5059WAT     H115696   2.935   0.388   2.950
 5059WAT     H215697   2.800   0.385   2.881
 5060WAT      O15698   2.370   0.368   2.662
 5060WAT     H115699   2.412   0.452   2.645
 5060WAT     H215700   2.278   0.382   2.639
 5061WAT      O15701   2.838   0.196   2.658
 5061WAT     H115702   2.785   0.249   2.597
 5061WAT     H215703   2.872   0.260   2.721
 5062WAT      O15704   2.155   0.998   2.773
 5062WAT     H115705   2.101   1.071   2.741
 5062WAT     H215706   2.181   0.951   2.694
 5063WAT      O15707   2.441   1.122   2.799
 5063WAT     H115708   2.433   1.212   2.830
 5063WAT     H215709   2.351   1.090   2.796
 5064WAT      O15710   2.496   1.039   1.562
 5064WAT     H115711   2.585   1.072   1.564
 5064WAT     H215712   2.499   0.966   1.499
 5065WAT      O15713   1.860   0.576   1.384
 5065WAT     H115714   1.903   0.630   1.450
 5065WAT     H215715   1.908   0.493   1.385
 5066WAT      O15716   1.581   0.855   2.130
 5066WAT     H115717   1.614   0.768   2.106
 5066WAT     H215718   1.624   0.875   2.213
 5067WAT      O15719   2.041   0.688   1.896
 5067WAT     H115720   2.011   0.675   1.986
 5067WAT     H215721   2.030   0.602   1.855
 5068WAT      O15722   1.630   0.941   2.403
 5068WAT     H115723   1.586   0.959   2.487
 5068WAT     H215724   1.687   1.017   2.389
 5069WAT      O15725   3.194   0.892   2.832
 5069WAT     H115726   3.134   0.897   2.758
 5069WAT     H215727   3.207   0.798   2.845
 5070WAT      O15728   3.318   0.666   1.366
 5070WAT     H115729   3.235   0.672   1.413
 5070WAT     H215730   3.335   0.755   1.336
 5071WAT      O15731   3.263   0.340   1.616
 5071WAT     H115732   3.339   0.397   1.627
 5071WAT     H215733   3.265   0.283   1.693
 5072WAT      O15734   1.613   0.193   2.039
 5072WAT     H115735   1.548   0.166   1.975
 5072WAT     H215736   1.697   0.182   1.994
 5073WAT      O15737   3.364   0.426   2.101
 5073WAT     H115738   3.401   0.347   2.060
 5073WAT     H215739   3.428   0.495   2.083
 5074WAT      O15740   3.062   0.564   2.642
 5074WAT     H115741   2.981   0.607   2.668
 5074WAT     H215742   3.103   0.625   2.581
 5075WAT      O15743   3.268   0.370   1.332
 5075WAT     H115744   3.296   0.460   1.319
 5075WAT     H215745   3.250   0.363   1.426
 5076WAT      O15746   3.068   1.039   1.995
 5076WAT     H115747   3.127   1.007   1.927
 5076WAT     H215748   3.094   0.992   2.074
 5077WAT      O15749   1.859   0.682   3.010
 5077WAT     H115750   1.854   0.645   3.098
 5077WAT     H215751   1.872   0.776   3.024
 5078WAT      O15752   2.229   0.838   2.570
 5078WAT     H115753   2.204   0.865   2.481
 5078WAT     H215754   2.323   0.855   2.575
 5079WAT      O15755   3.355   1.040   2.650
 5079WAT     H115756   3.305   1.080   2.578
 5079WAT     H215757   3.294   0.977   2.689
 5080WAT      O15758   1.842   0.977   2.722
 5080WAT     H115759   1.783   0.964   2.795
 5080WAT     H215760   1.842   0.893   2.675
 5081WAT      O15761   3.123   1.104   2.378
 5081WAT     H115762   3.077   1.179   2.340
 5081WAT     H215763   3.060   1.032   2.372
 5082WAT      O15764   1.806   0.714   2.617
 5082WAT     H115765   1.733   0.652   2.610
 5082WAT     H215766   1.812   0.753   2.530
 5083WAT      O15767   2.166   0.935   2.295
 5083WAT     H115768   2.218   0.874   2.243
 5083WAT     H215769   2.231   0.985   2.344
 5084WAT      O15770   2.440   1.024   2.378
 5084WAT     H115771   2.469   0.999   2.290
 5084WAT     H215772   2.491   0.969   2.437
 5085WAT      O15773   1.634   1.045   1.938
 5085WAT     H115774   1.617   0.982   2.007
 5085WAT     H215775   1.547   1.066   1.902
 5086WAT      O15776   1.794   0.915   1.682
 5086WAT     H115777   1.742   0.953   1.612
 5086WAT     H215778   1.787   0.977   1.754
 5087WAT      O15779   2.447   1.116   3.114
 5087WAT     H115780   2.539   1.093   3.119
 5087WAT     H215781   2.445   1.199   3.066
 5088WAT      O15782   3.270   1.071   1.814
 5088WAT     H115783   3.288   1.002   1.750
 5088WAT     H215784   3.200   1.123   1.775
 5089WAT      O15785   2.054   1.110   1.570
 5089WAT     H115786   2.128   1.081   1.515
 5089WAT     H215787   2.080   1.086   1.659
 5090WAT      O15788   1.971   0.721   1.570
 5090WAT     H115789   1.908   0.768   1.625
 5090WAT     H215790   1.982   0.637   1.613
 5091WAT      O15791   3.103   1.039   3.097
 5091WAT     H115792   3.183   0.990   3.076
 5091WAT     H215793   3.133   1.107   3.158
 5092WAT      O15794   2.529   0.304   0.373
 5092WAT     H115795   2.452   0.256   0.402
 5092WAT     H215796   2.594   0.236   0.356
 5093WAT      O15797   1.931   0.335   0.461
 5093WAT     H115798   1.848   0.310   0.501
 5093WAT     H215799   1.992   0.342   0.534
 5094WAT      O15800   2.931   0.745   0.251
 5094WAT     H115801   2.885   0.668   0.284
 5094WAT     H215802   3.013   0.747   0.302
 5095WAT      O15803   1.929   0.739   0.480
 5095WAT     H115804   1.959   0.650   0.463
 5095WAT     H215805   2.003   0.794   0.458
 5096WAT      O15806   2.473   0.572   0.374
 5096WAT     H115807   2.466   0.478   0.358
 5096WAT     H215808   2.549   0.581   0.431
 5097WAT      O15809   2.127   0.414   0.620
 5097WAT     H115810   2.094   0.477   0.685
 5097WAT     H215811   2.145   0.467   0.542
 5098WAT      O15812   2.048   0.611   0.802
 5098WAT     H115813   2.110   0.679   0.774
 5098WAT     H215814   1.962   0.652   0.793
 5099WAT      O15815   3.140   0.758   0.593
 5099WAT     H115816   3.071   0.825   0.593
 5099WAT     H215817   3.194   0.777   0.517
 5100WAT      O15818   2.893   0.942   0.465
 5100WAT     H115819   2.895   0.902   0.378
 5100WAT     H215820   2.838   1.019   0.454
 5101WAT      O15821   2.833   0.432   0.598
 5101WAT     H115822   2.875   0.411   0.514
 5101WAT     H215823   2.906   0.458   0.655
 5102WAT      O15824   3.228   0.272   0.607
 5102WAT     H115825   3.145   0.279   0.559
 5102WAT     H215826   3.287   0.331   0.560
 5103WAT      O15827   2.184   0.598   0.404
 5103WAT     H115828   2.155   0.538   0.336
 5103WAT     H215829   2.279   0.602   0.393
 5104WAT      O15830   2.993   0.955   0.770
 5104WAT     H115831   2.946   1.036   0.751
 5104WAT     H215832   2.925   0.890   0.785
 5105WAT      O15833   2.094   0.572   1.069
 5105WAT     H115834   2.004   0.594   1.094
 5105WAT     H215835   2.096   0.584   0.974
 5106WAT      O15836   1.976   0.259   0.927
 5106WAT     H115837   1.962   0.346   0.963
 5106WAT     H215838   1.888   0.225   0.912
 5107WAT      O15839   2.156   0.853   1.147
 5107WAT     H115840   2.153   0.894   1.061
 5107WAT     H215841   2.140   0.760   1.131
 5108WAT      O15842   3.351   0.932   1.277
 5108WAT     H115843   3.399   0.979   1.345
 5108WAT     H215844   3.413   0.925   1.205
 5109WAT      O15845   1.572   0.436   0.518
 5109WAT     H115846   1.579   0.450   0.424
 5109WAT     H215847   1.633   0.365   0.538
 5110WAT      O15848   3.292   0.651   0.993
 5110WAT     H115849   3.304   0.627   0.901
 5110WAT     H215850   3.296   0.568   1.040
 5111WAT      O15851   2.678   1.021   0.850
 5111WAT     H115852   2.729   1.012   0.930
 5111WAT     H215853   2.594   1.056   0.879
 5112WAT      O15854   1.577   0.540   0.772
 5112WAT     H115855   1.593   0.493   0.690
 5112WAT     H215856   1.624   0.489   0.839
 5113WAT      O15857   1.735   0.478   0.988
 5113WAT     H115858   1.696   0.414   1.048
 5113WAT     H215859   1.766   0.548   1.045
 5114WAT      O15860   3.057   0.387   0.407
 5114WAT     H115861   3.129   0.436   0.368
 5114WAT     H215862   3.037   0.319   0.343
 5115WAT      O15863   2.595   0.394   0.996
 5115WAT     H115864   2.589   0.302   0.970
 5115WAT     H215865   2.532   0.404   1.067
 5116WAT      O15866   1.986   0.454   0.192
 5116WAT     H115867   2.037   0.374   0.186
 5116WAT     H215868   1.941   0.448   0.276
 5117WAT      O15869   2.589   0.676   0.971
 5117WAT     H115870   2.590   0.583   0.949
 5117WAT     H215871   2.518   0.685   1.035
 5118WAT      O15872   3.210   0.340   0.905
 5118WAT     H115873   3.137   0.400   0.886
 5118WAT     H215874   3.262   0.339   0.826
 5119WAT      O15875   2.763   0.513   0.255
 5119WAT     H115876   2.798   0.453   0.189
 5119WAT     H215877   2.674   0.480   0.272
 5120WAT      O15878   2.532   0.840   0.680
 5120WAT     H115879   2.596   0.861   0.748
 5120WAT     H215880   2.568   0.764   0.635
 5121WAT      O15881   2.659   0.641   0.552
 5121WAT     H115882   2.723   0.571   0.563
 5121WAT     H215883   2.712   0.719   0.534
 5122WAT      O15884   2.837   0.721   0.872
 5122WAT     H115885   2.870   0.779   0.940
 5122WAT     H215886   2.745   0.708   0.895
 5123WAT      O15887   1.620   0.898   1.049
 5123WAT     H115888   1.631   0.804   1.035
 5123WAT     H215889   1.555   0.925   0.984
 5124WAT      O15890   2.419   0.726   1.189
 5124WAT     H115891   2.387   0.654   1.244
 5124WAT     H215892   2.352   0.793   1.197
 5125WAT      O15893   3.187   0.877   0.344
 5125WAT     H115894   3.200   0.960   0.392
 5125WAT     H215895   3.274   0.856   0.310
 5126WAT      O15896   1.934   1.087   0.312
 5126WAT     H115897   2.008   1.032   0.339
 5126WAT     H215898   1.973   1.173   0.298
 5127WAT      O15899   1.835   1.005   1.230
 5127WAT     H115900   1.915   1.037   1.272
 5127WAT     H215901   1.783   0.969   1.303
 5128WAT      O15902   2.719   0.616   1.225
 5128WAT     H115903   2.658   0.618   1.151
 5128WAT     H215904   2.688   0.543   1.279
 5129WAT      O15905   2.862   0.989   1.086
 5129WAT     H115906   2.957   0.980   1.081
 5129WAT     H215907   2.847   1.055   1.154
 5130WAT      O15908   1.607   0.254   1.125
 5130WAT     H115909   1.657   0.196   1.182
 5130WAT     H215910   1.533   0.282   1.179
 5131WAT      O15911   2.312   0.394   1.078
 5131WAT     H115912   2.236   0.451   1.070
 5131WAT     H215913   2.330   0.365   0.989
 5132WAT      O15914   3.027   0.568   1.134
 5132WAT     H115915   3.101   0.601   1.084
 5132WAT     H215916   2.950   0.584   1.079
 5133WAT      O15917   2.894   0.373   0.987
 5133WAT     H115918   2.935   0.388   1.072
 5133WAT     H215919   2.800   0.385   1.004
 5134WAT      O15920   2.370   0.368   0.784
 5134WAT     H115921   2.412   0.452   0.767
 5134WAT     H215922   2.278   0.382   0.761
 5135WAT      O15923   2.838   0.196   0.780
 5135WAT     H115924   2.785   0.249   0.720
 5135WAT     H215925   2.872   0.260   0.843
 5136WAT      O15926   2.155   0.998   0.896
 5136WAT     H115927   2.101   1.071   0.864
 5136WAT     H215928   2.181   0.951   0.817
 5137WAT      O15929   2.441   1.122   0.922
 5137WAT     H115930   2.433   1.212   0.953
 5137WAT     H215931   2.351   1.090   0.919
 5138WAT      O15932   1.581   0.855   0.252
 5138WAT     H115933   1.614   0.768   0.229
 5138WAT     H215934   1.624   0.875   0.335
 5139WAT      O15935   1.630   0.941   0.526
 5139WAT     H115936   1.586   0.959   0.609
 5139WAT     H215937   1.687   1.017   0.512
 5140WAT      O15938   3.194   0.892   0.955
 5140WAT     H115939   3.134   0.897   0.880
 5140WAT     H215940   3.207   0.798   0.968
 5141WAT      O15941   3.364   0.426   0.223
 5141WAT     H115942   3.401   0.347   0.183
 5141WAT     H215943   3.428   0.495   0.205
 5142WAT      O15944   3.062   0.564   0.765
 5142WAT     H115945   2.981   0.607   0.791
 5142WAT     H215946   3.103   0.625   0.703
 5143WAT      O15947   1.859   0.682   1.132
 5143WAT     H115948   1.854   0.645   1.220
 5143WAT     H215949   1.872   0.776   1.146
 5144WAT      O15950   2.229   0.838   0.692
 5144WAT     H115951   2.204   0.865   0.603
 5144WAT     H215952   2.323   0.855   0.698
 5145WAT      O15953   3.355   1.040   0.772
 5145WAT     H115954   3.305   1.080   0.701
 5145WAT     H215955   3.294   0.977   0.812
 5146WAT      O15956   1.842   0.977   0.844
 5146WAT     H115957   1.783   0.964   0.918
 5146WAT     H215958   1.842   0.893   0.797
 5147WAT      O15959   3.123   1.104   0.500
 5147WAT     H115960   3.077   1.179   0.463
 5147WAT     H215961   3.060   1.032   0.494
 5148WAT      O15962   1.806   0.714   0.739
 5148WAT     H115963   1.733   0.652   0.732
 5148WAT     H215964   1.812   0.753   0.652
 5149WAT      O15965   2.166   0.935   0.418
 5149WAT     H115966   2.218   0.874   0.365
 5149WAT     H215967   2.231   0.985   0.467
 5150WAT      O15968   2.440   1.024   0.500
 5150WAT     H115969   2.469   0.999   0.413
 5150WAT     H215970   2.491   0.969   0.559
 5151WAT      O15971   2.447   1.116   1.237
 5151WAT     H115972   2.539   1.093   1.241
 5151WAT     H215973   2.445   1.199   1.189
 5152WAT      O15974   3.103   1.039   1.219
 5152WAT     H115975   3.183   0.990   1.199
 5152WAT     H215976   3.133   1.107   1.280
 5153WAT      O15977   0.839   5.759   5.817
 5153WAT     H115978   0.831   5.667   5.790
 5153WAT     H215979   0.797   5.808   5.747
 5154WAT      O15980   0.699   5.485   6.029
 5154WAT     H115981   0.737   5.397   6.018
 5154WAT     H215982   0.689   5.518   5.940
 5155WAT      O15983   1.077   5.234   5.722
 5155WAT     H115984   1.159   5.185   5.726
 5155WAT     H215985   1.080   5.293   5.797
 5156WAT      O15986   0.296   5.619   6.008
 5156WAT     H115987   0.347   5.669   6.072
 5156WAT     H215988   0.349   5.541   5.991
 5157WAT      O15989   1.101   5.428   5.999
 5157WAT     H115990   1.030   5.457   6.057
 5157WAT     H215991   1.137   5.509   5.963
 5158WAT      O15992   1.408   5.373   6.038
 5158WAT     H115993   1.313   5.376   6.052
 5158WAT     H215994   1.440   5.454   6.077
 5159WAT      O15995   0.461   5.003   5.868
 5159WAT     H115996   0.492   4.947   5.796
 5159WAT     H215997   0.368   5.016   5.850
 5160WAT      O15998   0.698   5.436   5.241
 5160WAT     H115999   0.604   5.452   5.250
 5160WAT     H216000   0.730   5.508   5.187
 5161WAT      O16001   0.260   5.862   5.820
 5161WAT     H116002   0.220   5.791   5.770
 5161WAT     H216003   0.269   5.827   5.909
 5162WAT      O16004   1.278   5.015   5.124
 5162WAT     H116005   1.247   5.024   5.214
 5162WAT     H216006   1.355   5.072   5.119
 5163WAT      O16007   0.488   5.048   5.396
 5163WAT     H116008   0.426   5.047   5.469
 5163WAT     H216009   0.480   4.961   5.357
 5164WAT      O16010   0.381   5.140   6.094
 5164WAT     H116011   0.410   5.231   6.086
 5164WAT     H216012   0.436   5.091   6.033
 5165WAT      O16013   0.879   5.599   5.541
 5165WAT     H116014   0.819   5.671   5.522
 5165WAT     H216015   0.934   5.592   5.463
 5166WAT      O16016   0.740   5.462   5.744
 5166WAT     H116017   0.779   5.494   5.663
 5166WAT     H216018   0.776   5.374   5.755
 5167WAT      O16019   0.442   5.389   5.994
 5167WAT     H116020   0.442   5.345   5.909
 5167WAT     H216021   0.531   5.421   6.005
 5168WAT      O16022   0.448   5.489   5.293
 5168WAT     H116023   0.460   5.485   5.388
 5168WAT     H216024   0.410   5.575   5.277
 5169WAT      O16025   0.349   5.720   5.233
 5169WAT     H116026   0.293   5.675   5.170
 5169WAT     H216027   0.420   5.756   5.179
 5170WAT      O16028   0.726   5.159   5.454
 5170WAT     H116029   0.645   5.109   5.446
 5170WAT     H216030   0.706   5.243   5.412
 5171WAT      O16031   0.997   5.596   5.283
 5171WAT     H116032   1.086   5.627   5.266
 5171WAT     H216033   0.994   5.508   5.244
 5172WAT      O16034   1.224   5.727   5.230
 5172WAT     H116035   1.216   5.770   5.145
 5172WAT     H216036   1.296   5.773   5.273
 5173WAT      O16037   1.200   5.277   5.439
 5173WAT     H116038   1.137   5.287   5.367
 5173WAT     H216039   1.151   5.299   5.518
 5174WAT      O16040   0.397   5.505   5.580
 5174WAT     H116041   0.326   5.551   5.624
 5174WAT     H216042   0.425   5.439   5.644
 5175WAT      O16043   0.800   5.177   5.724
 5175WAT     H116044   0.788   5.179   5.629
 5175WAT     H216045   0.895   5.182   5.736
 5176WAT      O16046   0.217   5.335   5.318
 5176WAT     H116047   0.302   5.379   5.311
 5176WAT     H216048   0.181   5.367   5.401
 5177WAT      O16049   1.109   5.792   5.809
 5177WAT     H116050   1.015   5.794   5.827
 5177WAT     H216051   1.141   5.714   5.854
 5178WAT      O16052   0.200   5.568   5.057
 5178WAT     H116053   0.180   5.481   5.093
 5178WAT     H216054   0.183   5.559   4.963
 5179WAT      O16055   0.948   5.049   5.310
 5179WAT     H116056   0.976   4.964   5.346
 5179WAT     H216057   0.871   5.072   5.361
 5180WAT      O16058   0.402   5.172   5.155
 5180WAT     H116059   0.367   5.104   5.097
 5180WAT     H216060   0.422   5.126   5.236
 5181WAT      O16061   1.031   5.304   5.216
 5181WAT     H116062   1.073   5.286   5.132
 5181WAT     H216063   1.000   5.219   5.247
 5182WAT      O16064   1.381   5.796   5.586
 5182WAT     H116065   1.343   5.719   5.543
 5182WAT     H216066   1.308   5.834   5.635
 5183WAT      O16067   1.308   5.618   5.916
 5183WAT     H116068   1.360   5.569   5.853
 5183WAT     H216069   1.367   5.632   5.991
 5184WAT      O16070   1.257   5.544   5.510
 5184WAT     H116071   1.307   5.521   5.589
 5184WAT     H216072   1.237   5.460   5.468
 5185WAT      O16073   1.400   5.407   5.763
 5185WAT     H116074   1.389   5.392   5.857
 5185WAT     H216075   1.476   5.355   5.739
 5186WAT      O16076   1.489   5.191   5.088
 5186WAT     H116077   1.581   5.177   5.067
 5186WAT     H216078   1.487   5.198   5.183
 5187WAT      O16079   1.496   5.268   5.350
 5187WAT     H116080   1.417   5.261   5.403
 5187WAT     H216081   1.517   5.361   5.349
 5188WAT      O16082   1.139   5.101   5.995
 5188WAT     H116083   1.184   5.095   5.910
 5188WAT     H216084   1.113   5.192   6.002
 5189WAT      O16085   1.326   5.064   5.796
 5189WAT     H116086   1.320   4.969   5.781
 5189WAT     H216087   1.404   5.075   5.851
 5190WAT      O16088   0.473   5.272   5.742
 5190WAT     H116089   0.392   5.235   5.708
 5190WAT     H216090   0.523   5.197   5.772
 5191WAT      O16091   0.923   4.939   5.866
 5191WAT     H116092   0.983   4.996   5.913
 5191WAT     H216093   0.849   4.995   5.843
 5192WAT      O16094   1.237   4.979   5.393
 5192WAT     H116095   1.257   5.069   5.420
 5192WAT     H216096   1.159   4.956   5.442
 5193WAT      O16097   0.275   5.087   5.602
 5193WAT     H116098   0.212   5.017   5.619
 5193WAT     H216099   0.221   5.163   5.581
 5194WAT      O16100   0.839   5.759   3.940
 5194WAT     H116101   0.831   5.667   3.913
 5194WAT     H216102   0.797   5.808   3.869
 5195WAT      O16103   0.699   5.485   4.151
 5195WAT     H116104   0.737   5.397   4.140
 5195WAT     H216105   0.689   5.518   4.062
 5196WAT      O16106   1.077   5.234   3.845
 5196WAT     H116107   1.159   5.185   3.849
 5196WAT     H216108   1.080   5.293   3.920
 5197WAT      O16109   0.296   5.619   4.131
 5197WAT     H116110   0.347   5.669   4.195
 5197WAT     H216111   0.349   5.541   4.113
 5198WAT      O16112   1.506   5.436   4.501
 5198WAT     H116113   1.436   5.475   4.449
 5198WAT     H216114   1.533   5.505   4.561
 5199WAT      O16115   1.101   5.428   4.122
 5199WAT     H116116   1.030   5.457   4.180
 5199WAT     H216117   1.137   5.509   4.086
 5200WAT      O16118   1.408   5.373   4.161
 5200WAT     H116119   1.313   5.376   4.174
 5200WAT     H216120   1.440   5.454   4.200
 5201WAT      O16121   0.461   5.003   3.991
 5201WAT     H116122   0.492   4.947   3.919
 5201WAT     H216123   0.368   5.016   3.972
 5202WAT      O16124   0.698   5.436   3.364
 5202WAT     H116125   0.604   5.452   3.372
 5202WAT     H216126   0.730   5.508   3.309
 5203WAT      O16127   1.047   5.583   4.456
 5203WAT     H116128   1.006   5.666   4.482
 5203WAT     H216129   0.974   5.525   4.437
 5204WAT      O16130   0.260   5.862   3.942
 5204WAT     H116131   0.220   5.791   3.893
 5204WAT     H216132   0.269   5.827   4.031
 5205WAT      O16133   1.278   5.015   3.247
 5205WAT     H116134   1.247   5.024   3.337
 5205WAT     H216135   1.355   5.072   3.242
 5206WAT      O16136   1.399   5.488   4.844
 5206WAT     H116137   1.338   5.539   4.792
 5206WAT     H216138   1.367   5.398   4.839
 5207WAT      O16139   0.606   5.372   4.591
 5207WAT     H116140   0.559   5.393   4.672
 5207WAT     H216141   0.565   5.291   4.561
 5208WAT      O16142   1.106   5.494   4.704
 5208WAT     H116143   1.021   5.464   4.736
 5208WAT     H216144   1.090   5.519   4.613
 5209WAT      O16145   0.815   5.644   4.914
 5209WAT     H116146   0.848   5.561   4.880
 5209WAT     H216147   0.894   5.697   4.929
 5210WAT      O16148   0.488   5.048   3.519
 5210WAT     H116149   0.426   5.047   3.591
 5210WAT     H216150   0.480   4.961   3.479
 5211WAT      O16151   0.381   5.140   4.217
 5211WAT     H116152   0.410   5.231   4.209
 5211WAT     H216153   0.436   5.091   4.155
 5212WAT      O16154   0.879   5.599   3.663
 5212WAT     H116155   0.819   5.671   3.645
 5212WAT     H216156   0.934   5.592   3.585
 5213WAT      O16157   0.400   5.688   4.870
 5213WAT     H116158   0.390   5.594   4.855
 5213WAT     H216159   0.484   5.710   4.831
 5214WAT      O16160   0.740   5.462   3.866
 5214WAT     H116161   0.779   5.494   3.785
 5214WAT     H216162   0.776   5.374   3.878
 5215WAT      O16163   0.571   5.337   4.992
 5215WAT     H116164   0.502   5.318   5.056
 5215WAT     H216165   0.645   5.366   5.046
 5216WAT      O16166   0.798   5.721   4.276
 5216WAT     H116167   0.725   5.772   4.311
 5216WAT     H216168   0.758   5.640   4.246
 5217WAT      O16169   0.442   5.389   4.116
 5217WAT     H116170   0.442   5.345   4.032
 5217WAT     H216171   0.531   5.421   4.127
 5218WAT      O16172   0.448   5.489   3.416
 5218WAT     H116173   0.460   5.485   3.510
 5218WAT     H216174   0.410   5.575   3.400
 5219WAT      O16175   0.844   5.267   4.217
 5219WAT     H116176   0.846   5.312   4.302
 5219WAT     H216177   0.820   5.177   4.239
 5220WAT      O16178   0.349   5.720   3.355
 5220WAT     H116179   0.293   5.675   3.293
 5220WAT     H216180   0.420   5.756   3.302
 5221WAT      O16181   1.187   5.008   4.801
 5221WAT     H116182   1.220   4.935   4.854
 5221WAT     H216183   1.191   4.976   4.711
 5222WAT      O16184   0.472   5.795   4.291
 5222WAT     H116185   0.509   5.747   4.366
 5222WAT     H216186   0.453   5.882   4.325
 5223WAT      O16187   0.251   5.699   4.523
 5223WAT     H116188   0.221   5.787   4.545
 5223WAT     H216189   0.347   5.705   4.527
 5224WAT      O16190   0.726   5.159   3.576
 5224WAT     H116191   0.645   5.109   3.569
 5224WAT     H216192   0.706   5.243   3.535
 5225WAT      O16193   0.997   5.596   3.406
 5225WAT     H116194   1.086   5.627   3.388
 5225WAT     H216195   0.994   5.508   3.367
 5226WAT      O16196   0.177   5.829   4.926
 5226WAT     H116197   0.147   5.843   4.836
 5226WAT     H216198   0.254   5.773   4.917
 5227WAT      O16199   1.224   5.727   3.353
 5227WAT     H116200   1.216   5.770   3.268
 5227WAT     H216201   1.296   5.773   3.396
 5228WAT      O16202   0.864   5.381   4.480
 5228WAT     H116203   0.900   5.299   4.513
 5228WAT     H216204   0.778   5.387   4.522
 5229WAT      O16205   1.200   5.277   3.561
 5229WAT     H116206   1.137   5.287   3.490
 5229WAT     H216207   1.151   5.299   3.640
 5230WAT      O16208   0.397   5.505   3.703
 5230WAT     H116209   0.326   5.551   3.747
 5230WAT     H216210   0.425   5.439   3.766
 5231WAT      O16211   0.560   5.646   4.503
 5231WAT     H116212   0.609   5.694   4.569
 5231WAT     H216213   0.574   5.554   4.524
 5232WAT      O16214   0.800   5.177   3.847
 5232WAT     H116215   0.788   5.179   3.752
 5232WAT     H216216   0.895   5.182   3.859
 5233WAT      O16217   0.217   5.335   3.440
 5233WAT     H116218   0.302   5.379   3.434
 5233WAT     H216219   0.181   5.367   3.523
 5234WAT      O16220   1.280   5.268   4.587
 5234WAT     H116221   1.230   5.342   4.621
 5234WAT     H216222   1.362   5.307   4.555
 5235WAT      O16223   1.109   5.792   3.932
 5235WAT     H116224   1.015   5.794   3.949
 5235WAT     H216225   1.141   5.714   3.976
 5236WAT      O16226   1.064   5.739   4.943
 5236WAT     H116227   1.122   5.663   4.934
 5236WAT     H216228   1.081   5.792   4.865
 5237WAT      O16229   0.452   5.111   4.477
 5237WAT     H116230   0.407   5.113   4.393
 5237WAT     H216231   0.389   5.071   4.537
 5238WAT      O16232   0.726   5.773   4.678
 5238WAT     H116233   0.738   5.714   4.752
 5238WAT     H216234   0.812   5.777   4.636
 5239WAT      O16235   0.200   5.568   3.180
 5239WAT     H116236   0.180   5.481   3.216
 5239WAT     H216237   0.183   5.559   3.086
 5240WAT      O16238   0.403   5.428   4.803
 5240WAT     H116239   0.462   5.397   4.872
 5240WAT     H216240   0.321   5.380   4.819
 5241WAT      O16241   0.885   5.389   4.827
 5241WAT     H116242   0.816   5.323   4.820
 5241WAT     H216243   0.957   5.345   4.871
 5242WAT      O16244   0.948   5.049   3.433
 5242WAT     H116245   0.976   4.964   3.468
 5242WAT     H216246   0.871   5.072   3.484
 5243WAT      O16247   0.402   5.172   3.277
 5243WAT     H116248   0.367   5.104   3.219
 5243WAT     H216249   0.422   5.126   3.359
 5244WAT      O16250   1.031   5.304   3.339
 5244WAT     H116251   1.073   5.286   3.255
 5244WAT     H216252   1.000   5.219   3.370
 5245WAT      O16253   1.381   5.796   3.709
 5245WAT     H116254   1.343   5.719   3.665
 5245WAT     H216255   1.308   5.834   3.757
 5246WAT      O16256   1.320   5.710   4.672
 5246WAT     H116257   1.296   5.687   4.582
 5246WAT     H216258   1.346   5.802   4.668
 5247WAT      O16259   1.163   5.233   4.950
 5247WAT     H116260   1.251   5.234   4.988
 5247WAT     H216261   1.165   5.159   4.889
 5248WAT      O16262   1.308   5.618   4.039
 5248WAT     H116263   1.360   5.569   3.976
 5248WAT     H216264   1.367   5.632   4.113
 5249WAT      O16265   1.326   5.627   4.391
 5249WAT     H116266   1.231   5.623   4.402
 5249WAT     H216267   1.344   5.718   4.367
 5250WAT      O16268   1.257   5.544   3.633
 5250WAT     H116269   1.307   5.521   3.711
 5250WAT     H216270   1.237   5.460   3.591
 5251WAT      O16271   1.400   5.407   3.886
 5251WAT     H116272   1.389   5.392   3.980
 5251WAT     H216273   1.476   5.355   3.862
 5252WAT      O16274   1.235   5.001   4.532
 5252WAT     H116275   1.298   5.063   4.568
 5252WAT     H216276   1.249   5.005   4.437
 5253WAT      O16277   1.489   5.191   3.210
 5253WAT     H116278   1.581   5.177   3.189
 5253WAT     H216279   1.487   5.198   3.305
 5254WAT      O16280   1.496   5.268   3.473
 5254WAT     H116281   1.417   5.261   3.526
 5254WAT     H216282   1.517   5.361   3.472
 5255WAT      O16283   0.572   5.117   4.823
 5255WAT     H116284   0.566   5.176   4.898
 5255WAT     H216285   0.666   5.106   4.808
 5256WAT      O16286   0.835   5.082   4.787
 5256WAT     H116287   0.897   5.114   4.720
 5256WAT     H216288   0.890   5.034   4.849
 5257WAT      O16289   0.910   4.939   4.419
 5257WAT     H116290   0.822   4.972   4.399
 5257WAT     H216291   0.899   4.891   4.502
 5258WAT      O16292   1.000   5.159   4.558
 5258WAT     H116293   0.967   5.078   4.520
 5258WAT     H216294   1.095   5.155   4.545
 5259WAT      O16295   0.684   5.030   4.313
 5259WAT     H116296   0.606   5.078   4.341
 5259WAT     H216297   0.655   4.940   4.302
 5260WAT      O16298   1.139   5.101   4.118
 5260WAT     H116299   1.184   5.095   4.033
 5260WAT     H216300   1.113   5.192   4.125
 5261WAT      O16301   1.326   5.064   3.919
 5261WAT     H116302   1.320   4.969   3.904
 5261WAT     H216303   1.404   5.075   3.973
 5262WAT      O16304   0.473   5.272   3.864
 5262WAT     H116305   0.392   5.235   3.830
 5262WAT     H216306   0.523   5.197   3.895
 5263WAT      O16307   0.923   4.939   3.988
 5263WAT     H116308   0.983   4.996   4.036
 5263WAT     H216309   0.849   4.995   3.966
 5264WAT      O16310   1.237   4.979   3.516
 5264WAT     H116311   1.257   5.069   3.542
 5264WAT     H216312   1.159   4.956   3.565
 5265WAT      O16313   0.275   5.087   3.725
 5265WAT     H116314   0.212   5.017   3.741
 5265WAT     H216315   0.221   5.163   3.703
 5266WAT      O16316   0.288   5.015   4.968
 5266WAT     H116317   0.260   5.065   4.892
 5266WAT     H216318   0.326   4.935   4.932
 5267WAT      O16319   0.948   4.957   5.026
 5267WAT     H116320   0.937   4.989   5.116
 5267WAT     H216321   1.030   4.997   4.996
 5268WAT      O16322   0.839   5.759   2.062
 5268WAT     H116323   0.831   5.667   2.035
 5268WAT     H216324   0.797   5.808   1.992
 5269WAT      O16325   0.699   5.485   2.274
 5269WAT     H116326   0.737   5.397   2.263
 5269WAT     H216327   0.689   5.518   2.185
 5270WAT      O16328   1.077   5.234   1.967
 5270WAT     H116329   1.159   5.185   1.971
 5270WAT     H216330   1.080   5.293   2.043
 5271WAT      O16331   0.296   5.619   2.253
 5271WAT     H116332   0.347   5.669   2.317
 5271WAT     H216333   0.349   5.541   2.236
 5272WAT      O16334   1.506   5.436   2.624
 5272WAT     H116335   1.436   5.475   2.572
 5272WAT     H216336   1.533   5.505   2.684
 5273WAT      O16337   1.101   5.428   2.245
 5273WAT     H116338   1.030   5.457   2.303
 5273WAT     H216339   1.137   5.509   2.208
 5274WAT      O16340   1.408   5.373   2.284
 5274WAT     H116341   1.313   5.376   2.297
 5274WAT     H216342   1.440   5.454   2.322
 5275WAT      O16343   0.461   5.003   2.113
 5275WAT     H116344   0.492   4.947   2.042
 5275WAT     H216345   0.368   5.016   2.095
 5276WAT      O16346   0.698   5.436   1.486
 5276WAT     H116347   0.604   5.452   1.495
 5276WAT     H216348   0.730   5.508   1.432
 5277WAT      O16349   1.047   5.583   2.579
 5277WAT     H116350   1.006   5.666   2.604
 5277WAT     H216351   0.974   5.525   2.560
 5278WAT      O16352   0.260   5.862   2.065
 5278WAT     H116353   0.220   5.791   2.015
 5278WAT     H216354   0.269   5.827   2.154
 5279WAT      O16355   1.278   5.015   1.369
 5279WAT     H116356   1.247   5.024   1.459
 5279WAT     H216357   1.355   5.072   1.364
 5280WAT      O16358   1.399   5.488   2.967
 5280WAT     H116359   1.338   5.539   2.914
 5280WAT     H216360   1.367   5.398   2.961
 5281WAT      O16361   0.606   5.372   2.714
 5281WAT     H116362   0.559   5.393   2.795
 5281WAT     H216363   0.565   5.291   2.683
 5282WAT      O16364   1.106   5.494   2.827
 5282WAT     H116365   1.021   5.464   2.859
 5282WAT     H216366   1.090   5.519   2.735
 5283WAT      O16367   0.815   5.644   3.037
 5283WAT     H116368   0.848   5.561   3.003
 5283WAT     H216369   0.894   5.697   3.051
 5284WAT      O16370   0.488   5.048   1.641
 5284WAT     H116371   0.426   5.047   1.714
 5284WAT     H216372   0.480   4.961   1.602
 5285WAT      O16373   0.381   5.140   2.339
 5285WAT     H116374   0.410   5.231   2.331
 5285WAT     H216375   0.436   5.091   2.278
 5286WAT      O16376   0.879   5.599   1.786
 5286WAT     H116377   0.819   5.671   1.768
 5286WAT     H216378   0.934   5.592   1.708
 5287WAT      O16379   0.400   5.688   2.993
 5287WAT     H116380   0.390   5.594   2.978
 5287WAT     H216381   0.484   5.710   2.953
 5288WAT      O16382   0.740   5.462   1.989
 5288WAT     H116383   0.779   5.494   1.908
 5288WAT     H216384   0.776   5.374   2.000
 5289WAT      O16385   0.571   5.337   3.115
 5289WAT     H116386   0.502   5.318   3.178
 5289WAT     H216387   0.645   5.366   3.168
 5290WAT      O16388   0.798   5.721   2.399
 5290WAT     H116389   0.725   5.772   2.433
 5290WAT     H216390   0.758   5.640   2.368
 5291WAT      O16391   0.442   5.389   2.239
 5291WAT     H116392   0.442   5.345   2.154
 5291WAT     H216393   0.531   5.421   2.250
 5292WAT      O16394   0.448   5.489   1.538
 5292WAT     H116395   0.460   5.485   1.633
 5292WAT     H216396   0.410   5.575   1.523
 5293WAT      O16397   0.844   5.267   2.340
 5293WAT     H116398   0.846   5.312   2.424
 5293WAT     H216399   0.820   5.177   2.361
 5294WAT      O16400   0.349   5.720   1.478
 5294WAT     H116401   0.293   5.675   1.415
 5294WAT     H216402   0.420   5.756   1.425
 5295WAT      O16403   1.187   5.008   2.924
 5295WAT     H116404   1.220   4.935   2.976
 5295WAT     H216405   1.191   4.976   2.833
 5296WAT      O16406   0.472   5.795   2.414
 5296WAT     H116407   0.509   5.747   2.488
 5296WAT     H216408   0.453   5.882   2.448
 5297WAT      O16409   0.251   5.699   2.646
 5297WAT     H116410   0.221   5.787   2.668
 5297WAT     H216411   0.347   5.705   2.649
 5298WAT      O16412   0.726   5.159   1.699
 5298WAT     H116413   0.645   5.109   1.691
 5298WAT     H216414   0.706   5.243   1.657
 5299WAT      O16415   0.997   5.596   1.528
 5299WAT     H116416   1.086   5.627   1.511
 5299WAT     H216417   0.994   5.508   1.489
 5300WAT      O16418   0.177   5.829   3.049
 5300WAT     H116419   0.147   5.843   2.959
 5300WAT     H216420   0.254   5.773   3.039
 5301WAT      O16421   1.224   5.727   1.475
 5301WAT     H116422   1.216   5.770   1.390
 5301WAT     H216423   1.296   5.773   1.518
 5302WAT      O16424   0.864   5.381   2.603
 5302WAT     H116425   0.900   5.299   2.636
 5302WAT     H216426   0.778   5.387   2.645
 5303WAT      O16427   1.200   5.277   1.684
 5303WAT     H116428   1.137   5.287   1.612
 5303WAT     H216429   1.151   5.299   1.763
 5304WAT      O16430   0.397   5.505   1.825
 5304WAT     H116431   0.326   5.551   1.870
 5304WAT     H216432   0.425   5.439   1.889
 5305WAT      O16433   0.560   5.646   2.625
 5305WAT     H116434   0.609   5.694   2.692
 5305WAT     H216435   0.574   5.554   2.646
 5306WAT      O16436   0.800   5.177   1.969
 5306WAT     H116437   0.788   5.179   1.874
 5306WAT     H216438   0.895   5.182   1.981
 5307WAT      O16439   0.217   5.335   1.563
 5307WAT     H116440   0.302   5.379   1.556
 5307WAT     H216441   0.181   5.367   1.646
 5308WAT      O16442   1.280   5.268   2.710
 5308WAT     H116443   1.230   5.342   2.744
 5308WAT     H216444   1.362   5.307   2.678
 5309WAT      O16445   1.109   5.792   2.054
 5309WAT     H116446   1.015   5.794   2.072
 5309WAT     H216447   1.141   5.714   2.099
 5310WAT      O16448   1.064   5.739   3.065
 5310WAT     H116449   1.122   5.663   3.056
 5310WAT     H216450   1.081   5.792   2.988
 5311WAT      O16451   0.452   5.111   2.600
 5311WAT     H116452   0.407   5.113   2.515
 5311WAT     H216453   0.389   5.071   2.659
 5312WAT      O16454   0.726   5.773   2.800
 5312WAT     H116455   0.738   5.714   2.874
 5312WAT     H216456   0.812   5.777   2.758
 5313WAT      O16457   0.200   5.568   1.302
 5313WAT     H116458   0.180   5.481   1.338
 5313WAT     H216459   0.183   5.559   1.209
 5314WAT      O16460   0.403   5.428   2.926
 5314WAT     H116461   0.462   5.397   2.995
 5314WAT     H216462   0.321   5.380   2.942
 5315WAT      O16463   0.885   5.389   2.949
 5315WAT     H116464   0.816   5.323   2.943
 5315WAT     H216465   0.957   5.345   2.994
 5316WAT      O16466   0.948   5.049   1.555
 5316WAT     H116467   0.976   4.964   1.591
 5316WAT     H216468   0.871   5.072   1.607
 5317WAT      O16469   0.402   5.172   1.400
 5317WAT     H116470   0.367   5.104   1.342
 5317WAT     H216471   0.422   5.126   1.481
 5318WAT      O16472   1.031   5.304   1.461
 5318WAT     H116473   1.073   5.286   1.377
 5318WAT     H216474   1.000   5.219   1.493
 5319WAT      O16475   1.381   5.796   1.831
 5319WAT     H116476   1.343   5.719   1.788
 5319WAT     H216477   1.308   5.834   1.880
 5320WAT      O16478   1.320   5.710   2.795
 5320WAT     H116479   1.296   5.687   2.705
 5320WAT     H216480   1.346   5.802   2.790
 5321WAT      O16481   1.163   5.233   3.072
 5321WAT     H116482   1.251   5.234   3.111
 5321WAT     H216483   1.165   5.159   3.011
 5322WAT      O16484   1.308   5.618   2.161
 5322WAT     H116485   1.360   5.569   2.098
 5322WAT     H216486   1.367   5.632   2.236
 5323WAT      O16487   1.326   5.627   2.514
 5323WAT     H116488   1.231   5.623   2.525
 5323WAT     H216489   1.344   5.718   2.490
 5324WAT      O16490   1.257   5.544   1.755
 5324WAT     H116491   1.307   5.521   1.834
 5324WAT     H216492   1.237   5.460   1.714
 5325WAT      O16493   1.400   5.407   2.009
 5325WAT     H116494   1.389   5.392   2.102
 5325WAT     H216495   1.476   5.355   1.984
 5326WAT      O16496   1.235   5.001   2.654
 5326WAT     H116497   1.298   5.063   2.691
 5326WAT     H216498   1.249   5.005   2.560
 5327WAT      O16499   1.489   5.191   1.333
 5327WAT     H116500   1.581   5.177   1.312
 5327WAT     H216501   1.487   5.198   1.428
 5328WAT      O16502   1.496   5.268   1.595
 5328WAT     H116503   1.417   5.261   1.648
 5328WAT     H216504   1.517   5.361   1.594
 5329WAT      O16505   0.572   5.117   2.945
 5329WAT     H116506   0.566   5.176   3.020
 5329WAT     H216507   0.666   5.106   2.931
 5330WAT      O16508   0.835   5.082   2.909
 5330WAT     H116509   0.897   5.114   2.843
 5330WAT     H216510   0.890   5.034   2.971
 5331WAT      O16511   0.910   4.939   2.542
 5331WAT     H116512   0.822   4.972   2.522
 5331WAT     H216513   0.899   4.891   2.624
 5332WAT      O16514   1.000   5.159   2.680
 5332WAT     H116515   0.967   5.078   2.642
 5332WAT     H216516   1.095   5.155   2.668
 5333WAT      O16517   0.684   5.030   2.436
 5333WAT     H116518   0.606   5.078   2.464
 5333WAT     H216519   0.655   4.940   2.425
 5334WAT      O16520   1.139   5.101   2.240
 5334WAT     H116521   1.184   5.095   2.155
 5334WAT     H216522   1.113   5.192   2.247
 5335WAT      O16523   1.326   5.064   2.041
 5335WAT     H116524   1.320   4.969   2.027
 5335WAT     H216525   1.404   5.075   2.096
 5336WAT      O16526   0.473   5.272   1.987
 5336WAT     H116527   0.392   5.235   1.953
 5336WAT     H216528   0.523   5.197   2.017
 5337WAT      O16529   0.923   4.939   2.111
 5337WAT     H116530   0.983   4.996   2.158
 5337WAT     H216531   0.849   4.995   2.088
 5338WAT      O16532   1.237   4.979   1.638
 5338WAT     H116533   1.257   5.069   1.665
 5338WAT     H216534   1.159   4.956   1.687
 5339WAT      O16535   0.275   5.087   1.847
 5339WAT     H116536   0.212   5.017   1.864
 5339WAT     H216537   0.221   5.163   1.826
 5340WAT      O16538   0.288   5.015   3.091
 5340WAT     H116539   0.260   5.065   3.014
 5340WAT     H216540   0.326   4.935   3.054
 5341WAT      O16541   0.948   4.957   3.149
 5341WAT     H116542   0.937   4.989   3.238
 5341WAT     H216543   1.030   4.997   3.119
 5342WAT      O16544   0.699   5.485   0.397
 5342WAT     H116545   0.737   5.397   0.385
 5342WAT     H216546   0.689   5.518   0.307
 5343WAT      O16547   0.296   5.619   0.376
 5343WAT     H116548   0.347   5.669   0.440
 5343WAT     H216549   0.349   5.541   0.358
 5344WAT      O16550   1.506   5.436   0.746
 5344WAT     H116551   1.436   5.475   0.694
 5344WAT     H216552   1.533   5.505   0.806
 5345WAT      O16553   1.101   5.428   0.367
 5345WAT     H116554   1.030   5.457   0.425
 5345WAT     H216555   1.137   5.509   0.331
 5346WAT      O16556   1.408   5.373   0.406
 5346WAT     H116557   1.313   5.376   0.419
 5346WAT     H216558   1.440   5.454   0.445
 5347WAT      O16559   1.047   5.583   0.701
 5347WAT     H116560   1.006   5.666   0.727
 5347WAT     H216561   0.974   5.525   0.682
 5348WAT      O16562   1.399   5.488   1.090
 5348WAT     H116563   1.338   5.539   1.037
 5348WAT     H216564   1.367   5.398   1.084
 5349WAT      O16565   0.606   5.372   0.836
 5349WAT     H116566   0.559   5.393   0.917
 5349WAT     H216567   0.565   5.291   0.806
 5350WAT      O16568   1.106   5.494   0.949
 5350WAT     H116569   1.021   5.464   0.981
 5350WAT     H216570   1.090   5.519   0.858
 5351WAT      O16571   0.815   5.644   1.159
 5351WAT     H116572   0.848   5.561   1.125
 5351WAT     H216573   0.894   5.697   1.174
 5352WAT      O16574   0.381   5.140   0.462
 5352WAT     H116575   0.410   5.231   0.454
 5352WAT     H216576   0.436   5.091   0.400
 5353WAT      O16577   0.400   5.688   1.115
 5353WAT     H116578   0.390   5.594   1.100
 5353WAT     H216579   0.484   5.710   1.076
 5354WAT      O16580   0.571   5.337   1.238
 5354WAT     H116581   0.502   5.318   1.301
 5354WAT     H216582   0.645   5.366   1.291
 5355WAT      O16583   0.798   5.721   0.521
 5355WAT     H116584   0.725   5.772   0.556
 5355WAT     H216585   0.758   5.640   0.491
 5356WAT      O16586   0.442   5.389   0.362
 5356WAT     H116587   0.442   5.345   0.277
 5356WAT     H216588   0.531   5.421   0.372
 5357WAT      O16589   0.844   5.267   0.462
 5357WAT     H116590   0.846   5.312   0.547
 5357WAT     H216591   0.820   5.177   0.484
 5358WAT      O16592   1.187   5.008   1.046
 5358WAT     H116593   1.220   4.935   1.099
 5358WAT     H216594   1.191   4.976   0.956
 5359WAT      O16595   0.472   5.795   0.536
 5359WAT     H116596   0.509   5.747   0.611
 5359WAT     H216597   0.453   5.882   0.570
 5360WAT      O16598   0.251   5.699   0.768
 5360WAT     H116599   0.221   5.787   0.791
 5360WAT     H216600   0.347   5.705   0.772
 5361WAT      O16601   0.177   5.829   1.171
 5361WAT     H116602   0.147   5.843   1.081
 5361WAT     H216603   0.254   5.773   1.162
 5362WAT      O16604   0.864   5.381   0.726
 5362WAT     H116605   0.900   5.299   0.758
 5362WAT     H216606   0.778   5.387   0.767
 5363WAT      O16607   0.560   5.646   0.748
 5363WAT     H116608   0.609   5.694   0.814
 5363WAT     H216609   0.574   5.554   0.769
 5364WAT      O16610   1.280   5.268   0.832
 5364WAT     H116611   1.230   5.342   0.866
 5364WAT     H216612   1.362   5.307   0.801
 5365WAT      O16613   1.109   5.792   0.177
 5365WAT     H116614   1.015   5.794   0.194
 5365WAT     H216615   1.141   5.714   0.221
 5366WAT      O16616   1.064   5.739   1.188
 5366WAT     H116617   1.122   5.663   1.179
 5366WAT     H216618   1.081   5.792   1.110
 5367WAT      O16619   0.452   5.111   0.722
 5367WAT     H116620   0.407   5.113   0.638
 5367WAT     H216621   0.389   5.071   0.782
 5368WAT      O16622   0.726   5.773   0.923
 5368WAT     H116623   0.738   5.714   0.997
 5368WAT     H216624   0.812   5.777   0.881
 5369WAT      O16625   0.403   5.428   1.049
 5369WAT     H116626   0.462   5.397   1.117
 5369WAT     H216627   0.321   5.380   1.064
 5370WAT      O16628   0.885   5.389   1.072
 5370WAT     H116629   0.816   5.323   1.065
 5370WAT     H216630   0.957   5.345   1.116
 5371WAT      O16631   1.320   5.710   0.917
 5371WAT     H116632   1.296   5.687   0.827
 5371WAT     H216633   1.346   5.802   0.913
 5372WAT      O16634   1.163   5.233   1.195
 5372WAT     H116635   1.251   5.234   1.233
 5372WAT     H216636   1.165   5.159   1.134
 5373WAT      O16637   1.308   5.618   0.284
 5373WAT     H116638   1.360   5.569   0.221
 5373WAT     H216639   1.367   5.632   0.358
 5374WAT      O16640   1.326   5.627   0.636
 5374WAT     H116641   1.231   5.623   0.648
 5374WAT     H216642   1.344   5.718   0.613
 5375WAT      O16643   1.235   5.001   0.777
 5375WAT     H116644   1.298   5.063   0.814
 5375WAT     H216645   1.249   5.005   0.683
 5376WAT      O16646   0.572   5.117   1.068
 5376WAT     H116647   0.566   5.176   1.143
 5376WAT     H216648   0.666   5.106   1.053
 5377WAT      O16649   0.835   5.082   1.032
 5377WAT     H116650   0.897   5.114   0.965
 5377WAT     H216651   0.890   5.034   1.094
 5378WAT      O16652   0.910   4.939   0.664
 5378WAT     H116653   0.822   4.972   0.644
 5378WAT     H216654   0.899   4.891   0.747
 5379WAT      O16655   1.000   5.159   0.803
 5379WAT     H116656   0.967   5.078   0.765
 5379WAT     H216657   1.095   5.155   0.790
 5380WAT      O16658   0.684   5.030   0.558
 5380WAT     H116659   0.606   5.078   0.586
 5380WAT     H216660   0.655   4.940   0.547
 5381WAT      O16661   1.139   5.101   0.363
 5381WAT     H116662   1.184   5.095   0.278
 5381WAT     H216663   1.113   5.192   0.370
 5382WAT      O16664   0.923   4.939   0.233
 5382WAT     H116665   0.983   4.996   0.281
 5382WAT     H216666   0.849   4.995   0.211
 5383WAT      O16667   0.288   5.015   1.213
 5383WAT     H116668   0.260   5.065   1.137
 5383WAT     H216669   0.326   4.935   1.177
 5384WAT      O16670   0.948   4.957   1.271
 5384WAT     H116671   0.937   4.989   1.361
 5384WAT     H216672   1.030   4.997   1.242
 5385WAT      O16673   0.839   3.881   5.817
 5385WAT     H116674   0.831   3.790   5.790
 5385WAT     H216675   0.797   3.931   5.747
 5386WAT      O16676   0.652   4.059   6.005
 5386WAT     H116677   0.574   4.011   6.034
 5386WAT     H216678   0.717   3.991   5.988
 5387WAT      O16679   1.054   4.500   5.883
 5387WAT     H116680   1.008   4.422   5.916
 5387WAT     H216681   1.135   4.502   5.934
 5388WAT      O16682   0.676   4.728   5.845
 5388WAT     H116683   0.615   4.774   5.788
 5388WAT     H216684   0.762   4.744   5.805
 5389WAT      O16685   0.596   4.326   6.006
 5389WAT     H116686   0.589   4.232   5.990
 5389WAT     H216687   0.672   4.335   6.063
 5390WAT      O16688   0.699   3.607   6.029
 5390WAT     H116689   0.737   3.520   6.018
 5390WAT     H216690   0.689   3.641   5.940
 5391WAT      O16691   1.077   3.357   5.722
 5391WAT     H116692   1.159   3.308   5.726
 5391WAT     H216693   1.080   3.416   5.797
 5392WAT      O16694   0.296   3.741   6.008
 5392WAT     H116695   0.347   3.791   6.072
 5392WAT     H216696   0.349   3.664   5.991
 5393WAT      O16697   0.763   4.216   5.585
 5393WAT     H116698   0.701   4.263   5.528
 5393WAT     H216699   0.814   4.286   5.626
 5394WAT      O16700   1.101   3.551   5.999
 5394WAT     H116701   1.030   3.580   6.057
 5394WAT     H216702   1.137   3.632   5.963
 5395WAT      O16703   1.408   3.495   6.038
 5395WAT     H116704   1.313   3.499   6.052
 5395WAT     H216705   1.440   3.577   6.077
 5396WAT      O16706   0.461   3.125   5.868
 5396WAT     H116707   0.492   3.070   5.796
 5396WAT     H216708   0.368   3.139   5.850
 5397WAT      O16709   1.016   4.697   6.097
 5397WAT     H116710   1.017   4.657   6.010
 5397WAT     H216711   0.961   4.774   6.087
 5398WAT      O16712   1.145   4.369   5.606
 5398WAT     H116713   1.134   4.275   5.618
 5398WAT     H216714   1.145   4.405   5.695
 5399WAT      O16715   0.700   3.932   5.542
 5399WAT     H116716   0.607   3.925   5.565
 5399WAT     H216717   0.715   4.026   5.530
 5400WAT      O16718   0.698   3.559   5.241
 5400WAT     H116719   0.604   3.575   5.250
 5400WAT     H216720   0.730   3.631   5.187
 5401WAT      O16721   1.103   4.088   5.592
 5401WAT     H116722   1.041   4.054   5.527
 5401WAT     H216723   1.101   4.024   5.663
 5402WAT      O16724   0.260   3.984   5.820
 5402WAT     H116725   0.220   3.913   5.770
 5402WAT     H216726   0.269   3.950   5.909
 5403WAT      O16727   0.307   4.353   6.036
 5403WAT     H116728   0.277   4.292   5.968
 5403WAT     H216729   0.402   4.357   6.025
 5404WAT      O16730   0.920   4.012   5.293
 5404WAT     H116731   0.964   3.928   5.278
 5404WAT     H216732   0.992   4.075   5.301
 5405WAT      O16733   0.731   4.506   5.690
 5405WAT     H116734   0.775   4.580   5.648
 5405WAT     H216735   0.725   4.530   5.782
 5406WAT      O16736   1.278   3.137   5.124
 5406WAT     H116737   1.247   3.146   5.214
 5406WAT     H216738   1.355   3.195   5.119
 5407WAT      O16739   0.998   4.804   5.425
 5407WAT     H116740   0.982   4.775   5.515
 5407WAT     H216741   0.981   4.727   5.372
 5408WAT      O16742   0.246   4.782   5.603
 5408WAT     H116743   0.228   4.691   5.582
 5408WAT     H216744   0.160   4.818   5.627
 5409WAT      O16745   0.968   4.555   5.281
 5409WAT     H116746   0.899   4.555   5.215
 5409WAT     H216747   1.042   4.513   5.238
 5410WAT      O16748   0.925   4.718   5.689
 5410WAT     H116749   0.970   4.640   5.720
 5410WAT     H216750   0.959   4.789   5.743
 5411WAT      O16751   0.488   3.170   5.396
 5411WAT     H116752   0.426   3.170   5.469
 5411WAT     H216753   0.480   3.084   5.357
 5412WAT      O16754   0.381   3.263   6.094
 5412WAT     H116755   0.410   3.353   6.086
 5412WAT     H216756   0.436   3.214   6.033
 5413WAT      O16757   0.879   3.721   5.541
 5413WAT     H116758   0.819   3.793   5.522
 5413WAT     H216759   0.934   3.715   5.463
 5414WAT      O16760   0.740   3.585   5.744
 5414WAT     H116761   0.779   3.616   5.663
 5414WAT     H216762   0.776   3.497   5.755
 5415WAT      O16763   0.442   3.511   5.994
 5415WAT     H116764   0.442   3.467   5.909
 5415WAT     H216765   0.531   3.544   6.005
 5416WAT      O16766   0.448   3.611   5.293
 5416WAT     H116767   0.460   3.607   5.388
 5416WAT     H216768   0.410   3.698   5.277
 5417WAT      O16769   0.349   3.842   5.233
 5417WAT     H116770   0.293   3.798   5.170
 5417WAT     H216771   0.420   3.878   5.179
 5418WAT      O16772   1.180   4.142   6.039
 5418WAT     H116773   1.252   4.191   6.000
 5418WAT     H216774   1.160   4.074   5.975
 5419WAT      O16775   0.726   3.281   5.454
 5419WAT     H116776   0.645   3.231   5.446
 5419WAT     H216777   0.706   3.365   5.412
 5420WAT      O16778   0.997   3.718   5.283
 5420WAT     H116779   1.086   3.749   5.266
 5420WAT     H216780   0.994   3.631   5.244
 5421WAT      O16781   0.597   4.336   5.351
 5421WAT     H116782   0.631   4.410   5.302
 5421WAT     H216783   0.514   4.367   5.387
 5422WAT      O16784   1.224   3.849   5.230
 5422WAT     H116785   1.216   3.893   5.145
 5422WAT     H216786   1.296   3.895   5.273
 5423WAT      O16787   1.327   4.535   5.503
 5423WAT     H116788   1.263   4.469   5.530
 5423WAT     H216789   1.289   4.575   5.425
 5424WAT      O16790   0.885   4.268   5.888
 5424WAT     H116791   0.920   4.208   5.822
 5424WAT     H216792   0.797   4.235   5.905
 5425WAT      O16793   0.494   4.344   5.628
 5425WAT     H116794   0.563   4.398   5.666
 5425WAT     H216795   0.415   4.398   5.632
 5426WAT      O16796   0.424   4.044   5.590
 5426WAT     H116797   0.470   4.125   5.612
 5426WAT     H216798   0.389   4.012   5.673
 5427WAT      O16799   1.166   4.424   5.157
 5427WAT     H116800   1.144   4.352   5.216
 5427WAT     H216801   1.127   4.399   5.073
 5428WAT      O16802   1.124   4.216   5.323
 5428WAT     H116803   1.096   4.262   5.402
 5428WAT     H216804   1.204   4.170   5.350
 5429WAT      O16805   0.346   4.565   5.316
 5429WAT     H116806   0.345   4.638   5.254
 5429WAT     H216807   0.254   4.540   5.325
 5430WAT      O16808   1.200   3.399   5.439
 5430WAT     H116809   1.137   3.410   5.367
 5430WAT     H216810   1.151   3.421   5.518
 5431WAT      O16811   0.645   4.571   5.182
 5431WAT     H116812   0.655   4.551   5.089
 5431WAT     H216813   0.555   4.546   5.203
 5432WAT      O16814   0.397   3.627   5.580
 5432WAT     H116815   0.326   3.674   5.624
 5432WAT     H216816   0.425   3.561   5.644
 5433WAT      O16817   0.800   3.300   5.724
 5433WAT     H116818   0.788   3.301   5.629
 5433WAT     H216819   0.895   3.304   5.736
 5434WAT      O16820   0.509   4.823   5.652
 5434WAT     H116821   0.534   4.819   5.559
 5434WAT     H216822   0.414   4.810   5.651
 5435WAT      O16823   0.217   3.458   5.318
 5435WAT     H116824   0.302   3.502   5.311
 5435WAT     H216825   0.181   3.489   5.401
 5436WAT      O16826   1.109   3.915   5.809
 5436WAT     H116827   1.015   3.917   5.827
 5436WAT     H216828   1.141   3.836   5.854
 5437WAT      O16829   1.310   4.632   5.977
 5437WAT     H116830   1.322   4.714   6.024
 5437WAT     H216831   1.396   4.611   5.942
 5438WAT      O16832   0.368   4.759   5.126
 5438WAT     H116833   0.447   4.788   5.081
 5438WAT     H216834   0.316   4.716   5.058
 5439WAT      O16835   1.273   4.681   5.268
 5439WAT     H116836   1.245   4.640   5.187
 5439WAT     H216837   1.253   4.774   5.256
 5440WAT      O16838   0.420   4.281   5.113
 5440WAT     H116839   0.409   4.219   5.185
 5440WAT     H216840   0.403   4.228   5.034
 5441WAT      O16841   0.744   4.187   5.173
 5441WAT     H116842   0.689   4.232   5.237
 5441WAT     H216843   0.806   4.136   5.225
 5442WAT      O16844   0.310   4.083   5.363
 5442WAT     H116845   0.353   4.066   5.447
 5442WAT     H216846   0.323   4.002   5.313
 5443WAT      O16847   0.562   3.985   5.087
 5443WAT     H116848   0.614   3.914   5.051
 5443WAT     H216849   0.626   4.049   5.117
 5444WAT      O16850   0.200   3.690   5.057
 5444WAT     H116851   0.180   3.604   5.093
 5444WAT     H216852   0.183   3.682   4.963
 5445WAT      O16853   0.948   3.171   5.310
 5445WAT     H116854   0.976   3.087   5.346
 5445WAT     H216855   0.871   3.195   5.361
 5446WAT      O16856   0.402   3.295   5.155
 5446WAT     H116857   0.367   3.227   5.097
 5446WAT     H216858   0.422   3.248   5.236
 5447WAT      O16859   0.618   4.793   5.316
 5447WAT     H116860   0.708   4.827   5.319
 5447WAT     H216861   0.621   4.721   5.254
 5448WAT      O16862   1.440   4.421   5.121
 5448WAT     H116863   1.357   4.427   5.168
 5448WAT     H216864   1.458   4.510   5.090
 5449WAT      O16865   1.386   4.095   5.371
 5449WAT     H116866   1.462   4.152   5.382
 5449WAT     H216867   1.387   4.038   5.448
 5450WAT      O16868   1.486   4.181   5.856
 5450WAT     H116869   1.523   4.102   5.815
 5450WAT     H216870   1.550   4.249   5.838
 5451WAT      O16871   1.391   4.124   5.087
 5451WAT     H116872   1.418   4.215   5.074
 5451WAT     H216873   1.372   4.118   5.180
 5452WAT      O16874   1.031   3.427   5.216
 5452WAT     H116875   1.073   3.408   5.132
 5452WAT     H216876   1.000   3.342   5.247
 5453WAT      O16877   1.381   3.918   5.586
 5453WAT     H116878   1.343   3.841   5.543
 5453WAT     H216879   1.308   3.956   5.635
 5454WAT      O16880   1.308   3.741   5.916
 5454WAT     H116881   1.360   3.691   5.853
 5454WAT     H216882   1.367   3.754   5.991
 5455WAT      O16883   1.257   3.666   5.510
 5455WAT     H116884   1.307   3.643   5.589
 5455WAT     H216885   1.237   3.583   5.468
 5456WAT      O16886   1.400   3.530   5.763
 5456WAT     H116887   1.389   3.515   5.857
 5456WAT     H216888   1.476   3.477   5.739
 5457WAT      O16889   1.489   3.313   5.088
 5457WAT     H116890   1.581   3.300   5.067
 5457WAT     H216891   1.487   3.321   5.183
 5458WAT      O16892   1.496   3.390   5.350
 5458WAT     H116893   1.417   3.384   5.403
 5458WAT     H216894   1.517   3.484   5.349
 5459WAT      O16895   1.190   4.794   5.749
 5459WAT     H116896   1.250   4.762   5.682
 5459WAT     H216897   1.216   4.747   5.829
 5460WAT      O16898   1.246   4.859   6.132
 5460WAT     H116899   1.200   4.934   6.095
 5460WAT     H216900   1.183   4.787   6.127
 5461WAT      O16901   0.289   4.690   6.050
 5461WAT     H116902   0.340   4.629   5.997
 5461WAT     H216903   0.354   4.740   6.099
 5462WAT      O16904   1.139   3.223   5.995
 5462WAT     H116905   1.184   3.218   5.910
 5462WAT     H216906   1.113   3.315   6.002
 5463WAT      O16907   1.326   3.186   5.796
 5463WAT     H116908   1.320   3.092   5.781
 5463WAT     H216909   1.404   3.197   5.851
 5464WAT      O16910   0.473   3.395   5.742
 5464WAT     H116911   0.392   3.357   5.708
 5464WAT     H216912   0.523   3.319   5.772
 5465WAT      O16913   0.923   3.061   5.866
 5465WAT     H116914   0.983   3.118   5.913
 5465WAT     H216915   0.849   3.118   5.843
 5466WAT      O16916   1.237   3.101   5.393
 5466WAT     H116917   1.257   3.191   5.420
 5466WAT     H216918   1.159   3.078   5.442
 5467WAT      O16919   0.275   3.210   5.602
 5467WAT     H116920   0.212   3.140   5.619
 5467WAT     H216921   0.221   3.286   5.581
 5468WAT      O16922   1.393   4.825   5.569
 5468WAT     H116923   1.410   4.757   5.505
 5468WAT     H216924   1.323   4.878   5.530
 5469WAT      O16925   0.177   4.864   5.324
 5469WAT     H116926   0.250   4.836   5.270
 5469WAT     H216927   0.203   4.841   5.413
 5470WAT      O16928   0.839   3.881   3.940
 5470WAT     H116929   0.831   3.790   3.913
 5470WAT     H216930   0.797   3.931   3.869
 5471WAT      O16931   0.652   4.059   4.128
 5471WAT     H116932   0.574   4.011   4.157
 5471WAT     H216933   0.717   3.991   4.111
 5472WAT      O16934   1.054   4.500   4.006
 5472WAT     H116935   1.008   4.422   4.039
 5472WAT     H216936   1.135   4.502   4.057
 5473WAT      O16937   0.676   4.728   3.968
 5473WAT     H116938   0.615   4.774   3.911
 5473WAT     H216939   0.762   4.744   3.928
 5474WAT      O16940   0.596   4.326   4.129
 5474WAT     H116941   0.589   4.232   4.113
 5474WAT     H216942   0.672   4.335   4.186
 5475WAT      O16943   0.699   3.607   4.151
 5475WAT     H116944   0.737   3.520   4.140
 5475WAT     H216945   0.689   3.641   4.062
 5476WAT      O16946   1.077   3.357   3.845
 5476WAT     H116947   1.159   3.308   3.849
 5476WAT     H216948   1.080   3.416   3.920
 5477WAT      O16949   0.296   3.741   4.131
 5477WAT     H116950   0.347   3.791   4.195
 5477WAT     H216951   0.349   3.664   4.113
 5478WAT      O16952   1.506   3.558   4.501
 5478WAT     H116953   1.436   3.597   4.449
 5478WAT     H216954   1.533   3.628   4.561
 5479WAT      O16955   0.763   4.216   3.707
 5479WAT     H116956   0.701   4.263   3.651
 5479WAT     H216957   0.814   4.286   3.749
 5480WAT      O16958   0.249   4.169   4.375
 5480WAT     H116959   0.216   4.232   4.439
 5480WAT     H216960   0.267   4.222   4.297
 5481WAT      O16961   1.101   3.551   4.122
 5481WAT     H116962   1.030   3.580   4.180
 5481WAT     H216963   1.137   3.632   4.086
 5482WAT      O16964   1.262   4.512   4.348
 5482WAT     H116965   1.194   4.579   4.347
 5482WAT     H216966   1.316   4.532   4.272
 5483WAT      O16967   1.408   3.495   4.161
 5483WAT     H116968   1.313   3.499   4.174
 5483WAT     H216969   1.440   3.577   4.200
 5484WAT      O16970   0.461   3.125   3.991
 5484WAT     H116971   0.492   3.070   3.919
 5484WAT     H216972   0.368   3.139   3.972
 5485WAT      O16973   1.016   4.697   4.220
 5485WAT     H116974   1.017   4.657   4.133
 5485WAT     H216975   0.961   4.774   4.209
 5486WAT      O16976   1.145   4.369   3.729
 5486WAT     H116977   1.134   4.275   3.741
 5486WAT     H216978   1.145   4.405   3.817
 5487WAT      O16979   0.956   4.187   4.352
 5487WAT     H116980   0.998   4.166   4.269
 5487WAT     H216981   1.028   4.213   4.410
 5488WAT      O16982   0.700   3.932   3.664
 5488WAT     H116983   0.607   3.925   3.687
 5488WAT     H216984   0.715   4.026   3.653
 5489WAT      O16985   0.698   3.559   3.364
 5489WAT     H116986   0.604   3.575   3.372
 5489WAT     H216987   0.730   3.631   3.309
 5490WAT      O16988   1.350   4.027   4.362
 5490WAT     H116989   1.268   4.034   4.314
 5490WAT     H216990   1.410   4.086   4.315
 5491WAT      O16991   1.103   4.088   3.715
 5491WAT     H116992   1.041   4.054   3.650
 5491WAT     H216993   1.101   4.024   3.785
 5492WAT      O16994   1.047   3.706   4.456
 5492WAT     H116995   1.006   3.788   4.482
 5492WAT     H216996   0.974   3.647   4.437
 5493WAT      O16997   0.260   3.984   3.942
 5493WAT     H116998   0.220   3.913   3.893
 5493WAT     H216999   0.269   3.950   4.031
 5494WAT      O17000   0.307   4.353   4.159
 5494WAT     H117001   0.277   4.292   4.091
 5494WAT     H217002   0.402   4.357   4.148
 5495WAT      O17003   1.116   4.710   4.525
 5495WAT     H117004   1.068   4.791   4.506
 5495WAT     H217005   1.048   4.645   4.540
 5496WAT      O17006   0.920   4.012   3.415
 5496WAT     H117007   0.964   3.928   3.401
 5496WAT     H217008   0.992   4.075   3.424
 5497WAT      O17009   0.731   4.506   3.812
 5497WAT     H117010   0.775   4.580   3.771
 5497WAT     H217011   0.725   4.530   3.904
 5498WAT      O17012   0.279   4.608   4.902
 5498WAT     H117013   0.276   4.649   4.816
 5498WAT     H217014   0.262   4.515   4.886
 5499WAT      O17015   1.278   3.137   3.247
 5499WAT     H117016   1.247   3.146   3.337
 5499WAT     H217017   1.355   3.195   3.242
 5500WAT      O17018   1.474   4.686   5.032
 5500WAT     H117019   1.521   4.734   5.100
 5500WAT     H217020   1.536   4.680   4.959
 5501WAT      O17021   1.414   4.406   4.748
 5501WAT     H117022   1.427   4.382   4.656
 5501WAT     H217023   1.418   4.322   4.795
 5502WAT      O17024   0.800   4.776   4.605
 5502WAT     H117025   0.852   4.767   4.685
 5502WAT     H217026   0.716   4.810   4.634
 5503WAT      O17027   0.998   4.804   3.548
 5503WAT     H117028   0.982   4.775   3.638
 5503WAT     H217029   0.981   4.727   3.494
 5504WAT      O17030   0.246   4.782   3.725
 5504WAT     H117031   0.228   4.691   3.704
 5504WAT     H217032   0.160   4.818   3.749
 5505WAT      O17033   0.968   4.555   3.404
 5505WAT     H117034   0.899   4.555   3.338
 5505WAT     H217035   1.042   4.513   3.361
 5506WAT      O17036   0.925   4.718   3.811
 5506WAT     H117037   0.970   4.640   3.843
 5506WAT     H217038   0.959   4.789   3.866
 5507WAT      O17039   1.399   3.611   4.844
 5507WAT     H117040   1.338   3.662   4.792
 5507WAT     H217041   1.367   3.521   4.839
 5508WAT      O17042   0.606   3.495   4.591
 5508WAT     H117043   0.559   3.516   4.672
 5508WAT     H217044   0.565   3.413   4.561
 5509WAT      O17045   1.106   3.617   4.704
 5509WAT     H117046   1.021   3.587   4.736
 5509WAT     H217047   1.090   3.641   4.613
 5510WAT      O17048   0.815   3.767   4.914
 5510WAT     H117049   0.848   3.684   4.880
 5510WAT     H217050   0.894   3.819   4.929
 5511WAT      O17051   0.488   3.170   3.519
 5511WAT     H117052   0.426   3.170   3.591
 5511WAT     H217053   0.480   3.084   3.479
 5512WAT      O17054   0.381   3.263   4.217
 5512WAT     H117055   0.410   3.353   4.209
 5512WAT     H217056   0.436   3.214   4.155
 5513WAT      O17057   0.879   3.721   3.663
 5513WAT     H117058   0.819   3.793   3.645
 5513WAT     H217059   0.934   3.715   3.585
 5514WAT      O17060   0.400   3.810   4.870
 5514WAT     H117061   0.390   3.716   4.855
 5514WAT     H217062   0.484   3.832   4.831
 5515WAT      O17063   0.740   3.585   3.866
 5515WAT     H117064   0.779   3.616   3.785
 5515WAT     H217065   0.776   3.497   3.878
 5516WAT      O17066   0.571   3.460   4.992
 5516WAT     H117067   0.502   3.441   5.056
 5516WAT     H217068   0.645   3.488   5.046
 5517WAT      O17069   0.798   3.844   4.276
 5517WAT     H117070   0.725   3.895   4.311
 5517WAT     H217071   0.758   3.762   4.246
 5518WAT      O17072   0.442   3.511   4.116
 5518WAT     H117073   0.442   3.467   4.032
 5518WAT     H217074   0.531   3.544   4.127
 5519WAT      O17075   0.448   3.611   3.416
 5519WAT     H117076   0.460   3.607   3.510
 5519WAT     H217077   0.410   3.698   3.400
 5520WAT      O17078   0.844   3.389   4.217
 5520WAT     H117079   0.846   3.434   4.302
 5520WAT     H217080   0.820   3.299   4.239
 5521WAT      O17081   0.349   3.842   3.355
 5521WAT     H117082   0.293   3.798   3.293
 5521WAT     H217083   0.420   3.878   3.302
 5522WAT      O17084   1.187   3.130   4.801
 5522WAT     H117085   1.220   3.057   4.854
 5522WAT     H217086   1.191   3.099   4.711
 5523WAT      O17087   0.472   3.917   4.291
 5523WAT     H117088   0.509   3.870   4.366
 5523WAT     H217089   0.453   4.005   4.325
 5524WAT      O17090   0.251   3.821   4.523
 5524WAT     H117091   0.221   3.909   4.545
 5524WAT     H217092   0.347   3.827   4.527
 5525WAT      O17093   1.180   4.142   4.162
 5525WAT     H117094   1.252   4.191   4.123
 5525WAT     H217095   1.160   4.074   4.097
 5526WAT      O17096   0.726   3.281   3.576
 5526WAT     H117097   0.645   3.231   3.569
 5526WAT     H217098   0.706   3.365   3.535
 5527WAT      O17099   0.718   4.149   4.751
 5527WAT     H117100   0.711   4.057   4.725
 5527WAT     H217101   0.655   4.159   4.822
 5528WAT      O17102   0.997   3.718   3.406
 5528WAT     H117103   1.086   3.749   3.388
 5528WAT     H217104   0.994   3.631   3.367
 5529WAT      O17105   0.597   4.336   3.474
 5529WAT     H117106   0.631   4.410   3.424
 5529WAT     H217107   0.514   4.367   3.510
 5530WAT      O17108   0.177   3.951   4.926
 5530WAT     H117109   0.147   3.966   4.836
 5530WAT     H217110   0.254   3.895   4.917
 5531WAT      O17111   0.711   4.431   4.726
 5531WAT     H117112   0.713   4.338   4.704
 5531WAT     H217113   0.640   4.440   4.790
 5532WAT      O17114   1.224   3.849   3.353
 5532WAT     H117115   1.216   3.893   3.268
 5532WAT     H217116   1.296   3.895   3.396
 5533WAT      O17117   1.332   4.095   4.660
 5533WAT     H117118   1.260   4.154   4.641
 5533WAT     H217119   1.385   4.094   4.580
 5534WAT      O17120   1.327   4.535   3.625
 5534WAT     H117121   1.263   4.469   3.653
 5534WAT     H217122   1.289   4.575   3.548
 5535WAT      O17123   0.885   4.268   4.010
 5535WAT     H117124   0.920   4.208   3.944
 5535WAT     H217125   0.797   4.235   4.027
 5536WAT      O17126   0.494   4.344   3.751
 5536WAT     H117127   0.563   4.398   3.789
 5536WAT     H217128   0.415   4.398   3.754
 5537WAT      O17129   0.424   4.044   3.712
 5537WAT     H117130   0.470   4.125   3.735
 5537WAT     H217131   0.389   4.012   3.795
 5538WAT      O17132   0.654   4.595   4.435
 5538WAT     H117133   0.719   4.616   4.503
 5538WAT     H217134   0.691   4.519   4.390
 5539WAT      O17135   0.782   4.396   4.307
 5539WAT     H117136   0.846   4.325   4.318
 5539WAT     H217137   0.834   4.473   4.289
 5540WAT      O17138   1.166   4.424   3.279
 5540WAT     H117139   1.144   4.352   3.338
 5540WAT     H217140   1.127   4.399   3.195
 5541WAT      O17141   0.959   4.475   4.627
 5541WAT     H117142   0.993   4.534   4.695
 5541WAT     H217143   0.867   4.462   4.650
 5542WAT      O17144   1.124   4.216   3.445
 5542WAT     H117145   1.096   4.262   3.524
 5542WAT     H217146   1.204   4.170   3.472
 5543WAT      O17147   0.542   4.480   4.944
 5543WAT     H117148   0.510   4.408   4.999
 5543WAT     H217149   0.475   4.548   4.951
 5544WAT      O17150   0.346   4.565   3.438
 5544WAT     H117151   0.345   4.638   3.377
 5544WAT     H217152   0.254   4.540   3.448
 5545WAT      O17153   0.864   3.504   4.480
 5545WAT     H117154   0.900   3.422   4.513
 5545WAT     H217155   0.778   3.510   4.522
 5546WAT      O17156   1.200   3.399   3.561
 5546WAT     H117157   1.137   3.410   3.490
 5546WAT     H217158   1.151   3.421   3.640
 5547WAT      O17159   0.645   4.571   3.305
 5547WAT     H117160   0.655   4.551   3.212
 5547WAT     H217161   0.555   4.546   3.325
 5548WAT      O17162   0.397   3.627   3.703
 5548WAT     H117163   0.326   3.674   3.747
 5548WAT     H217164   0.425   3.561   3.766
 5549WAT      O17165   0.560   3.769   4.503
 5549WAT     H117166   0.609   3.816   4.569
 5549WAT     H217167   0.574   3.677   4.524
 5550WAT      O17168   0.800   3.300   3.847
 5550WAT     H117169   0.788   3.301   3.752
 5550WAT     H217170   0.895   3.304   3.859
 5551WAT      O17171   0.509   4.823   3.774
 5551WAT     H117172   0.534   4.819   3.682
 5551WAT     H217173   0.414   4.810   3.773
 5552WAT      O17174   0.217   3.458   3.440
 5552WAT     H117175   0.302   3.502   3.434
 5552WAT     H217176   0.181   3.489   3.523
 5553WAT      O17177   1.280   3.391   4.587
 5553WAT     H117178   1.230   3.465   4.621
 5553WAT     H217179   1.362   3.430   4.555
 5554WAT      O17180   1.109   3.915   3.932
 5554WAT     H117181   1.015   3.917   3.949
 5554WAT     H217182   1.141   3.836   3.976
 5555WAT      O17183   1.310   4.632   4.099
 5555WAT     H117184   1.322   4.714   4.146
 5555WAT     H217185   1.396   4.611   4.064
 5556WAT      O17186   0.368   4.759   3.249
 5556WAT     H117187   0.447   4.788   3.203
 5556WAT     H217188   0.316   4.716   3.181
 5557WAT      O17189   0.841   4.371   4.980
 5557WAT     H117190   0.781   4.373   4.906
 5557WAT     H217191   0.811   4.298   5.034
 5558WAT      O17192   0.984   4.744   4.841
 5558WAT     H117193   1.079   4.735   4.836
 5558WAT     H217194   0.969   4.810   4.908
 5559WAT      O17195   1.273   4.681   3.391
 5559WAT     H117196   1.245   4.640   3.310
 5559WAT     H217197   1.253   4.774   3.379
 5560WAT      O17198   0.420   4.281   3.235
 5560WAT     H117199   0.409   4.219   3.308
 5560WAT     H217200   0.403   4.228   3.157
 5561WAT      O17201   0.435   4.149   4.833
 5561WAT     H117202   0.358   4.206   4.825
 5561WAT     H217203   0.453   4.120   4.744
 5562WAT      O17204   0.744   4.187   3.296
 5562WAT     H117205   0.689   4.232   3.360
 5562WAT     H217206   0.806   4.136   3.348
 5563WAT      O17207   1.149   4.322   4.889
 5563WAT     H117208   1.223   4.356   4.838
 5563WAT     H217209   1.073   4.339   4.833
 5564WAT      O17210   0.310   4.083   3.485
 5564WAT     H117211   0.353   4.066   3.569
 5564WAT     H217212   0.323   4.002   3.436
 5565WAT      O17213   0.562   3.985   3.210
 5565WAT     H117214   0.614   3.914   3.173
 5565WAT     H217215   0.626   4.049   3.240
 5566WAT      O17216   1.017   4.128   4.742
 5566WAT     H117217   1.058   4.143   4.827
 5566WAT     H217218   0.923   4.140   4.759
 5567WAT      O17219   1.064   3.862   4.943
 5567WAT     H117220   1.122   3.786   4.934
 5567WAT     H217221   1.081   3.915   4.865
 5568WAT      O17222   0.452   3.233   4.477
 5568WAT     H117223   0.407   3.235   4.393
 5568WAT     H217224   0.389   3.193   4.537
 5569WAT      O17225   0.493   4.123   4.539
 5569WAT     H117226   0.535   4.207   4.522
 5569WAT     H217227   0.401   4.136   4.516
 5570WAT      O17228   0.726   3.896   4.678
 5570WAT     H117229   0.738   3.836   4.752
 5570WAT     H217230   0.812   3.900   4.636
 5571WAT      O17231   0.960   3.951   4.535
 5571WAT     H117232   0.908   4.004   4.475
 5571WAT     H217233   0.995   4.015   4.598
 5572WAT      O17234   0.200   3.690   3.180
 5572WAT     H117235   0.180   3.604   3.216
 5572WAT     H217236   0.183   3.682   3.086
 5573WAT      O17237   0.278   4.753   4.651
 5573WAT     H117238   0.224   4.826   4.619
 5573WAT     H217239   0.303   4.706   4.572
 5574WAT      O17240   0.403   3.550   4.803
 5574WAT     H117241   0.462   3.519   4.872
 5574WAT     H217242   0.321   3.503   4.819
 5575WAT      O17243   0.885   3.512   4.827
 5575WAT     H117244   0.816   3.446   4.820
 5575WAT     H217245   0.957   3.467   4.871
 5576WAT      O17246   0.948   3.171   3.433
 5576WAT     H117247   0.976   3.087   3.468
 5576WAT     H217248   0.871   3.195   3.484
 5577WAT      O17249   0.563   4.877   4.677
 5577WAT     H117250   0.556   4.967   4.707
 5577WAT     H217251   0.473   4.845   4.674
 5578WAT      O17252   0.402   3.295   3.277
 5578WAT     H117253   0.367   3.227   3.219
 5578WAT     H217254   0.422   3.248   3.359
 5579WAT      O17255   0.618   4.793   3.439
 5579WAT     H117256   0.708   4.827   3.441
 5579WAT     H217257   0.621   4.721   3.376
 5580WAT      O17258   1.316   4.646   4.710
 5580WAT     H117259   1.256   4.652   4.635
 5580WAT     H217260   1.329   4.552   4.723
 5581WAT      O17261   1.440   4.421   3.243
 5581WAT     H117262   1.357   4.427   3.290
 5581WAT     H217263   1.458   4.510   3.213
 5582WAT      O17264   1.386   4.095   3.494
 5582WAT     H117265   1.462   4.152   3.504
 5582WAT     H217266   1.387   4.038   3.571
 5583WAT      O17267   1.486   4.181   3.978
 5583WAT     H117268   1.523   4.102   3.937
 5583WAT     H217269   1.550   4.249   3.960
 5584WAT      O17270   1.185   4.319   4.519
 5584WAT     H117271   1.103   4.362   4.546
 5584WAT     H217272   1.225   4.380   4.458
 5585WAT      O17273   1.391   4.124   3.209
 5585WAT     H117274   1.418   4.215   3.197
 5585WAT     H217275   1.372   4.118   3.303
 5586WAT      O17276   1.031   3.427   3.339
 5586WAT     H117277   1.073   3.408   3.255
 5586WAT     H217278   1.000   3.342   3.370
 5587WAT      O17279   1.381   3.918   3.709
 5587WAT     H117280   1.343   3.841   3.665
 5587WAT     H217281   1.308   3.956   3.757
 5588WAT      O17282   1.320   3.833   4.672
 5588WAT     H117283   1.296   3.810   4.582
 5588WAT     H217284   1.346   3.925   4.668
 5589WAT      O17285   1.163   3.355   4.950
 5589WAT     H117286   1.251   3.356   4.988
 5589WAT     H217287   1.165   3.282   4.889
 5590WAT      O17288   1.308   3.741   4.039
 5590WAT     H117289   1.360   3.691   3.976
 5590WAT     H217290   1.367   3.754   4.113
 5591WAT      O17291   1.326   3.749   4.391
 5591WAT     H117292   1.231   3.746   4.402
 5591WAT     H217293   1.344   3.840   4.367
 5592WAT      O17294   1.257   3.666   3.633
 5592WAT     H117295   1.307   3.643   3.711
 5592WAT     H217296   1.237   3.583   3.591
 5593WAT      O17297   1.400   3.530   3.886
 5593WAT     H117298   1.389   3.515   3.980
 5593WAT     H217299   1.476   3.477   3.862
 5594WAT      O17300   1.235   3.124   4.532
 5594WAT     H117301   1.298   3.185   4.568
 5594WAT     H217302   1.249   3.128   4.437
 5595WAT      O17303   1.489   3.313   3.210
 5595WAT     H117304   1.581   3.300   3.189
 5595WAT     H217305   1.487   3.321   3.305
 5596WAT      O17306   1.496   3.390   3.473
 5596WAT     H117307   1.417   3.384   3.526
 5596WAT     H217308   1.517   3.484   3.472
 5597WAT      O17309   1.190   4.794   3.872
 5597WAT     H117310   1.250   4.762   3.804
 5597WAT     H217311   1.216   4.747   3.951
 5598WAT      O17312   0.351   4.593   4.447
 5598WAT     H117313   0.327   4.620   4.358
 5598WAT     H217314   0.445   4.610   4.453
 5599WAT      O17315   0.572   3.239   4.823
 5599WAT     H117316   0.566   3.298   4.898
 5599WAT     H217317   0.666   3.228   4.808
 5600WAT      O17318   0.835   3.205   4.787
 5600WAT     H117319   0.897   3.237   4.720
 5600WAT     H217320   0.890   3.156   4.849
 5601WAT      O17321   1.477   4.795   4.527
 5601WAT     H117322   1.428   4.835   4.455
 5601WAT     H217323   1.416   4.732   4.567
 5602WAT      O17324   0.910   3.061   4.419
 5602WAT     H117325   0.822   3.095   4.399
 5602WAT     H217326   0.899   3.014   4.502
 5603WAT      O17327   1.000   3.282   4.558
 5603WAT     H117328   0.967   3.200   4.520
 5603WAT     H217329   1.095   3.278   4.545
 5604WAT      O17330   1.246   4.859   4.255
 5604WAT     H117331   1.200   4.934   4.218
 5604WAT     H217332   1.183   4.787   4.249
 5605WAT      O17333   0.289   4.690   4.173
 5605WAT     H117334   0.340   4.629   4.120
 5605WAT     H217335   0.354   4.740   4.222
 5606WAT      O17336   0.562   4.779   4.255
 5606WAT     H117337   0.591   4.754   4.168
 5606WAT     H217338   0.614   4.724   4.314
 5607WAT      O17339   0.684   3.153   4.313
 5607WAT     H117340   0.606   3.200   4.341
 5607WAT     H217341   0.655   3.062   4.302
 5608WAT      O17342   1.139   3.223   4.118
 5608WAT     H117343   1.184   3.218   4.033
 5608WAT     H217344   1.113   3.315   4.125
 5609WAT      O17345   1.326   3.186   3.919
 5609WAT     H117346   1.320   3.092   3.904
 5609WAT     H217347   1.404   3.197   3.973
 5610WAT      O17348   0.473   3.395   3.864
 5610WAT     H117349   0.392   3.357   3.830
 5610WAT     H217350   0.523   3.319   3.895
 5611WAT      O17351   0.923   3.061   3.988
 5611WAT     H117352   0.983   3.118   4.036
 5611WAT     H217353   0.849   3.118   3.966
 5612WAT      O17354   1.237   3.101   3.516
 5612WAT     H117355   1.257   3.191   3.542
 5612WAT     H217356   1.159   3.078   3.565
 5613WAT      O17357   0.275   3.210   3.725
 5613WAT     H117358   0.212   3.140   3.741
 5613WAT     H217359   0.221   3.286   3.703
 5614WAT      O17360   0.569   4.871   4.992
 5614WAT     H117361   0.662   4.848   4.996
 5614WAT     H217362   0.568   4.954   4.944
 5615WAT      O17363   1.393   4.825   3.692
 5615WAT     H117364   1.410   4.757   3.627
 5615WAT     H217365   1.323   4.878   3.652
 5616WAT      O17366   0.288   3.138   4.968
 5616WAT     H117367   0.260   3.188   4.892
 5616WAT     H217368   0.326   3.058   4.932
 5617WAT      O17369   0.177   4.864   3.447
 5617WAT     H117370   0.250   4.836   3.392
 5617WAT     H217371   0.203   4.841   3.536
 5618WAT      O17372   0.948   3.079   5.026
 5618WAT     H117373   0.937   3.111   5.116
 5618WAT     H217374   1.030   3.119   4.996
 5619WAT      O17375   1.226   4.794   4.974
 5619WAT     H117376   1.305   4.744   4.954
 5619WAT     H217377   1.255   4.862   5.035
 5620WAT      O17378   0.839   3.881   2.062
 5620WAT     H117379   0.831   3.790   2.035
 5620WAT     H217380   0.797   3.931   1.992
 5621WAT      O17381   0.652   4.059   2.251
 5621WAT     H117382   0.574   4.011   2.280
 5621WAT     H217383   0.717   3.991   2.233
 5622WAT      O17384   1.054   4.500   2.129
 5622WAT     H117385   1.008   4.422   2.161
 5622WAT     H217386   1.135   4.502   2.179
 5623WAT      O17387   0.676   4.728   2.091
 5623WAT     H117388   0.615   4.774   2.034
 5623WAT     H217389   0.762   4.744   2.050
 5624WAT      O17390   0.596   4.326   2.251
 5624WAT     H117391   0.589   4.232   2.235
 5624WAT     H217392   0.672   4.335   2.308
 5625WAT      O17393   0.699   3.607   2.274
 5625WAT     H117394   0.737   3.520   2.263
 5625WAT     H217395   0.689   3.641   2.185
 5626WAT      O17396   1.077   3.357   1.967
 5626WAT     H117397   1.159   3.308   1.971
 5626WAT     H217398   1.080   3.416   2.043
 5627WAT      O17399   0.296   3.741   2.253
 5627WAT     H117400   0.347   3.791   2.317
 5627WAT     H217401   0.349   3.664   2.236
 5628WAT      O17402   1.506   3.558   2.624
 5628WAT     H117403   1.436   3.597   2.572
 5628WAT     H217404   1.533   3.628   2.684
 5629WAT      O17405   0.763   4.216   1.830
 5629WAT     H117406   0.701   4.263   1.774
 5629WAT     H217407   0.814   4.286   1.872
 5630WAT      O17408   0.249   4.169   2.498
 5630WAT     H117409   0.216   4.232   2.562
 5630WAT     H217410   0.267   4.222   2.420
 5631WAT      O17411   1.101   3.551   2.245
 5631WAT     H117412   1.030   3.580   2.303
 5631WAT     H217413   1.137   3.632   2.208
 5632WAT      O17414   1.262   4.512   2.471
 5632WAT     H117415   1.194   4.579   2.470
 5632WAT     H217416   1.316   4.532   2.394
 5633WAT      O17417   1.408   3.495   2.284
 5633WAT     H117418   1.313   3.499   2.297
 5633WAT     H217419   1.440   3.577   2.322
 5634WAT      O17420   0.461   3.125   2.113
 5634WAT     H117421   0.492   3.070   2.042
 5634WAT     H217422   0.368   3.139   2.095
 5635WAT      O17423   1.016   4.697   2.342
 5635WAT     H117424   1.017   4.657   2.255
 5635WAT     H217425   0.961   4.774   2.332
 5636WAT      O17426   1.145   4.369   1.851
 5636WAT     H117427   1.134   4.275   1.864
 5636WAT     H217428   1.145   4.405   1.940
 5637WAT      O17429   0.956   4.187   2.475
 5637WAT     H117430   0.998   4.166   2.392
 5637WAT     H217431   1.028   4.213   2.532
 5638WAT      O17432   0.700   3.932   1.787
 5638WAT     H117433   0.607   3.925   1.810
 5638WAT     H217434   0.715   4.026   1.775
 5639WAT      O17435   0.698   3.559   1.486
 5639WAT     H117436   0.604   3.575   1.495
 5639WAT     H217437   0.730   3.631   1.432
 5640WAT      O17438   1.350   4.027   2.484
 5640WAT     H117439   1.268   4.034   2.437
 5640WAT     H217440   1.410   4.086   2.437
 5641WAT      O17441   1.103   4.088   1.837
 5641WAT     H117442   1.041   4.054   1.772
 5641WAT     H217443   1.101   4.024   1.908
 5642WAT      O17444   1.047   3.706   2.579
 5642WAT     H117445   1.006   3.788   2.604
 5642WAT     H217446   0.974   3.647   2.560
 5643WAT      O17447   0.260   3.984   2.065
 5643WAT     H117448   0.220   3.913   2.015
 5643WAT     H217449   0.269   3.950   2.154
 5644WAT      O17450   0.307   4.353   2.281
 5644WAT     H117451   0.277   4.292   2.213
 5644WAT     H217452   0.402   4.357   2.270
 5645WAT      O17453   1.116   4.710   2.648
 5645WAT     H117454   1.068   4.791   2.628
 5645WAT     H217455   1.048   4.645   2.663
 5646WAT      O17456   0.920   4.012   1.538
 5646WAT     H117457   0.964   3.928   1.523
 5646WAT     H217458   0.992   4.075   1.546
 5647WAT      O17459   0.731   4.506   1.935
 5647WAT     H117460   0.775   4.580   1.893
 5647WAT     H217461   0.725   4.530   2.027
 5648WAT      O17462   0.279   4.608   3.025
 5648WAT     H117463   0.276   4.649   2.938
 5648WAT     H217464   0.262   4.515   3.009
 5649WAT      O17465   1.278   3.137   1.369
 5649WAT     H117466   1.247   3.146   1.459
 5649WAT     H217467   1.355   3.195   1.364
 5650WAT      O17468   1.474   4.686   3.154
 5650WAT     H117469   1.521   4.734   3.222
 5650WAT     H217470   1.536   4.680   3.082
 5651WAT      O17471   1.414   4.406   2.870
 5651WAT     H117472   1.427   4.382   2.779
 5651WAT     H217473   1.418   4.322   2.918
 5652WAT      O17474   0.800   4.776   2.727
 5652WAT     H117475   0.852   4.767   2.808
 5652WAT     H217476   0.716   4.810   2.757
 5653WAT      O17477   0.998   4.804   1.670
 5653WAT     H117478   0.982   4.775   1.760
 5653WAT     H217479   0.981   4.727   1.617
 5654WAT      O17480   0.246   4.782   1.848
 5654WAT     H117481   0.228   4.691   1.827
 5654WAT     H217482   0.160   4.818   1.872
 5655WAT      O17483   0.968   4.555   1.526
 5655WAT     H117484   0.899   4.555   1.460
 5655WAT     H217485   1.042   4.513   1.483
 5656WAT      O17486   0.925   4.718   1.934
 5656WAT     H117487   0.970   4.640   1.965
 5656WAT     H217488   0.959   4.789   1.988
 5657WAT      O17489   1.399   3.611   2.967
 5657WAT     H117490   1.338   3.662   2.914
 5657WAT     H217491   1.367   3.521   2.961
 5658WAT      O17492   0.606   3.495   2.714
 5658WAT     H117493   0.559   3.516   2.795
 5658WAT     H217494   0.565   3.413   2.683
 5659WAT      O17495   1.106   3.617   2.827
 5659WAT     H117496   1.021   3.587   2.859
 5659WAT     H217497   1.090   3.641   2.735
 5660WAT      O17498   0.815   3.767   3.037
 5660WAT     H117499   0.848   3.684   3.003
 5660WAT     H217500   0.894   3.819   3.051
 5661WAT      O17501   0.488   3.170   1.641
 5661WAT     H117502   0.426   3.170   1.714
 5661WAT     H217503   0.480   3.084   1.602
 5662WAT      O17504   0.381   3.263   2.339
 5662WAT     H117505   0.410   3.353   2.331
 5662WAT     H217506   0.436   3.214   2.278
 5663WAT      O17507   0.879   3.721   1.786
 5663WAT     H117508   0.819   3.793   1.768
 5663WAT     H217509   0.934   3.715   1.708
 5664WAT      O17510   0.400   3.810   2.993
 5664WAT     H117511   0.390   3.716   2.978
 5664WAT     H217512   0.484   3.832   2.953
 5665WAT      O17513   0.740   3.585   1.989
 5665WAT     H117514   0.779   3.616   1.908
 5665WAT     H217515   0.776   3.497   2.000
 5666WAT      O17516   0.571   3.460   3.115
 5666WAT     H117517   0.502   3.441   3.178
 5666WAT     H217518   0.645   3.488   3.168
 5667WAT      O17519   0.798   3.844   2.399
 5667WAT     H117520   0.725   3.895   2.433
 5667WAT     H217521   0.758   3.762   2.368
 5668WAT      O17522   0.442   3.511   2.239
 5668WAT     H117523   0.442   3.467   2.154
 5668WAT     H217524   0.531   3.544   2.250
 5669WAT      O17525   0.448   3.611   1.538
 5669WAT     H117526   0.460   3.607   1.633
 5669WAT     H217527   0.410   3.698   1.523
 5670WAT      O17528   0.844   3.389   2.340
 5670WAT     H117529   0.846   3.434   2.424
 5670WAT     H217530   0.820   3.299   2.361
 5671WAT      O17531   0.349   3.842   1.478
 5671WAT     H117532   0.293   3.798   1.415
 5671WAT     H217533   0.420   3.878   1.425
 5672WAT      O17534   1.187   3.130   2.924
 5672WAT     H117535   1.220   3.057   2.976
 5672WAT     H217536   1.191   3.099   2.833
 5673WAT      O17537   0.472   3.917   2.414
 5673WAT     H117538   0.509   3.870   2.488
 5673WAT     H217539   0.453   4.005   2.448
 5674WAT      O17540   0.251   3.821   2.646
 5674WAT     H117541   0.221   3.909   2.668
 5674WAT     H217542   0.347   3.827   2.649
 5675WAT      O17543   1.180   4.142   2.284
 5675WAT     H117544   1.252   4.191   2.245
 5675WAT     H217545   1.160   4.074   2.220
 5676WAT      O17546   0.726   3.281   1.699
 5676WAT     H117547   0.645   3.231   1.691
 5676WAT     H217548   0.706   3.365   1.657
 5677WAT      O17549   0.718   4.149   2.873
 5677WAT     H117550   0.711   4.057   2.848
 5677WAT     H217551   0.655   4.159   2.945
 5678WAT      O17552   0.997   3.718   1.528
 5678WAT     H117553   1.086   3.749   1.511
 5678WAT     H217554   0.994   3.631   1.489
 5679WAT      O17555   0.597   4.336   1.596
 5679WAT     H117556   0.631   4.410   1.547
 5679WAT     H217557   0.514   4.367   1.633
 5680WAT      O17558   0.177   3.951   3.049
 5680WAT     H117559   0.147   3.966   2.959
 5680WAT     H217560   0.254   3.895   3.039
 5681WAT      O17561   0.711   4.431   2.848
 5681WAT     H117562   0.713   4.338   2.826
 5681WAT     H217563   0.640   4.440   2.912
 5682WAT      O17564   1.224   3.849   1.475
 5682WAT     H117565   1.216   3.893   1.390
 5682WAT     H217566   1.296   3.895   1.518
 5683WAT      O17567   1.332   4.095   2.783
 5683WAT     H117568   1.260   4.154   2.763
 5683WAT     H217569   1.385   4.094   2.703
 5684WAT      O17570   1.327   4.535   1.748
 5684WAT     H117571   1.263   4.469   1.775
 5684WAT     H217572   1.289   4.575   1.670
 5685WAT      O17573   0.885   4.268   2.133
 5685WAT     H117574   0.920   4.208   2.067
 5685WAT     H217575   0.797   4.235   2.150
 5686WAT      O17576   0.494   4.344   1.873
 5686WAT     H117577   0.563   4.398   1.912
 5686WAT     H217578   0.415   4.398   1.877
 5687WAT      O17579   0.424   4.044   1.835
 5687WAT     H117580   0.470   4.125   1.857
 5687WAT     H217581   0.389   4.012   1.918
 5688WAT      O17582   0.654   4.595   2.558
 5688WAT     H117583   0.719   4.616   2.625
 5688WAT     H217584   0.691   4.519   2.512
 5689WAT      O17585   0.782   4.396   2.429
 5689WAT     H117586   0.846   4.325   2.441
 5689WAT     H217587   0.834   4.473   2.411
 5690WAT      O17588   1.166   4.424   1.402
 5690WAT     H117589   1.144   4.352   1.461
 5690WAT     H217590   1.127   4.399   1.318
 5691WAT      O17591   0.959   4.475   2.750
 5691WAT     H117592   0.993   4.534   2.818
 5691WAT     H217593   0.867   4.462   2.773
 5692WAT      O17594   1.124   4.216   1.568
 5692WAT     H117595   1.096   4.262   1.647
 5692WAT     H217596   1.204   4.170   1.595
 5693WAT      O17597   0.542   4.480   3.067
 5693WAT     H117598   0.510   4.408   3.121
 5693WAT     H217599   0.475   4.548   3.074
 5694WAT      O17600   0.346   4.565   1.561
 5694WAT     H117601   0.345   4.638   1.499
 5694WAT     H217602   0.254   4.540   1.570
 5695WAT      O17603   0.864   3.504   2.603
 5695WAT     H117604   0.900   3.422   2.636
 5695WAT     H217605   0.778   3.510   2.645
 5696WAT      O17606   1.200   3.399   1.684
 5696WAT     H117607   1.137   3.410   1.612
 5696WAT     H217608   1.151   3.421   1.763
 5697WAT      O17609   0.645   4.571   1.427
 5697WAT     H117610   0.655   4.551   1.334
 5697WAT     H217611   0.555   4.546   1.448
 5698WAT      O17612   0.397   3.627   1.825
 5698WAT     H117613   0.326   3.674   1.870
 5698WAT     H217614   0.425   3.561   1.889
 5699WAT      O17615   0.560   3.769   2.625
 5699WAT     H117616   0.609   3.816   2.692
 5699WAT     H217617   0.574   3.677   2.646
 5700WAT      O17618   0.800   3.300   1.969
 5700WAT     H117619   0.788   3.301   1.874
 5700WAT     H217620   0.895   3.304   1.981
 5701WAT      O17621   0.509   4.823   1.897
 5701WAT     H117622   0.534   4.819   1.804
 5701WAT     H217623   0.414   4.810   1.896
 5702WAT      O17624   0.217   3.458   1.563
 5702WAT     H117625   0.302   3.502   1.556
 5702WAT     H217626   0.181   3.489   1.646
 5703WAT      O17627   1.280   3.391   2.710
 5703WAT     H117628   1.230   3.465   2.744
 5703WAT     H217629   1.362   3.430   2.678
 5704WAT      O17630   1.109   3.915   2.054
 5704WAT     H117631   1.015   3.917   2.072
 5704WAT     H217632   1.141   3.836   2.099
 5705WAT      O17633   1.310   4.632   2.222
 5705WAT     H117634   1.322   4.714   2.269
 5705WAT     H217635   1.396   4.611   2.187
 5706WAT      O17636   0.368   4.759   1.371
 5706WAT     H117637   0.447   4.788   1.326
 5706WAT     H217638   0.316   4.716   1.303
 5707WAT      O17639   0.841   4.371   3.103
 5707WAT     H117640   0.781   4.373   3.029
 5707WAT     H217641   0.811   4.298   3.156
 5708WAT      O17642   0.984   4.744   2.964
 5708WAT     H117643   1.079   4.735   2.959
 5708WAT     H217644   0.969   4.810   3.031
 5709WAT      O17645   1.273   4.681   1.514
 5709WAT     H117646   1.245   4.640   1.432
 5709WAT     H217647   1.253   4.774   1.502
 5710WAT      O17648   0.420   4.281   1.358
 5710WAT     H117649   0.409   4.219   1.430
 5710WAT     H217650   0.403   4.228   1.279
 5711WAT      O17651   0.435   4.149   2.956
 5711WAT     H117652   0.358   4.206   2.947
 5711WAT     H217653   0.453   4.120   2.866
 5712WAT      O17654   0.744   4.187   1.418
 5712WAT     H117655   0.689   4.232   1.483
 5712WAT     H217656   0.806   4.136   1.470
 5713WAT      O17657   1.149   4.322   3.011
 5713WAT     H117658   1.223   4.356   2.961
 5713WAT     H217659   1.073   4.339   2.956
 5714WAT      O17660   0.310   4.083   1.608
 5714WAT     H117661   0.353   4.066   1.692
 5714WAT     H217662   0.323   4.002   1.558
 5715WAT      O17663   0.562   3.985   1.333
 5715WAT     H117664   0.614   3.914   1.296
 5715WAT     H217665   0.626   4.049   1.363
 5716WAT      O17666   1.017   4.128   2.865
 5716WAT     H117667   1.058   4.143   2.950
 5716WAT     H217668   0.923   4.140   2.881
 5717WAT      O17669   1.064   3.862   3.065
 5717WAT     H117670   1.122   3.786   3.056
 5717WAT     H217671   1.081   3.915   2.988
 5718WAT      O17672   0.452   3.233   2.600
 5718WAT     H117673   0.407   3.235   2.515
 5718WAT     H217674   0.389   3.193   2.659
 5719WAT      O17675   0.493   4.123   2.662
 5719WAT     H117676   0.535   4.207   2.645
 5719WAT     H217677   0.401   4.136   2.639
 5720WAT      O17678   0.726   3.896   2.800
 5720WAT     H117679   0.738   3.836   2.874
 5720WAT     H217680   0.812   3.900   2.758
 5721WAT      O17681   0.960   3.951   2.658
 5721WAT     H117682   0.908   4.004   2.597
 5721WAT     H217683   0.995   4.015   2.721
 5722WAT      O17684   0.200   3.690   1.302
 5722WAT     H117685   0.180   3.604   1.338
 5722WAT     H217686   0.183   3.682   1.209
 5723WAT      O17687   0.278   4.753   2.773
 5723WAT     H117688   0.224   4.826   2.741
 5723WAT     H217689   0.303   4.706   2.694
 5724WAT      O17690   0.403   3.550   2.926
 5724WAT     H117691   0.462   3.519   2.995
 5724WAT     H217692   0.321   3.503   2.942
 5725WAT      O17693   0.885   3.512   2.949
 5725WAT     H117694   0.816   3.446   2.943
 5725WAT     H217695   0.957   3.467   2.994
 5726WAT      O17696   0.948   3.171   1.555
 5726WAT     H117697   0.976   3.087   1.591
 5726WAT     H217698   0.871   3.195   1.607
 5727WAT      O17699   0.563   4.877   2.799
 5727WAT     H117700   0.556   4.967   2.830
 5727WAT     H217701   0.473   4.845   2.796
 5728WAT      O17702   0.402   3.295   1.400
 5728WAT     H117703   0.367   3.227   1.342
 5728WAT     H217704   0.422   3.248   1.481
 5729WAT      O17705   0.618   4.793   1.562
 5729WAT     H117706   0.708   4.827   1.564
 5729WAT     H217707   0.621   4.721   1.499
 5730WAT      O17708   1.316   4.646   2.832
 5730WAT     H117709   1.256   4.652   2.758
 5730WAT     H217710   1.329   4.552   2.845
 5731WAT      O17711   1.440   4.421   1.366
 5731WAT     H117712   1.357   4.427   1.413
 5731WAT     H217713   1.458   4.510   1.336
 5732WAT      O17714   1.386   4.095   1.616
 5732WAT     H117715   1.462   4.152   1.627
 5732WAT     H217716   1.387   4.038   1.693
 5733WAT      O17717   1.486   4.181   2.101
 5733WAT     H117718   1.523   4.102   2.060
 5733WAT     H217719   1.550   4.249   2.083
 5734WAT      O17720   1.185   4.319   2.642
 5734WAT     H117721   1.103   4.362   2.668
 5734WAT     H217722   1.225   4.380   2.581
 5735WAT      O17723   1.391   4.124   1.332
 5735WAT     H117724   1.418   4.215   1.319
 5735WAT     H217725   1.372   4.118   1.426
 5736WAT      O17726   1.031   3.427   1.461
 5736WAT     H117727   1.073   3.408   1.377
 5736WAT     H217728   1.000   3.342   1.493
 5737WAT      O17729   1.381   3.918   1.831
 5737WAT     H117730   1.343   3.841   1.788
 5737WAT     H217731   1.308   3.956   1.880
 5738WAT      O17732   1.320   3.833   2.795
 5738WAT     H117733   1.296   3.810   2.705
 5738WAT     H217734   1.346   3.925   2.790
 5739WAT      O17735   1.163   3.355   3.072
 5739WAT     H117736   1.251   3.356   3.111
 5739WAT     H217737   1.165   3.282   3.011
 5740WAT      O17738   1.308   3.741   2.161
 5740WAT     H117739   1.360   3.691   2.098
 5740WAT     H217740   1.367   3.754   2.236
 5741WAT      O17741   1.326   3.749   2.514
 5741WAT     H117742   1.231   3.746   2.525
 5741WAT     H217743   1.344   3.840   2.490
 5742WAT      O17744   1.257   3.666   1.755
 5742WAT     H117745   1.307   3.643   1.834
 5742WAT     H217746   1.237   3.583   1.714
 5743WAT      O17747   1.400   3.530   2.009
 5743WAT     H117748   1.389   3.515   2.102
 5743WAT     H217749   1.476   3.477   1.984
 5744WAT      O17750   1.235   3.124   2.654
 5744WAT     H117751   1.298   3.185   2.691
 5744WAT     H217752   1.249   3.128   2.560
 5745WAT      O17753   1.489   3.313   1.333
 5745WAT     H117754   1.581   3.300   1.312
 5745WAT     H217755   1.487   3.321   1.428
 5746WAT      O17756   1.496   3.390   1.595
 5746WAT     H117757   1.417   3.384   1.648
 5746WAT     H217758   1.517   3.484   1.594
 5747WAT      O17759   1.190   4.794   1.995
 5747WAT     H117760   1.250   4.762   1.927
 5747WAT     H217761   1.216   4.747   2.074
 5748WAT      O17762   0.351   4.593   2.570
 5748WAT     H117763   0.327   4.620   2.481
 5748WAT     H217764   0.445   4.610   2.575
 5749WAT      O17765   0.572   3.239   2.945
 5749WAT     H117766   0.566   3.298   3.020
 5749WAT     H217767   0.666   3.228   2.931
 5750WAT      O17768   0.835   3.205   2.909
 5750WAT     H117769   0.897   3.237   2.843
 5750WAT     H217770   0.890   3.156   2.971
 5751WAT      O17771   1.477   4.795   2.650
 5751WAT     H117772   1.428   4.835   2.578
 5751WAT     H217773   1.416   4.732   2.689
 5752WAT      O17774   0.910   3.061   2.542
 5752WAT     H117775   0.822   3.095   2.522
 5752WAT     H217776   0.899   3.014   2.624
 5753WAT      O17777   1.000   3.282   2.680
 5753WAT     H117778   0.967   3.200   2.642
 5753WAT     H217779   1.095   3.278   2.668
 5754WAT      O17780   1.246   4.859   2.378
 5754WAT     H117781   1.200   4.934   2.340
 5754WAT     H217782   1.183   4.787   2.372
 5755WAT      O17783   0.289   4.690   2.295
 5755WAT     H117784   0.340   4.629   2.243
 5755WAT     H217785   0.354   4.740   2.344
 5756WAT      O17786   0.562   4.779   2.378
 5756WAT     H117787   0.591   4.754   2.290
 5756WAT     H217788   0.614   4.724   2.437
 5757WAT      O17789   0.684   3.153   2.436
 5757WAT     H117790   0.606   3.200   2.464
 5757WAT     H217791   0.655   3.062   2.425
 5758WAT      O17792   1.139   3.223   2.240
 5758WAT     H117793   1.184   3.218   2.155
 5758WAT     H217794   1.113   3.315   2.247
 5759WAT      O17795   1.326   3.186   2.041
 5759WAT     H117796   1.320   3.092   2.027
 5759WAT     H217797   1.404   3.197   2.096
 5760WAT      O17798   0.473   3.395   1.987
 5760WAT     H117799   0.392   3.357   1.953
 5760WAT     H217800   0.523   3.319   2.017
 5761WAT      O17801   0.923   3.061   2.111
 5761WAT     H117802   0.983   3.118   2.158
 5761WAT     H217803   0.849   3.118   2.088
 5762WAT      O17804   1.237   3.101   1.638
 5762WAT     H117805   1.257   3.191   1.665
 5762WAT     H217806   1.159   3.078   1.687
 5763WAT      O17807   0.275   3.210   1.847
 5763WAT     H117808   0.212   3.140   1.864
 5763WAT     H217809   0.221   3.286   1.826
 5764WAT      O17810   0.569   4.871   3.114
 5764WAT     H117811   0.662   4.848   3.119
 5764WAT     H217812   0.568   4.954   3.066
 5765WAT      O17813   1.393   4.825   1.814
 5765WAT     H117814   1.410   4.757   1.750
 5765WAT     H217815   1.323   4.878   1.775
 5766WAT      O17816   0.288   3.138   3.091
 5766WAT     H117817   0.260   3.188   3.014
 5766WAT     H217818   0.326   3.058   3.054
 5767WAT      O17819   0.177   4.864   1.570
 5767WAT     H117820   0.250   4.836   1.515
 5767WAT     H217821   0.203   4.841   1.659
 5768WAT      O17822   0.948   3.079   3.149
 5768WAT     H117823   0.937   3.111   3.238
 5768WAT     H217824   1.030   3.119   3.119
 5769WAT      O17825   1.226   4.794   3.097
 5769WAT     H117826   1.305   4.744   3.076
 5769WAT     H217827   1.255   4.862   3.158
 5770WAT      O17828   0.652   4.059   0.373
 5770WAT     H117829   0.574   4.011   0.402
 5770WAT     H217830   0.717   3.991   0.356
 5771WAT      O17831   1.054   4.500   0.251
 5771WAT     H117832   1.008   4.422   0.284
 5771WAT     H217833   1.135   4.502   0.302
 5772WAT      O17834   0.596   4.326   0.374
 5772WAT     H117835   0.589   4.232   0.358
 5772WAT     H217836   0.672   4.335   0.431
 5773WAT      O17837   0.699   3.607   0.397
 5773WAT     H117838   0.737   3.520   0.385
 5773WAT     H217839   0.689   3.641   0.307
 5774WAT      O17840   0.296   3.741   0.376
 5774WAT     H117841   0.347   3.791   0.440
 5774WAT     H217842   0.349   3.664   0.358
 5775WAT      O17843   1.506   3.558   0.746
 5775WAT     H117844   1.436   3.597   0.694
 5775WAT     H217845   1.533   3.628   0.806
 5776WAT      O17846   0.249   4.169   0.620
 5776WAT     H117847   0.216   4.232   0.685
 5776WAT     H217848   0.267   4.222   0.542
 5777WAT      O17849   1.101   3.551   0.367
 5777WAT     H117850   1.030   3.580   0.425
 5777WAT     H217851   1.137   3.632   0.331
 5778WAT      O17852   1.262   4.512   0.593
 5778WAT     H117853   1.194   4.579   0.593
 5778WAT     H217854   1.316   4.532   0.517
 5779WAT      O17855   1.408   3.495   0.406
 5779WAT     H117856   1.313   3.499   0.419
 5779WAT     H217857   1.440   3.577   0.445
 5780WAT      O17858   1.016   4.697   0.465
 5780WAT     H117859   1.017   4.657   0.378
 5780WAT     H217860   0.961   4.774   0.454
 5781WAT      O17861   0.956   4.187   0.598
 5781WAT     H117862   0.998   4.166   0.514
 5781WAT     H217863   1.028   4.213   0.655
 5782WAT      O17864   1.350   4.027   0.607
 5782WAT     H117865   1.268   4.034   0.559
 5782WAT     H217866   1.410   4.086   0.560
 5783WAT      O17867   1.047   3.706   0.701
 5783WAT     H117868   1.006   3.788   0.727
 5783WAT     H217869   0.974   3.647   0.682
 5784WAT      O17870   0.307   4.353   0.404
 5784WAT     H117871   0.277   4.292   0.336
 5784WAT     H217872   0.402   4.357   0.393
 5785WAT      O17873   1.116   4.710   0.770
 5785WAT     H117874   1.068   4.791   0.751
 5785WAT     H217875   1.048   4.645   0.785
 5786WAT      O17876   0.279   4.608   1.147
 5786WAT     H117877   0.276   4.649   1.061
 5786WAT     H217878   0.262   4.515   1.131
 5787WAT      O17879   1.474   4.686   1.277
 5787WAT     H117880   1.521   4.734   1.345
 5787WAT     H217881   1.536   4.680   1.205
 5788WAT      O17882   1.414   4.406   0.993
 5788WAT     H117883   1.427   4.382   0.901
 5788WAT     H217884   1.418   4.322   1.040
 5789WAT      O17885   0.800   4.776   0.850
 5789WAT     H117886   0.852   4.767   0.930
 5789WAT     H217887   0.716   4.810   0.879
 5790WAT      O17888   1.399   3.611   1.090
 5790WAT     H117889   1.338   3.662   1.037
 5790WAT     H217890   1.367   3.521   1.084
 5791WAT      O17891   0.606   3.495   0.836
 5791WAT     H117892   0.559   3.516   0.917
 5791WAT     H217893   0.565   3.413   0.806
 5792WAT      O17894   1.106   3.617   0.949
 5792WAT     H117895   1.021   3.587   0.981
 5792WAT     H217896   1.090   3.641   0.858
 5793WAT      O17897   0.815   3.767   1.159
 5793WAT     H117898   0.848   3.684   1.125
 5793WAT     H217899   0.894   3.819   1.174
 5794WAT      O17900   0.381   3.263   0.462
 5794WAT     H117901   0.410   3.353   0.454
 5794WAT     H217902   0.436   3.214   0.400
 5795WAT      O17903   0.400   3.810   1.115
 5795WAT     H117904   0.390   3.716   1.100
 5795WAT     H217905   0.484   3.832   1.076
 5796WAT      O17906   0.571   3.460   1.238
 5796WAT     H117907   0.502   3.441   1.301
 5796WAT     H217908   0.645   3.488   1.291
 5797WAT      O17909   0.798   3.844   0.521
 5797WAT     H117910   0.725   3.895   0.556
 5797WAT     H217911   0.758   3.762   0.491
 5798WAT      O17912   0.442   3.511   0.362
 5798WAT     H117913   0.442   3.467   0.277
 5798WAT     H217914   0.531   3.544   0.372
 5799WAT      O17915   0.844   3.389   0.462
 5799WAT     H117916   0.846   3.434   0.547
 5799WAT     H217917   0.820   3.299   0.484
 5800WAT      O17918   1.187   3.130   1.046
 5800WAT     H117919   1.220   3.057   1.099
 5800WAT     H217920   1.191   3.099   0.956
 5801WAT      O17921   0.472   3.917   0.536
 5801WAT     H117922   0.509   3.870   0.611
 5801WAT     H217923   0.453   4.005   0.570
 5802WAT      O17924   0.251   3.821   0.768
 5802WAT     H117925   0.221   3.909   0.791
 5802WAT     H217926   0.347   3.827   0.772
 5803WAT      O17927   1.180   4.142   0.407
 5803WAT     H117928   1.252   4.191   0.368
 5803WAT     H217929   1.160   4.074   0.343
 5804WAT      O17930   0.718   4.149   0.996
 5804WAT     H117931   0.711   4.057   0.970
 5804WAT     H217932   0.655   4.159   1.067
 5805WAT      O17933   0.177   3.951   1.171
 5805WAT     H117934   0.147   3.966   1.081
 5805WAT     H217935   0.254   3.895   1.162
 5806WAT      O17936   0.711   4.431   0.971
 5806WAT     H117937   0.713   4.338   0.949
 5806WAT     H217938   0.640   4.440   1.035
 5807WAT      O17939   1.332   4.095   0.905
 5807WAT     H117940   1.260   4.154   0.886
 5807WAT     H217941   1.385   4.094   0.826
 5808WAT      O17942   0.885   4.268   0.255
 5808WAT     H117943   0.920   4.208   0.189
 5808WAT     H217944   0.797   4.235   0.272
 5809WAT      O17945   0.654   4.595   0.680
 5809WAT     H117946   0.719   4.616   0.748
 5809WAT     H217947   0.691   4.519   0.635
 5810WAT      O17948   0.782   4.396   0.552
 5810WAT     H117949   0.846   4.325   0.563
 5810WAT     H217950   0.834   4.473   0.534
 5811WAT      O17951   0.959   4.475   0.872
 5811WAT     H117952   0.993   4.534   0.940
 5811WAT     H217953   0.867   4.462   0.895
 5812WAT      O17954   0.542   4.480   1.189
 5812WAT     H117955   0.510   4.408   1.244
 5812WAT     H217956   0.475   4.548   1.197
 5813WAT      O17957   0.864   3.504   0.726
 5813WAT     H117958   0.900   3.422   0.758
 5813WAT     H217959   0.778   3.510   0.767
 5814WAT      O17960   0.560   3.769   0.748
 5814WAT     H117961   0.609   3.816   0.814
 5814WAT     H217962   0.574   3.677   0.769
 5815WAT      O17963   1.280   3.391   0.832
 5815WAT     H117964   1.230   3.465   0.866
 5815WAT     H217965   1.362   3.430   0.801
 5816WAT      O17966   1.109   3.915   0.177
 5816WAT     H117967   1.015   3.917   0.194
 5816WAT     H217968   1.141   3.836   0.221
 5817WAT      O17969   1.310   4.632   0.344
 5817WAT     H117970   1.322   4.714   0.392
 5817WAT     H217971   1.396   4.611   0.310
 5818WAT      O17972   0.841   4.371   1.225
 5818WAT     H117973   0.781   4.373   1.151
 5818WAT     H217974   0.811   4.298   1.279
 5819WAT      O17975   0.984   4.744   1.086
 5819WAT     H117976   1.079   4.735   1.081
 5819WAT     H217977   0.969   4.810   1.154
 5820WAT      O17978   0.435   4.149   1.078
 5820WAT     H117979   0.358   4.206   1.070
 5820WAT     H217980   0.453   4.120   0.989
 5821WAT      O17981   1.149   4.322   1.134
 5821WAT     H117982   1.223   4.356   1.084
 5821WAT     H217983   1.073   4.339   1.079
 5822WAT      O17984   1.017   4.128   0.987
 5822WAT     H117985   1.058   4.143   1.072
 5822WAT     H217986   0.923   4.140   1.004
 5823WAT      O17987   1.064   3.862   1.188
 5823WAT     H117988   1.122   3.786   1.179
 5823WAT     H217989   1.081   3.915   1.110
 5824WAT      O17990   0.452   3.233   0.722
 5824WAT     H117991   0.407   3.235   0.638
 5824WAT     H217992   0.389   3.193   0.782
 5825WAT      O17993   0.493   4.123   0.784
 5825WAT     H117994   0.535   4.207   0.767
 5825WAT     H217995   0.401   4.136   0.761
 5826WAT      O17996   0.726   3.896   0.923
 5826WAT     H117997   0.738   3.836   0.997
 5826WAT     H217998   0.812   3.900   0.881
 5827WAT      O17999   0.960   3.951   0.780
 5827WAT     H118000   0.908   4.004   0.720
 5827WAT     H218001   0.995   4.015   0.843
 5828WAT      O18002   0.278   4.753   0.896
 5828WAT     H118003   0.224   4.826   0.864
 5828WAT     H218004   0.303   4.706   0.817
 5829WAT      O18005   0.403   3.550   1.049
 5829WAT     H118006   0.462   3.519   1.117
 5829WAT     H218007   0.321   3.503   1.064
 5830WAT      O18008   0.885   3.512   1.072
 5830WAT     H118009   0.816   3.446   1.065
 5830WAT     H218010   0.957   3.467   1.116
 5831WAT      O18011   0.563   4.877   0.922
 5831WAT     H118012   0.556   4.967   0.953
 5831WAT     H218013   0.473   4.845   0.919
 5832WAT      O18014   1.316   4.646   0.955
 5832WAT     H118015   1.256   4.652   0.880
 5832WAT     H218016   1.329   4.552   0.968
 5833WAT      O18017   1.486   4.181   0.223
 5833WAT     H118018   1.523   4.102   0.183
 5833WAT     H218019   1.550   4.249   0.205
 5834WAT      O18020   1.185   4.319   0.765
 5834WAT     H118021   1.103   4.362   0.791
 5834WAT     H218022   1.225   4.380   0.703
 5835WAT      O18023   1.320   3.833   0.917
 5835WAT     H118024   1.296   3.810   0.827
 5835WAT     H218025   1.346   3.925   0.913
 5836WAT      O18026   1.163   3.355   1.195
 5836WAT     H118027   1.251   3.356   1.233
 5836WAT     H218028   1.165   3.282   1.134
 5837WAT      O18029   1.308   3.741   0.284
 5837WAT     H118030   1.360   3.691   0.221
 5837WAT     H218031   1.367   3.754   0.358
 5838WAT      O18032   1.326   3.749   0.636
 5838WAT     H118033   1.231   3.746   0.648
 5838WAT     H218034   1.344   3.840   0.613
 5839WAT      O18035   1.235   3.124   0.777
 5839WAT     H118036   1.298   3.185   0.814
 5839WAT     H218037   1.249   3.128   0.683
 5840WAT      O18038   0.351   4.593   0.692
 5840WAT     H118039   0.327   4.620   0.603
 5840WAT     H218040   0.445   4.610   0.698
 5841WAT      O18041   0.572   3.239   1.068
 5841WAT     H118042   0.566   3.298   1.143
 5841WAT     H218043   0.666   3.228   1.053
 5842WAT      O18044   0.835   3.205   1.032
 5842WAT     H118045   0.897   3.237   0.965
 5842WAT     H218046   0.890   3.156   1.094
 5843WAT      O18047   1.477   4.795   0.772
 5843WAT     H118048   1.428   4.835   0.701
 5843WAT     H218049   1.416   4.732   0.812
 5844WAT      O18050   0.910   3.061   0.664
 5844WAT     H118051   0.822   3.095   0.644
 5844WAT     H218052   0.899   3.014   0.747
 5845WAT      O18053   1.000   3.282   0.803
 5845WAT     H118054   0.967   3.200   0.765
 5845WAT     H218055   1.095   3.278   0.790
 5846WAT      O18056   1.246   4.859   0.500
 5846WAT     H118057   1.200   4.934   0.463
 5846WAT     H218058   1.183   4.787   0.494
 5847WAT      O18059   0.289   4.690   0.418
 5847WAT     H118060   0.340   4.629   0.365
 5847WAT     H218061   0.354   4.740   0.467
 5848WAT      O18062   0.562   4.779   0.500
 5848WAT     H118063   0.591   4.754   0.413
 5848WAT     H218064   0.614   4.724   0.559
 5849WAT      O18065   0.684   3.153   0.558
 5849WAT     H118066   0.606   3.200   0.586
 5849WAT     H218067   0.655   3.062   0.547
 5850WAT      O18068   1.139   3.223   0.363
 5850WAT     H118069   1.184   3.218   0.278
 5850WAT     H218070   1.113   3.315   0.370
 5851WAT      O18071   0.923   3.061   0.233
 5851WAT     H118072   0.983   3.118   0.281
 5851WAT     H218073   0.849   3.118   0.211
 5852WAT      O18074   0.569   4.871   1.237
 5852WAT     H118075   0.662   4.848   1.241
 5852WAT     H218076   0.568   4.954   1.189
 5853WAT      O18077   0.288   3.138   1.213
 5853WAT     H118078   0.260   3.188   1.137
 5853WAT     H218079   0.326   3.058   1.177
 5854WAT      O18080   0.948   3.079   1.271
 5854WAT     H118081   0.937   3.111   1.361
 5854WAT     H218082   1.030   3.119   1.242
 5855WAT      O18083   1.226   4.794   1.219
 5855WAT     H118084   1.305   4.744   1.199
 5855WAT     H218085   1.255   4.862   1.280
 5856WAT      O18086   0.839   2.004   5.817
 5856WAT     H118087   0.831   1.912   5.790
 5856WAT     H218088   0.797   2.053   5.747
 5857WAT      O18089   0.652   2.181   6.005
 5857WAT     H118090   0.574   2.133   6.034
 5857WAT     H218091   0.717   2.114   5.988
 5858WAT      O18092   1.054   2.622   5.883
 5858WAT     H118093   1.008   2.545   5.916
 5858WAT     H218094   1.135   2.625   5.934
 5859WAT      O18095   0.676   2.851   5.845
 5859WAT     H118096   0.615   2.896   5.788
 5859WAT     H218097   0.762   2.866   5.805
 5860WAT      O18098   0.596   2.449   6.006
 5860WAT     H118099   0.589   2.355   5.990
 5860WAT     H218100   0.672   2.458   6.063
 5861WAT      O18101   0.699   1.730   6.029
 5861WAT     H118102   0.737   1.642   6.018
 5861WAT     H218103   0.689   1.763   5.940
 5862WAT      O18104   1.077   1.479   5.722
 5862WAT     H118105   1.159   1.430   5.726
 5862WAT     H218106   1.080   1.538   5.797
 5863WAT      O18107   0.296   1.864   6.008
 5863WAT     H118108   0.347   1.914   6.072
 5863WAT     H218109   0.349   1.786   5.991
 5864WAT      O18110   0.763   2.339   5.585
 5864WAT     H118111   0.701   2.386   5.528
 5864WAT     H218112   0.814   2.408   5.626
 5865WAT      O18113   1.101   1.673   5.999
 5865WAT     H118114   1.030   1.702   6.057
 5865WAT     H218115   1.137   1.754   5.963
 5866WAT      O18116   1.408   1.618   6.038
 5866WAT     H118117   1.313   1.621   6.052
 5866WAT     H218118   1.440   1.699   6.077
 5867WAT      O18119   0.461   1.248   5.868
 5867WAT     H118120   0.492   1.192   5.796
 5867WAT     H218121   0.368   1.261   5.850
 5868WAT      O18122   1.016   2.819   6.097
 5868WAT     H118123   1.017   2.779   6.010
 5868WAT     H218124   0.961   2.897   6.087
 5869WAT      O18125   1.145   2.492   5.606
 5869WAT     H118126   1.134   2.397   5.618
 5869WAT     H218127   1.145   2.528   5.695
 5870WAT      O18128   0.700   2.054   5.542
 5870WAT     H118129   0.607   2.048   5.565
 5870WAT     H218130   0.715   2.148   5.530
 5871WAT      O18131   0.698   1.681   5.241
 5871WAT     H118132   0.604   1.698   5.250
 5871WAT     H218133   0.730   1.753   5.187
 5872WAT      O18134   1.103   2.210   5.592
 5872WAT     H118135   1.041   2.177   5.527
 5872WAT     H218136   1.101   2.146   5.663
 5873WAT      O18137   0.260   2.107   5.820
 5873WAT     H118138   0.220   2.036   5.770
 5873WAT     H218139   0.269   2.072   5.909
 5874WAT      O18140   0.307   2.476   6.036
 5874WAT     H118141   0.277   2.415   5.968
 5874WAT     H218142   0.402   2.479   6.025
 5875WAT      O18143   0.920   2.134   5.293
 5875WAT     H118144   0.964   2.051   5.278
 5875WAT     H218145   0.992   2.198   5.301
 5876WAT      O18146   0.731   2.628   5.690
 5876WAT     H118147   0.775   2.703   5.648
 5876WAT     H218148   0.725   2.653   5.782
 5877WAT      O18149   1.278   1.260   5.124
 5877WAT     H118150   1.247   1.269   5.214
 5877WAT     H218151   1.355   1.318   5.119
 5878WAT      O18152   0.998   2.927   5.425
 5878WAT     H118153   0.982   2.898   5.515
 5878WAT     H218154   0.981   2.849   5.372
 5879WAT      O18155   0.246   2.905   5.603
 5879WAT     H118156   0.228   2.813   5.582
 5879WAT     H218157   0.160   2.941   5.627
 5880WAT      O18158   0.968   2.678   5.281
 5880WAT     H118159   0.899   2.678   5.215
 5880WAT     H218160   1.042   2.635   5.238
 5881WAT      O18161   0.925   2.840   5.689
 5881WAT     H118162   0.970   2.762   5.720
 5881WAT     H218163   0.959   2.912   5.743
 5882WAT      O18164   0.488   1.293   5.396
 5882WAT     H118165   0.426   1.292   5.469
 5882WAT     H218166   0.480   1.206   5.357
 5883WAT      O18167   0.381   1.385   6.094
 5883WAT     H118168   0.410   1.476   6.086
 5883WAT     H218169   0.436   1.336   6.033
 5884WAT      O18170   0.879   1.844   5.541
 5884WAT     H118171   0.819   1.916   5.522
 5884WAT     H218172   0.934   1.837   5.463
 5885WAT      O18173   0.740   1.707   5.744
 5885WAT     H118174   0.779   1.739   5.663
 5885WAT     H218175   0.776   1.619   5.755
 5886WAT      O18176   0.442   1.634   5.994
 5886WAT     H118177   0.442   1.590   5.909
 5886WAT     H218178   0.531   1.666   6.005
 5887WAT      O18179   0.448   1.734   5.293
 5887WAT     H118180   0.460   1.730   5.388
 5887WAT     H218181   0.410   1.820   5.277
 5888WAT      O18182   0.349   1.965   5.233
 5888WAT     H118183   0.293   1.920   5.170
 5888WAT     H218184   0.420   2.001   5.179
 5889WAT      O18185   1.180   2.264   6.039
 5889WAT     H118186   1.252   2.314   6.000
 5889WAT     H218187   1.160   2.196   5.975
 5890WAT      O18188   0.726   1.404   5.454
 5890WAT     H118189   0.645   1.354   5.446
 5890WAT     H218190   0.706   1.488   5.412
 5891WAT      O18191   0.997   1.841   5.283
 5891WAT     H118192   1.086   1.872   5.266
 5891WAT     H218193   0.994   1.754   5.244
 5892WAT      O18194   0.597   2.458   5.351
 5892WAT     H118195   0.631   2.533   5.302
 5892WAT     H218196   0.514   2.489   5.387
 5893WAT      O18197   1.224   1.972   5.230
 5893WAT     H118198   1.216   2.015   5.145
 5893WAT     H218199   1.296   2.018   5.273
 5894WAT      O18200   1.327   2.657   5.503
 5894WAT     H118201   1.263   2.592   5.530
 5894WAT     H218202   1.289   2.698   5.425
 5895WAT      O18203   0.885   2.390   5.888
 5895WAT     H118204   0.920   2.331   5.822
 5895WAT     H218205   0.797   2.358   5.905
 5896WAT      O18206   0.494   2.466   5.628
 5896WAT     H118207   0.563   2.521   5.666
 5896WAT     H218208   0.415   2.521   5.632
 5897WAT      O18209   0.424   2.167   5.590
 5897WAT     H118210   0.470   2.248   5.612
 5897WAT     H218211   0.389   2.135   5.673
 5898WAT      O18212   1.166   2.547   5.157
 5898WAT     H118213   1.144   2.475   5.216
 5898WAT     H218214   1.127   2.522   5.073
 5899WAT      O18215   1.124   2.338   5.323
 5899WAT     H118216   1.096   2.384   5.402
 5899WAT     H218217   1.204   2.292   5.350
 5900WAT      O18218   0.346   2.688   5.316
 5900WAT     H118219   0.345   2.761   5.254
 5900WAT     H218220   0.254   2.663   5.325
 5901WAT      O18221   1.200   1.522   5.439
 5901WAT     H118222   1.137   1.532   5.367
 5901WAT     H218223   1.151   1.544   5.518
 5902WAT      O18224   0.645   2.694   5.182
 5902WAT     H118225   0.655   2.673   5.089
 5902WAT     H218226   0.555   2.668   5.203
 5903WAT      O18227   0.397   1.750   5.580
 5903WAT     H118228   0.326   1.796   5.624
 5903WAT     H218229   0.425   1.684   5.644
 5904WAT      O18230   0.800   1.422   5.724
 5904WAT     H118231   0.788   1.424   5.629
 5904WAT     H218232   0.895   1.427   5.736
 5905WAT      O18233   0.509   2.946   5.652
 5905WAT     H118234   0.534   2.942   5.559
 5905WAT     H218235   0.414   2.933   5.651
 5906WAT      O18236   0.217   1.580   5.318
 5906WAT     H118237   0.302   1.624   5.311
 5906WAT     H218238   0.181   1.612   5.401
 5907WAT      O18239   1.109   2.038   5.809
 5907WAT     H118240   1.015   2.039   5.827
 5907WAT     H218241   1.141   1.959   5.854
 5908WAT      O18242   1.310   2.755   5.977
 5908WAT     H118243   1.322   2.837   6.024
 5908WAT     H218244   1.396   2.734   5.942
 5909WAT      O18245   0.368   2.881   5.126
 5909WAT     H118246   0.447   2.910   5.081
 5909WAT     H218247   0.316   2.838   5.058
 5910WAT      O18248   1.273   2.804   5.268
 5910WAT     H118249   1.245   2.763   5.187
 5910WAT     H218250   1.253   2.897   5.256
 5911WAT      O18251   0.420   2.403   5.113
 5911WAT     H118252   0.409   2.342   5.185
 5911WAT     H218253   0.403   2.351   5.034
 5912WAT      O18254   0.744   2.310   5.173
 5912WAT     H118255   0.689   2.354   5.237
 5912WAT     H218256   0.806   2.259   5.225
 5913WAT      O18257   0.310   2.205   5.363
 5913WAT     H118258   0.353   2.189   5.447
 5913WAT     H218259   0.323   2.124   5.313
 5914WAT      O18260   0.562   2.108   5.087
 5914WAT     H118261   0.614   2.036   5.051
 5914WAT     H218262   0.626   2.172   5.117
 5915WAT      O18263   0.200   1.813   5.057
 5915WAT     H118264   0.180   1.726   5.093
 5915WAT     H218265   0.183   1.804   4.963
 5916WAT      O18266   0.948   1.294   5.310
 5916WAT     H118267   0.976   1.210   5.346
 5916WAT     H218268   0.871   1.317   5.361
 5917WAT      O18269   0.402   1.417   5.155
 5917WAT     H118270   0.367   1.349   5.097
 5917WAT     H218271   0.422   1.371   5.236
 5918WAT      O18272   0.618   2.916   5.316
 5918WAT     H118273   0.708   2.950   5.319
 5918WAT     H218274   0.621   2.844   5.254
 5919WAT      O18275   1.440   2.543   5.121
 5919WAT     H118276   1.357   2.550   5.168
 5919WAT     H218277   1.458   2.632   5.090
 5920WAT      O18278   1.386   2.218   5.371
 5920WAT     H118279   1.462   2.275   5.382
 5920WAT     H218280   1.387   2.161   5.448
 5921WAT      O18281   1.486   2.303   5.856
 5921WAT     H118282   1.523   2.225   5.815
 5921WAT     H218283   1.550   2.372   5.838
 5922WAT      O18284   1.391   2.247   5.087
 5922WAT     H118285   1.418   2.338   5.074
 5922WAT     H218286   1.372   2.241   5.180
 5923WAT      O18287   1.031   1.549   5.216
 5923WAT     H118288   1.073   1.531   5.132
 5923WAT     H218289   1.000   1.464   5.247
 5924WAT      O18290   1.381   2.041   5.586
 5924WAT     H118291   1.343   1.964   5.543
 5924WAT     H218292   1.308   2.079   5.635
 5925WAT      O18293   1.308   1.863   5.916
 5925WAT     H118294   1.360   1.814   5.853
 5925WAT     H218295   1.367   1.877   5.991
 5926WAT      O18296   1.257   1.789   5.510
 5926WAT     H118297   1.307   1.766   5.589
 5926WAT     H218298   1.237   1.705   5.468
 5927WAT      O18299   1.400   1.653   5.763
 5927WAT     H118300   1.389   1.637   5.857
 5927WAT     H218301   1.476   1.600   5.739
 5928WAT      O18302   1.489   1.436   5.088
 5928WAT     H118303   1.581   1.422   5.067
 5928WAT     H218304   1.487   1.444   5.183
 5929WAT      O18305   1.496   1.513   5.350
 5929WAT     H118306   1.417   1.506   5.403
 5929WAT     H218307   1.517   1.606   5.349
 5930WAT      O18308   1.190   2.917   5.749
 5930WAT     H118309   1.250   2.885   5.682
 5930WAT     H218310   1.216   2.869   5.829
 5931WAT      O18311   1.246   2.982   6.132
 5931WAT     H118312   1.200   3.057   6.095
 5931WAT     H218313   1.183   2.910   6.127
 5932WAT      O18314   0.289   2.813   6.050
 5932WAT     H118315   0.340   2.751   5.997
 5932WAT     H218316   0.354   2.863   6.099
 5933WAT      O18317   1.139   1.346   5.995
 5933WAT     H118318   1.184   1.340   5.910
 5933WAT     H218319   1.113   1.437   6.002
 5934WAT      O18320   1.326   1.309   5.796
 5934WAT     H118321   1.320   1.215   5.781
 5934WAT     H218322   1.404   1.320   5.851
 5935WAT      O18323   0.473   1.517   5.742
 5935WAT     H118324   0.392   1.480   5.708
 5935WAT     H218325   0.523   1.442   5.772
 5936WAT      O18326   0.923   1.184   5.866
 5936WAT     H118327   0.983   1.241   5.913
 5936WAT     H218328   0.849   1.240   5.843
 5937WAT      O18329   1.237   1.224   5.393
 5937WAT     H118330   1.257   1.314   5.420
 5937WAT     H218331   1.159   1.201   5.442
 5938WAT      O18332   0.275   1.332   5.602
 5938WAT     H118333   0.212   1.262   5.619
 5938WAT     H218334   0.221   1.408   5.581
 5939WAT      O18335   1.393   2.948   5.569
 5939WAT     H118336   1.410   2.879   5.505
 5939WAT     H218337   1.323   3.001   5.530
 5940WAT      O18338   0.177   2.987   5.324
 5940WAT     H118339   0.250   2.959   5.270
 5940WAT     H218340   0.203   2.963   5.413
 5941WAT      O18341   0.839   2.004   3.940
 5941WAT     H118342   0.831   1.912   3.913
 5941WAT     H218343   0.797   2.053   3.869
 5942WAT      O18344   0.652   2.181   4.128
 5942WAT     H118345   0.574   2.133   4.157
 5942WAT     H218346   0.717   2.114   4.111
 5943WAT      O18347   1.054   2.622   4.006
 5943WAT     H118348   1.008   2.545   4.039
 5943WAT     H218349   1.135   2.625   4.057
 5944WAT      O18350   0.676   2.851   3.968
 5944WAT     H118351   0.615   2.896   3.911
 5944WAT     H218352   0.762   2.866   3.928
 5945WAT      O18353   0.596   2.449   4.129
 5945WAT     H118354   0.589   2.355   4.113
 5945WAT     H218355   0.672   2.458   4.186
 5946WAT      O18356   0.699   1.730   4.151
 5946WAT     H118357   0.737   1.642   4.140
 5946WAT     H218358   0.689   1.763   4.062
 5947WAT      O18359   1.077   1.479   3.845
 5947WAT     H118360   1.159   1.430   3.849
 5947WAT     H218361   1.080   1.538   3.920
 5948WAT      O18362   0.296   1.864   4.131
 5948WAT     H118363   0.347   1.914   4.195
 5948WAT     H218364   0.349   1.786   4.113
 5949WAT      O18365   1.506   1.681   4.501
 5949WAT     H118366   1.436   1.720   4.449
 5949WAT     H218367   1.533   1.750   4.561
 5950WAT      O18368   0.763   2.339   3.707
 5950WAT     H118369   0.701   2.386   3.651
 5950WAT     H218370   0.814   2.408   3.749
 5951WAT      O18371   0.249   2.292   4.375
 5951WAT     H118372   0.216   2.354   4.439
 5951WAT     H218373   0.267   2.344   4.297
 5952WAT      O18374   1.101   1.673   4.122
 5952WAT     H118375   1.030   1.702   4.180
 5952WAT     H218376   1.137   1.754   4.086
 5953WAT      O18377   1.262   2.635   4.348
 5953WAT     H118378   1.194   2.702   4.347
 5953WAT     H218379   1.316   2.655   4.272
 5954WAT      O18380   1.408   1.618   4.161
 5954WAT     H118381   1.313   1.621   4.174
 5954WAT     H218382   1.440   1.699   4.200
 5955WAT      O18383   0.461   1.248   3.991
 5955WAT     H118384   0.492   1.192   3.919
 5955WAT     H218385   0.368   1.261   3.972
 5956WAT      O18386   1.016   2.819   4.220
 5956WAT     H118387   1.017   2.779   4.133
 5956WAT     H218388   0.961   2.897   4.209
 5957WAT      O18389   1.145   2.492   3.729
 5957WAT     H118390   1.134   2.397   3.741
 5957WAT     H218391   1.145   2.528   3.817
 5958WAT      O18392   0.956   2.310   4.352
 5958WAT     H118393   0.998   2.288   4.269
 5958WAT     H218394   1.028   2.335   4.410
 5959WAT      O18395   0.700   2.054   3.664
 5959WAT     H118396   0.607   2.048   3.687
 5959WAT     H218397   0.715   2.148   3.653
 5960WAT      O18398   0.698   1.681   3.364
 5960WAT     H118399   0.604   1.698   3.372
 5960WAT     H218400   0.730   1.753   3.309
 5961WAT      O18401   1.350   2.150   4.362
 5961WAT     H118402   1.268   2.157   4.314
 5961WAT     H218403   1.410   2.208   4.315
 5962WAT      O18404   1.103   2.210   3.715
 5962WAT     H118405   1.041   2.177   3.650
 5962WAT     H218406   1.101   2.146   3.785
 5963WAT      O18407   1.047   1.828   4.456
 5963WAT     H118408   1.006   1.911   4.482
 5963WAT     H218409   0.974   1.770   4.437
 5964WAT      O18410   0.260   2.107   3.942
 5964WAT     H118411   0.220   2.036   3.893
 5964WAT     H218412   0.269   2.072   4.031
 5965WAT      O18413   0.307   2.476   4.159
 5965WAT     H118414   0.277   2.415   4.091
 5965WAT     H218415   0.402   2.479   4.148
 5966WAT      O18416   1.116   2.833   4.525
 5966WAT     H118417   1.068   2.914   4.506
 5966WAT     H218418   1.048   2.768   4.540
 5967WAT      O18419   0.920   2.134   3.415
 5967WAT     H118420   0.964   2.051   3.401
 5967WAT     H218421   0.992   2.198   3.424
 5968WAT      O18422   0.731   2.628   3.812
 5968WAT     H118423   0.775   2.703   3.771
 5968WAT     H218424   0.725   2.653   3.904
 5969WAT      O18425   0.279   2.731   4.902
 5969WAT     H118426   0.276   2.771   4.816
 5969WAT     H218427   0.262   2.638   4.886
 5970WAT      O18428   1.278   1.260   3.247
 5970WAT     H118429   1.247   1.269   3.337
 5970WAT     H218430   1.355   1.318   3.242
 5971WAT      O18431   1.474   2.809   5.032
 5971WAT     H118432   1.521   2.857   5.100
 5971WAT     H218433   1.536   2.802   4.959
 5972WAT      O18434   1.414   2.528   4.748
 5972WAT     H118435   1.427   2.504   4.656
 5972WAT     H218436   1.418   2.445   4.795
 5973WAT      O18437   0.800   2.898   4.605
 5973WAT     H118438   0.852   2.890   4.685
 5973WAT     H218439   0.716   2.933   4.634
 5974WAT      O18440   0.998   2.927   3.548
 5974WAT     H118441   0.982   2.898   3.638
 5974WAT     H218442   0.981   2.849   3.494
 5975WAT      O18443   0.246   2.905   3.725
 5975WAT     H118444   0.228   2.813   3.704
 5975WAT     H218445   0.160   2.941   3.749
 5976WAT      O18446   0.968   2.678   3.404
 5976WAT     H118447   0.899   2.678   3.338
 5976WAT     H218448   1.042   2.635   3.361
 5977WAT      O18449   0.925   2.840   3.811
 5977WAT     H118450   0.970   2.762   3.843
 5977WAT     H218451   0.959   2.912   3.866
 5978WAT      O18452   1.399   1.733   4.844
 5978WAT     H118453   1.338   1.784   4.792
 5978WAT     H218454   1.367   1.643   4.839
 5979WAT      O18455   0.606   1.617   4.591
 5979WAT     H118456   0.559   1.638   4.672
 5979WAT     H218457   0.565   1.536   4.561
 5980WAT      O18458   1.106   1.739   4.704
 5980WAT     H118459   1.021   1.710   4.736
 5980WAT     H218460   1.090   1.764   4.613
 5981WAT      O18461   0.815   1.890   4.914
 5981WAT     H118462   0.848   1.806   4.880
 5981WAT     H218463   0.894   1.942   4.929
 5982WAT      O18464   0.488   1.293   3.519
 5982WAT     H118465   0.426   1.292   3.591
 5982WAT     H218466   0.480   1.206   3.479
 5983WAT      O18467   0.381   1.385   4.217
 5983WAT     H118468   0.410   1.476   4.209
 5983WAT     H218469   0.436   1.336   4.155
 5984WAT      O18470   0.879   1.844   3.663
 5984WAT     H118471   0.819   1.916   3.645
 5984WAT     H218472   0.934   1.837   3.585
 5985WAT      O18473   0.400   1.933   4.870
 5985WAT     H118474   0.390   1.839   4.855
 5985WAT     H218475   0.484   1.955   4.831
 5986WAT      O18476   0.740   1.707   3.866
 5986WAT     H118477   0.779   1.739   3.785
 5986WAT     H218478   0.776   1.619   3.878
 5987WAT      O18479   0.571   1.582   4.992
 5987WAT     H118480   0.502   1.563   5.056
 5987WAT     H218481   0.645   1.611   5.046
 5988WAT      O18482   0.798   1.966   4.276
 5988WAT     H118483   0.725   2.017   4.311
 5988WAT     H218484   0.758   1.885   4.246
 5989WAT      O18485   0.442   1.634   4.116
 5989WAT     H118486   0.442   1.590   4.032
 5989WAT     H218487   0.531   1.666   4.127
 5990WAT      O18488   0.448   1.734   3.416
 5990WAT     H118489   0.460   1.730   3.510
 5990WAT     H218490   0.410   1.820   3.400
 5991WAT      O18491   0.844   1.512   4.217
 5991WAT     H118492   0.846   1.557   4.302
 5991WAT     H218493   0.820   1.422   4.239
 5992WAT      O18494   0.349   1.965   3.355
 5992WAT     H118495   0.293   1.920   3.293
 5992WAT     H218496   0.420   2.001   3.302
 5993WAT      O18497   1.187   1.253   4.801
 5993WAT     H118498   1.220   1.180   4.854
 5993WAT     H218499   1.191   1.221   4.711
 5994WAT      O18500   0.472   2.040   4.291
 5994WAT     H118501   0.509   1.993   4.366
 5994WAT     H218502   0.453   2.127   4.325
 5995WAT      O18503   0.251   1.944   4.523
 5995WAT     H118504   0.221   2.032   4.545
 5995WAT     H218505   0.347   1.950   4.527
 5996WAT      O18506   1.180   2.264   4.162
 5996WAT     H118507   1.252   2.314   4.123
 5996WAT     H218508   1.160   2.196   4.097
 5997WAT      O18509   0.726   1.404   3.576
 5997WAT     H118510   0.645   1.354   3.569
 5997WAT     H218511   0.706   1.488   3.535
 5998WAT      O18512   0.718   2.271   4.751
 5998WAT     H118513   0.711   2.179   4.725
 5998WAT     H218514   0.655   2.281   4.822
 5999WAT      O18515   0.997   1.841   3.406
 5999WAT     H118516   1.086   1.872   3.388
 5999WAT     H218517   0.994   1.754   3.367
 6000WAT      O18518   0.597   2.458   3.474
 6000WAT     H118519   0.631   2.533   3.424
 6000WAT     H218520   0.514   2.489   3.510
 6001WAT      O18521   0.177   2.074   4.926
 6001WAT     H118522   0.147   2.088   4.836
 6001WAT     H218523   0.254   2.018   4.917
 6002WAT      O18524   0.711   2.554   4.726
 6002WAT     H118525   0.713   2.460   4.704
 6002WAT     H218526   0.640   2.562   4.790
 6003WAT      O18527   1.224   1.972   3.353
 6003WAT     H118528   1.216   2.015   3.268
 6003WAT     H218529   1.296   2.018   3.396
 6004WAT      O18530   1.332   2.218   4.660
 6004WAT     H118531   1.260   2.277   4.641
 6004WAT     H218532   1.385   2.217   4.580
 6005WAT      O18533   1.327   2.657   3.625
 6005WAT     H118534   1.263   2.592   3.653
 6005WAT     H218535   1.289   2.698   3.548
 6006WAT      O18536   0.885   2.390   4.010
 6006WAT     H118537   0.920   2.331   3.944
 6006WAT     H218538   0.797   2.358   4.027
 6007WAT      O18539   0.494   2.466   3.751
 6007WAT     H118540   0.563   2.521   3.789
 6007WAT     H218541   0.415   2.521   3.754
 6008WAT      O18542   0.424   2.167   3.712
 6008WAT     H118543   0.470   2.248   3.735
 6008WAT     H218544   0.389   2.135   3.795
 6009WAT      O18545   0.654   2.718   4.435
 6009WAT     H118546   0.719   2.738   4.503
 6009WAT     H218547   0.691   2.642   4.390
 6010WAT      O18548   0.782   2.518   4.307
 6010WAT     H118549   0.846   2.448   4.318
 6010WAT     H218550   0.834   2.596   4.289
 6011WAT      O18551   1.166   2.547   3.279
 6011WAT     H118552   1.144   2.475   3.338
 6011WAT     H218553   1.127   2.522   3.195
 6012WAT      O18554   0.959   2.598   4.627
 6012WAT     H118555   0.993   2.657   4.695
 6012WAT     H218556   0.867   2.585   4.650
 6013WAT      O18557   1.124   2.338   3.445
 6013WAT     H118558   1.096   2.384   3.524
 6013WAT     H218559   1.204   2.292   3.472
 6014WAT      O18560   0.542   2.603   4.944
 6014WAT     H118561   0.510   2.531   4.999
 6014WAT     H218562   0.475   2.670   4.951
 6015WAT      O18563   0.346   2.688   3.438
 6015WAT     H118564   0.345   2.761   3.377
 6015WAT     H218565   0.254   2.663   3.448
 6016WAT      O18566   0.864   1.626   4.480
 6016WAT     H118567   0.900   1.544   4.513
 6016WAT     H218568   0.778   1.632   4.522
 6017WAT      O18569   1.200   1.522   3.561
 6017WAT     H118570   1.137   1.532   3.490
 6017WAT     H218571   1.151   1.544   3.640
 6018WAT      O18572   0.645   2.694   3.305
 6018WAT     H118573   0.655   2.673   3.212
 6018WAT     H218574   0.555   2.668   3.325
 6019WAT      O18575   0.397   1.750   3.703
 6019WAT     H118576   0.326   1.796   3.747
 6019WAT     H218577   0.425   1.684   3.766
 6020WAT      O18578   0.560   1.892   4.503
 6020WAT     H118579   0.609   1.939   4.569
 6020WAT     H218580   0.574   1.799   4.524
 6021WAT      O18581   0.800   1.422   3.847
 6021WAT     H118582   0.788   1.424   3.752
 6021WAT     H218583   0.895   1.427   3.859
 6022WAT      O18584   0.509   2.946   3.774
 6022WAT     H118585   0.534   2.942   3.682
 6022WAT     H218586   0.414   2.933   3.773
 6023WAT      O18587   0.217   1.580   3.440
 6023WAT     H118588   0.302   1.624   3.434
 6023WAT     H218589   0.181   1.612   3.523
 6024WAT      O18590   1.280   1.513   4.587
 6024WAT     H118591   1.230   1.587   4.621
 6024WAT     H218592   1.362   1.552   4.555
 6025WAT      O18593   1.109   2.038   3.932
 6025WAT     H118594   1.015   2.039   3.949
 6025WAT     H218595   1.141   1.959   3.976
 6026WAT      O18596   1.310   2.755   4.099
 6026WAT     H118597   1.322   2.837   4.146
 6026WAT     H218598   1.396   2.734   4.064
 6027WAT      O18599   0.368   2.881   3.249
 6027WAT     H118600   0.447   2.910   3.203
 6027WAT     H218601   0.316   2.838   3.181
 6028WAT      O18602   0.841   2.493   4.980
 6028WAT     H118603   0.781   2.496   4.906
 6028WAT     H218604   0.811   2.420   5.034
 6029WAT      O18605   0.984   2.866   4.841
 6029WAT     H118606   1.079   2.858   4.836
 6029WAT     H218607   0.969   2.932   4.908
 6030WAT      O18608   1.273   2.804   3.391
 6030WAT     H118609   1.245   2.763   3.310
 6030WAT     H218610   1.253   2.897   3.379
 6031WAT      O18611   0.420   2.403   3.235
 6031WAT     H118612   0.409   2.342   3.308
 6031WAT     H218613   0.403   2.351   3.157
 6032WAT      O18614   0.435   2.272   4.833
 6032WAT     H118615   0.358   2.329   4.825
 6032WAT     H218616   0.453   2.243   4.744
 6033WAT      O18617   0.744   2.310   3.296
 6033WAT     H118618   0.689   2.354   3.360
 6033WAT     H218619   0.806   2.259   3.348
 6034WAT      O18620   1.149   2.445   4.889
 6034WAT     H118621   1.223   2.479   4.838
 6034WAT     H218622   1.073   2.462   4.833
 6035WAT      O18623   0.310   2.205   3.485
 6035WAT     H118624   0.353   2.189   3.569
 6035WAT     H218625   0.323   2.124   3.436
 6036WAT      O18626   0.562   2.108   3.210
 6036WAT     H118627   0.614   2.036   3.173
 6036WAT     H218628   0.626   2.172   3.240
 6037WAT      O18629   1.017   2.250   4.742
 6037WAT     H118630   1.058   2.266   4.827
 6037WAT     H218631   0.923   2.263   4.759
 6038WAT      O18632   1.064   1.984   4.943
 6038WAT     H118633   1.122   1.909   4.934
 6038WAT     H218634   1.081   2.037   4.865
 6039WAT      O18635   0.452   1.356   4.477
 6039WAT     H118636   0.407   1.358   4.393
 6039WAT     H218637   0.389   1.316   4.537
 6040WAT      O18638   0.493   2.245   4.539
 6040WAT     H118639   0.535   2.330   4.522
 6040WAT     H218640   0.401   2.259   4.516
 6041WAT      O18641   0.726   2.018   4.678
 6041WAT     H118642   0.738   1.959   4.752
 6041WAT     H218643   0.812   2.022   4.636
 6042WAT      O18644   0.960   2.074   4.535
 6042WAT     H118645   0.908   2.126   4.475
 6042WAT     H218646   0.995   2.137   4.598
 6043WAT      O18647   0.200   1.813   3.180
 6043WAT     H118648   0.180   1.726   3.216
 6043WAT     H218649   0.183   1.804   3.086
 6044WAT      O18650   0.278   2.876   4.651
 6044WAT     H118651   0.224   2.948   4.619
 6044WAT     H218652   0.303   2.828   4.572
 6045WAT      O18653   0.403   1.673   4.803
 6045WAT     H118654   0.462   1.642   4.872
 6045WAT     H218655   0.321   1.625   4.819
 6046WAT      O18656   0.885   1.634   4.827
 6046WAT     H118657   0.816   1.568   4.820
 6046WAT     H218658   0.957   1.590   4.871
 6047WAT      O18659   0.948   1.294   3.433
 6047WAT     H118660   0.976   1.210   3.468
 6047WAT     H218661   0.871   1.317   3.484
 6048WAT      O18662   0.563   2.999   4.677
 6048WAT     H118663   0.556   3.090   4.707
 6048WAT     H218664   0.473   2.967   4.674
 6049WAT      O18665   0.402   1.417   3.277
 6049WAT     H118666   0.367   1.349   3.219
 6049WAT     H218667   0.422   1.371   3.359
 6050WAT      O18668   0.618   2.916   3.439
 6050WAT     H118669   0.708   2.950   3.441
 6050WAT     H218670   0.621   2.844   3.376
 6051WAT      O18671   1.316   2.769   4.710
 6051WAT     H118672   1.256   2.775   4.635
 6051WAT     H218673   1.329   2.675   4.723
 6052WAT      O18674   1.440   2.543   3.243
 6052WAT     H118675   1.357   2.550   3.290
 6052WAT     H218676   1.458   2.632   3.213
 6053WAT      O18677   1.386   2.218   3.494
 6053WAT     H118678   1.462   2.275   3.504
 6053WAT     H218679   1.387   2.161   3.571
 6054WAT      O18680   1.486   2.303   3.978
 6054WAT     H118681   1.523   2.225   3.937
 6054WAT     H218682   1.550   2.372   3.960
 6055WAT      O18683   1.185   2.442   4.519
 6055WAT     H118684   1.103   2.484   4.546
 6055WAT     H218685   1.225   2.503   4.458
 6056WAT      O18686   1.391   2.247   3.209
 6056WAT     H118687   1.418   2.338   3.197
 6056WAT     H218688   1.372   2.241   3.303
 6057WAT      O18689   1.031   1.549   3.339
 6057WAT     H118690   1.073   1.531   3.255
 6057WAT     H218691   1.000   1.464   3.370
 6058WAT      O18692   1.381   2.041   3.709
 6058WAT     H118693   1.343   1.964   3.665
 6058WAT     H218694   1.308   2.079   3.757
 6059WAT      O18695   1.320   1.955   4.672
 6059WAT     H118696   1.296   1.933   4.582
 6059WAT     H218697   1.346   2.047   4.668
 6060WAT      O18698   1.163   1.478   4.950
 6060WAT     H118699   1.251   1.479   4.988
 6060WAT     H218700   1.165   1.404   4.889
 6061WAT      O18701   1.308   1.863   4.039
 6061WAT     H118702   1.360   1.814   3.976
 6061WAT     H218703   1.367   1.877   4.113
 6062WAT      O18704   1.326   1.872   4.391
 6062WAT     H118705   1.231   1.868   4.402
 6062WAT     H218706   1.344   1.963   4.367
 6063WAT      O18707   1.257   1.789   3.633
 6063WAT     H118708   1.307   1.766   3.711
 6063WAT     H218709   1.237   1.705   3.591
 6064WAT      O18710   1.400   1.653   3.886
 6064WAT     H118711   1.389   1.637   3.980
 6064WAT     H218712   1.476   1.600   3.862
 6065WAT      O18713   1.235   1.247   4.532
 6065WAT     H118714   1.298   1.308   4.568
 6065WAT     H218715   1.249   1.250   4.437
 6066WAT      O18716   1.489   1.436   3.210
 6066WAT     H118717   1.581   1.422   3.189
 6066WAT     H218718   1.487   1.444   3.305
 6067WAT      O18719   1.496   1.513   3.473
 6067WAT     H118720   1.417   1.506   3.526
 6067WAT     H218721   1.517   1.606   3.472
 6068WAT      O18722   1.190   2.917   3.872
 6068WAT     H118723   1.250   2.885   3.804
 6068WAT     H218724   1.216   2.869   3.951
 6069WAT      O18725   0.351   2.715   4.447
 6069WAT     H118726   0.327   2.742   4.358
 6069WAT     H218727   0.445   2.733   4.453
 6070WAT      O18728   0.572   1.362   4.823
 6070WAT     H118729   0.566   1.421   4.898
 6070WAT     H218730   0.666   1.351   4.808
 6071WAT      O18731   0.835   1.327   4.787
 6071WAT     H118732   0.897   1.359   4.720
 6071WAT     H218733   0.890   1.279   4.849
 6072WAT      O18734   1.477   2.917   4.527
 6072WAT     H118735   1.428   2.957   4.455
 6072WAT     H218736   1.416   2.855   4.567
 6073WAT      O18737   0.910   1.184   4.419
 6073WAT     H118738   0.822   1.217   4.399
 6073WAT     H218739   0.899   1.137   4.502
 6074WAT      O18740   1.000   1.405   4.558
 6074WAT     H118741   0.967   1.323   4.520
 6074WAT     H218742   1.095   1.400   4.545
 6075WAT      O18743   1.246   2.982   4.255
 6075WAT     H118744   1.200   3.057   4.218
 6075WAT     H218745   1.183   2.910   4.249
 6076WAT      O18746   0.289   2.813   4.173
 6076WAT     H118747   0.340   2.751   4.120
 6076WAT     H218748   0.354   2.863   4.222
 6077WAT      O18749   0.562   2.902   4.255
 6077WAT     H118750   0.591   2.876   4.168
 6077WAT     H218751   0.614   2.846   4.314
 6078WAT      O18752   0.684   1.276   4.313
 6078WAT     H118753   0.606   1.323   4.341
 6078WAT     H218754   0.655   1.185   4.302
 6079WAT      O18755   1.139   1.346   4.118
 6079WAT     H118756   1.184   1.340   4.033
 6079WAT     H218757   1.113   1.437   4.125
 6080WAT      O18758   1.326   1.309   3.919
 6080WAT     H118759   1.320   1.215   3.904
 6080WAT     H218760   1.404   1.320   3.973
 6081WAT      O18761   0.473   1.517   3.864
 6081WAT     H118762   0.392   1.480   3.830
 6081WAT     H218763   0.523   1.442   3.895
 6082WAT      O18764   0.923   1.184   3.988
 6082WAT     H118765   0.983   1.241   4.036
 6082WAT     H218766   0.849   1.240   3.966
 6083WAT      O18767   1.237   1.224   3.516
 6083WAT     H118768   1.257   1.314   3.542
 6083WAT     H218769   1.159   1.201   3.565
 6084WAT      O18770   0.275   1.332   3.725
 6084WAT     H118771   0.212   1.262   3.741
 6084WAT     H218772   0.221   1.408   3.703
 6085WAT      O18773   0.569   2.994   4.992
 6085WAT     H118774   0.662   2.970   4.996
 6085WAT     H218775   0.568   3.076   4.944
 6086WAT      O18776   1.393   2.948   3.692
 6086WAT     H118777   1.410   2.879   3.627
 6086WAT     H218778   1.323   3.001   3.652
 6087WAT      O18779   0.288   1.260   4.968
 6087WAT     H118780   0.260   1.311   4.892
 6087WAT     H218781   0.326   1.180   4.932
 6088WAT      O18782   0.177   2.987   3.447
 6088WAT     H118783   0.250   2.959   3.392
 6088WAT     H218784   0.203   2.963   3.536
 6089WAT      O18785   0.948   1.202   5.026
 6089WAT     H118786   0.937   1.234   5.116
 6089WAT     H218787   1.030   1.242   4.996
 6090WAT      O18788   1.226   2.916   4.974
 6090WAT     H118789   1.305   2.867   4.954
 6090WAT     H218790   1.255   2.984   5.035
 6091WAT      O18791   0.839   2.004   2.062
 6091WAT     H118792   0.831   1.912   2.035
 6091WAT     H218793   0.797   2.053   1.992
 6092WAT      O18794   0.652   2.181   2.251
 6092WAT     H118795   0.574   2.133   2.280
 6092WAT     H218796   0.717   2.114   2.233
 6093WAT      O18797   1.054   2.622   2.129
 6093WAT     H118798   1.008   2.545   2.161
 6093WAT     H218799   1.135   2.625   2.179
 6094WAT      O18800   0.676   2.851   2.091
 6094WAT     H118801   0.615   2.896   2.034
 6094WAT     H218802   0.762   2.866   2.050
 6095WAT      O18803   0.596   2.449   2.251
 6095WAT     H118804   0.589   2.355   2.235
 6095WAT     H218805   0.672   2.458   2.308
 6096WAT      O18806   0.699   1.730   2.274
 6096WAT     H118807   0.737   1.642   2.263
 6096WAT     H218808   0.689   1.763   2.185
 6097WAT      O18809   1.077   1.479   1.967
 6097WAT     H118810   1.159   1.430   1.971
 6097WAT     H218811   1.080   1.538   2.043
 6098WAT      O18812   0.296   1.864   2.253
 6098WAT     H118813   0.347   1.914   2.317
 6098WAT     H218814   0.349   1.786   2.236
 6099WAT      O18815   1.506   1.681   2.624
 6099WAT     H118816   1.436   1.720   2.572
 6099WAT     H218817   1.533   1.750   2.684
 6100WAT      O18818   0.763   2.339   1.830
 6100WAT     H118819   0.701   2.386   1.774
 6100WAT     H218820   0.814   2.408   1.872
 6101WAT      O18821   0.249   2.292   2.498
 6101WAT     H118822   0.216   2.354   2.562
 6101WAT     H218823   0.267   2.344   2.420
 6102WAT      O18824   1.101   1.673   2.245
 6102WAT     H118825   1.030   1.702   2.303
 6102WAT     H218826   1.137   1.754   2.208
 6103WAT      O18827   1.262   2.635   2.471
 6103WAT     H118828   1.194   2.702   2.470
 6103WAT     H218829   1.316   2.655   2.394
 6104WAT      O18830   1.408   1.618   2.284
 6104WAT     H118831   1.313   1.621   2.297
 6104WAT     H218832   1.440   1.699   2.322
 6105WAT      O18833   0.461   1.248   2.113
 6105WAT     H118834   0.492   1.192   2.042
 6105WAT     H218835   0.368   1.261   2.095
 6106WAT      O18836   1.016   2.819   2.342
 6106WAT     H118837   1.017   2.779   2.255
 6106WAT     H218838   0.961   2.897   2.332
 6107WAT      O18839   1.145   2.492   1.851
 6107WAT     H118840   1.134   2.397   1.864
 6107WAT     H218841   1.145   2.528   1.940
 6108WAT      O18842   0.956   2.310   2.475
 6108WAT     H118843   0.998   2.288   2.392
 6108WAT     H218844   1.028   2.335   2.532
 6109WAT      O18845   0.700   2.054   1.787
 6109WAT     H118846   0.607   2.048   1.810
 6109WAT     H218847   0.715   2.148   1.775
 6110WAT      O18848   0.698   1.681   1.486
 6110WAT     H118849   0.604   1.698   1.495
 6110WAT     H218850   0.730   1.753   1.432
 6111WAT      O18851   1.350   2.150   2.484
 6111WAT     H118852   1.268   2.157   2.437
 6111WAT     H218853   1.410   2.208   2.437
 6112WAT      O18854   1.103   2.210   1.837
 6112WAT     H118855   1.041   2.177   1.772
 6112WAT     H218856   1.101   2.146   1.908
 6113WAT      O18857   1.047   1.828   2.579
 6113WAT     H118858   1.006   1.911   2.604
 6113WAT     H218859   0.974   1.770   2.560
 6114WAT      O18860   0.260   2.107   2.065
 6114WAT     H118861   0.220   2.036   2.015
 6114WAT     H218862   0.269   2.072   2.154
 6115WAT      O18863   0.307   2.476   2.281
 6115WAT     H118864   0.277   2.415   2.213
 6115WAT     H218865   0.402   2.479   2.270
 6116WAT      O18866   1.116   2.833   2.648
 6116WAT     H118867   1.068   2.914   2.628
 6116WAT     H218868   1.048   2.768   2.663
 6117WAT      O18869   0.920   2.134   1.538
 6117WAT     H118870   0.964   2.051   1.523
 6117WAT     H218871   0.992   2.198   1.546
 6118WAT      O18872   0.731   2.628   1.935
 6118WAT     H118873   0.775   2.703   1.893
 6118WAT     H218874   0.725   2.653   2.027
 6119WAT      O18875   0.279   2.731   3.025
 6119WAT     H118876   0.276   2.771   2.938
 6119WAT     H218877   0.262   2.638   3.009
 6120WAT      O18878   1.278   1.260   1.369
 6120WAT     H118879   1.247   1.269   1.459
 6120WAT     H218880   1.355   1.318   1.364
 6121WAT      O18881   1.474   2.809   3.154
 6121WAT     H118882   1.521   2.857   3.222
 6121WAT     H218883   1.536   2.802   3.082
 6122WAT      O18884   1.414   2.528   2.870
 6122WAT     H118885   1.427   2.504   2.779
 6122WAT     H218886   1.418   2.445   2.918
 6123WAT      O18887   0.800   2.898   2.727
 6123WAT     H118888   0.852   2.890   2.808
 6123WAT     H218889   0.716   2.933   2.757
 6124WAT      O18890   0.998   2.927   1.670
 6124WAT     H118891   0.982   2.898   1.760
 6124WAT     H218892   0.981   2.849   1.617
 6125WAT      O18893   0.246   2.905   1.848
 6125WAT     H118894   0.228   2.813   1.827
 6125WAT     H218895   0.160   2.941   1.872
 6126WAT      O18896   0.968   2.678   1.526
 6126WAT     H118897   0.899   2.678   1.460
 6126WAT     H218898   1.042   2.635   1.483
 6127WAT      O18899   0.925   2.840   1.934
 6127WAT     H118900   0.970   2.762   1.965
 6127WAT     H218901   0.959   2.912   1.988
 6128WAT      O18902   1.399   1.733   2.967
 6128WAT     H118903   1.338   1.784   2.914
 6128WAT     H218904   1.367   1.643   2.961
 6129WAT      O18905   0.606   1.617   2.714
 6129WAT     H118906   0.559   1.638   2.795
 6129WAT     H218907   0.565   1.536   2.683
 6130WAT      O18908   1.106   1.739   2.827
 6130WAT     H118909   1.021   1.710   2.859
 6130WAT     H218910   1.090   1.764   2.735
 6131WAT      O18911   0.815   1.890   3.037
 6131WAT     H118912   0.848   1.806   3.003
 6131WAT     H218913   0.894   1.942   3.051
 6132WAT      O18914   0.488   1.293   1.641
 6132WAT     H118915   0.426   1.292   1.714
 6132WAT     H218916   0.480   1.206   1.602
 6133WAT      O18917   0.381   1.385   2.339
 6133WAT     H118918   0.410   1.476   2.331
 6133WAT     H218919   0.436   1.336   2.278
 6134WAT      O18920   0.879   1.844   1.786
 6134WAT     H118921   0.819   1.916   1.768
 6134WAT     H218922   0.934   1.837   1.708
 6135WAT      O18923   0.400   1.933   2.993
 6135WAT     H118924   0.390   1.839   2.978
 6135WAT     H218925   0.484   1.955   2.953
 6136WAT      O18926   0.740   1.707   1.989
 6136WAT     H118927   0.779   1.739   1.908
 6136WAT     H218928   0.776   1.619   2.000
 6137WAT      O18929   0.571   1.582   3.115
 6137WAT     H118930   0.502   1.563   3.178
 6137WAT     H218931   0.645   1.611   3.168
 6138WAT      O18932   0.798   1.966   2.399
 6138WAT     H118933   0.725   2.017   2.433
 6138WAT     H218934   0.758   1.885   2.368
 6139WAT      O18935   0.442   1.634   2.239
 6139WAT     H118936   0.442   1.590   2.154
 6139WAT     H218937   0.531   1.666   2.250
 6140WAT      O18938   0.448   1.734   1.538
 6140WAT     H118939   0.460   1.730   1.633
 6140WAT     H218940   0.410   1.820   1.523
 6141WAT      O18941   0.844   1.512   2.340
 6141WAT     H118942   0.846   1.557   2.424
 6141WAT     H218943   0.820   1.422   2.361
 6142WAT      O18944   0.349   1.965   1.478
 6142WAT     H118945   0.293   1.920   1.415
 6142WAT     H218946   0.420   2.001   1.425
 6143WAT      O18947   1.187   1.253   2.924
 6143WAT     H118948   1.220   1.180   2.976
 6143WAT     H218949   1.191   1.221   2.833
 6144WAT      O18950   0.472   2.040   2.414
 6144WAT     H118951   0.509   1.993   2.488
 6144WAT     H218952   0.453   2.127   2.448
 6145WAT      O18953   0.251   1.944   2.646
 6145WAT     H118954   0.221   2.032   2.668
 6145WAT     H218955   0.347   1.950   2.649
 6146WAT      O18956   1.180   2.264   2.284
 6146WAT     H118957   1.252   2.314   2.245
 6146WAT     H218958   1.160   2.196   2.220
 6147WAT      O18959   0.726   1.404   1.699
 6147WAT     H118960   0.645   1.354   1.691
 6147WAT     H218961   0.706   1.488   1.657
 6148WAT      O18962   0.718   2.271   2.873
 6148WAT     H118963   0.711   2.179   2.848
 6148WAT     H218964   0.655   2.281   2.945
 6149WAT      O18965   0.997   1.841   1.528
 6149WAT     H118966   1.086   1.872   1.511
 6149WAT     H218967   0.994   1.754   1.489
 6150WAT      O18968   0.597   2.458   1.596
 6150WAT     H118969   0.631   2.533   1.547
 6150WAT     H218970   0.514   2.489   1.633
 6151WAT      O18971   0.177   2.074   3.049
 6151WAT     H118972   0.147   2.088   2.959
 6151WAT     H218973   0.254   2.018   3.039
 6152WAT      O18974   0.711   2.554   2.848
 6152WAT     H118975   0.713   2.460   2.826
 6152WAT     H218976   0.640   2.562   2.912
 6153WAT      O18977   1.224   1.972   1.475
 6153WAT     H118978   1.216   2.015   1.390
 6153WAT     H218979   1.296   2.018   1.518
 6154WAT      O18980   1.332   2.218   2.783
 6154WAT     H118981   1.260   2.277   2.763
 6154WAT     H218982   1.385   2.217   2.703
 6155WAT      O18983   1.327   2.657   1.748
 6155WAT     H118984   1.263   2.592   1.775
 6155WAT     H218985   1.289   2.698   1.670
 6156WAT      O18986   0.885   2.390   2.133
 6156WAT     H118987   0.920   2.331   2.067
 6156WAT     H218988   0.797   2.358   2.150
 6157WAT      O18989   0.494   2.466   1.873
 6157WAT     H118990   0.563   2.521   1.912
 6157WAT     H218991   0.415   2.521   1.877
 6158WAT      O18992   0.424   2.167   1.835
 6158WAT     H118993   0.470   2.248   1.857
 6158WAT     H218994   0.389   2.135   1.918
 6159WAT      O18995   0.654   2.718   2.558
 6159WAT     H118996   0.719   2.738   2.625
 6159WAT     H218997   0.691   2.642   2.512
 6160WAT      O18998   0.782   2.518   2.429
 6160WAT     H118999   0.846   2.448   2.441
 6160WAT     H219000   0.834   2.596   2.411
 6161WAT      O19001   1.166   2.547   1.402
 6161WAT     H119002   1.144   2.475   1.461
 6161WAT     H219003   1.127   2.522   1.318
 6162WAT      O19004   0.959   2.598   2.750
 6162WAT     H119005   0.993   2.657   2.818
 6162WAT     H219006   0.867   2.585   2.773
 6163WAT      O19007   1.124   2.338   1.568
 6163WAT     H119008   1.096   2.384   1.647
 6163WAT     H219009   1.204   2.292   1.595
 6164WAT      O19010   0.542   2.603   3.067
 6164WAT     H119011   0.510   2.531   3.121
 6164WAT     H219012   0.475   2.670   3.074
 6165WAT      O19013   0.346   2.688   1.561
 6165WAT     H119014   0.345   2.761   1.499
 6165WAT     H219015   0.254   2.663   1.570
 6166WAT      O19016   0.864   1.626   2.603
 6166WAT     H119017   0.900   1.544   2.636
 6166WAT     H219018   0.778   1.632   2.645
 6167WAT      O19019   1.200   1.522   1.684
 6167WAT     H119020   1.137   1.532   1.612
 6167WAT     H219021   1.151   1.544   1.763
 6168WAT      O19022   0.645   2.694   1.427
 6168WAT     H119023   0.655   2.673   1.334
 6168WAT     H219024   0.555   2.668   1.448
 6169WAT      O19025   0.397   1.750   1.825
 6169WAT     H119026   0.326   1.796   1.870
 6169WAT     H219027   0.425   1.684   1.889
 6170WAT      O19028   0.560   1.892   2.625
 6170WAT     H119029   0.609   1.939   2.692
 6170WAT     H219030   0.574   1.799   2.646
 6171WAT      O19031   0.800   1.422   1.969
 6171WAT     H119032   0.788   1.424   1.874
 6171WAT     H219033   0.895   1.427   1.981
 6172WAT      O19034   0.509   2.946   1.897
 6172WAT     H119035   0.534   2.942   1.804
 6172WAT     H219036   0.414   2.933   1.896
 6173WAT      O19037   0.217   1.580   1.563
 6173WAT     H119038   0.302   1.624   1.556
 6173WAT     H219039   0.181   1.612   1.646
 6174WAT      O19040   1.280   1.513   2.710
 6174WAT     H119041   1.230   1.587   2.744
 6174WAT     H219042   1.362   1.552   2.678
 6175WAT      O19043   1.109   2.038   2.054
 6175WAT     H119044   1.015   2.039   2.072
 6175WAT     H219045   1.141   1.959   2.099
 6176WAT      O19046   1.310   2.755   2.222
 6176WAT     H119047   1.322   2.837   2.269
 6176WAT     H219048   1.396   2.734   2.187
 6177WAT      O19049   0.368   2.881   1.371
 6177WAT     H119050   0.447   2.910   1.326
 6177WAT     H219051   0.316   2.838   1.303
 6178WAT      O19052   0.841   2.493   3.103
 6178WAT     H119053   0.781   2.496   3.029
 6178WAT     H219054   0.811   2.420   3.156
 6179WAT      O19055   0.984   2.866   2.964
 6179WAT     H119056   1.079   2.858   2.959
 6179WAT     H219057   0.969   2.932   3.031
 6180WAT      O19058   1.273   2.804   1.514
 6180WAT     H119059   1.245   2.763   1.432
 6180WAT     H219060   1.253   2.897   1.502
 6181WAT      O19061   0.420   2.403   1.358
 6181WAT     H119062   0.409   2.342   1.430
 6181WAT     H219063   0.403   2.351   1.279
 6182WAT      O19064   0.435   2.272   2.956
 6182WAT     H119065   0.358   2.329   2.947
 6182WAT     H219066   0.453   2.243   2.866
 6183WAT      O19067   0.744   2.310   1.418
 6183WAT     H119068   0.689   2.354   1.483
 6183WAT     H219069   0.806   2.259   1.470
 6184WAT      O19070   1.149   2.445   3.011
 6184WAT     H119071   1.223   2.479   2.961
 6184WAT     H219072   1.073   2.462   2.956
 6185WAT      O19073   0.310   2.205   1.608
 6185WAT     H119074   0.353   2.189   1.692
 6185WAT     H219075   0.323   2.124   1.558
 6186WAT      O19076   0.562   2.108   1.333
 6186WAT     H119077   0.614   2.036   1.296
 6186WAT     H219078   0.626   2.172   1.363
 6187WAT      O19079   1.017   2.250   2.865
 6187WAT     H119080   1.058   2.266   2.950
 6187WAT     H219081   0.923   2.263   2.881
 6188WAT      O19082   1.064   1.984   3.065
 6188WAT     H119083   1.122   1.909   3.056
 6188WAT     H219084   1.081   2.037   2.988
 6189WAT      O19085   0.452   1.356   2.600
 6189WAT     H119086   0.407   1.358   2.515
 6189WAT     H219087   0.389   1.316   2.659
 6190WAT      O19088   0.493   2.245   2.662
 6190WAT     H119089   0.535   2.330   2.645
 6190WAT     H219090   0.401   2.259   2.639
 6191WAT      O19091   0.726   2.018   2.800
 6191WAT     H119092   0.738   1.959   2.874
 6191WAT     H219093   0.812   2.022   2.758
 6192WAT      O19094   0.960   2.074   2.658
 6192WAT     H119095   0.908   2.126   2.597
 6192WAT     H219096   0.995   2.137   2.721
 6193WAT      O19097   0.200   1.813   1.302
 6193WAT     H119098   0.180   1.726   1.338
 6193WAT     H219099   0.183   1.804   1.209
 6194WAT      O19100   0.278   2.876   2.773
 6194WAT     H119101   0.224   2.948   2.741
 6194WAT     H219102   0.303   2.828   2.694
 6195WAT      O19103   0.403   1.673   2.926
 6195WAT     H119104   0.462   1.642   2.995
 6195WAT     H219105   0.321   1.625   2.942
 6196WAT      O19106   0.885   1.634   2.949
 6196WAT     H119107   0.816   1.568   2.943
 6196WAT     H219108   0.957   1.590   2.994
 6197WAT      O19109   0.948   1.294   1.555
 6197WAT     H119110   0.976   1.210   1.591
 6197WAT     H219111   0.871   1.317   1.607
 6198WAT      O19112   0.563   2.999   2.799
 6198WAT     H119113   0.556   3.090   2.830
 6198WAT     H219114   0.473   2.967   2.796
 6199WAT      O19115   0.402   1.417   1.400
 6199WAT     H119116   0.367   1.349   1.342
 6199WAT     H219117   0.422   1.371   1.481
 6200WAT      O19118   0.618   2.916   1.562
 6200WAT     H119119   0.708   2.950   1.564
 6200WAT     H219120   0.621   2.844   1.499
 6201WAT      O19121   1.316   2.769   2.832
 6201WAT     H119122   1.256   2.775   2.758
 6201WAT     H219123   1.329   2.675   2.845
 6202WAT      O19124   1.440   2.543   1.366
 6202WAT     H119125   1.357   2.550   1.413
 6202WAT     H219126   1.458   2.632   1.336
 6203WAT      O19127   1.386   2.218   1.616
 6203WAT     H119128   1.462   2.275   1.627
 6203WAT     H219129   1.387   2.161   1.693
 6204WAT      O19130   1.486   2.303   2.101
 6204WAT     H119131   1.523   2.225   2.060
 6204WAT     H219132   1.550   2.372   2.083
 6205WAT      O19133   1.185   2.442   2.642
 6205WAT     H119134   1.103   2.484   2.668
 6205WAT     H219135   1.225   2.503   2.581
 6206WAT      O19136   1.391   2.247   1.332
 6206WAT     H119137   1.418   2.338   1.319
 6206WAT     H219138   1.372   2.241   1.426
 6207WAT      O19139   1.031   1.549   1.461
 6207WAT     H119140   1.073   1.531   1.377
 6207WAT     H219141   1.000   1.464   1.493
 6208WAT      O19142   1.381   2.041   1.831
 6208WAT     H119143   1.343   1.964   1.788
 6208WAT     H219144   1.308   2.079   1.880
 6209WAT      O19145   1.320   1.955   2.795
 6209WAT     H119146   1.296   1.933   2.705
 6209WAT     H219147   1.346   2.047   2.790
 6210WAT      O19148   1.163   1.478   3.072
 6210WAT     H119149   1.251   1.479   3.111
 6210WAT     H219150   1.165   1.404   3.011
 6211WAT      O19151   1.308   1.863   2.161
 6211WAT     H119152   1.360   1.814   2.098
 6211WAT     H219153   1.367   1.877   2.236
 6212WAT      O19154   1.326   1.872   2.514
 6212WAT     H119155   1.231   1.868   2.525
 6212WAT     H219156   1.344   1.963   2.490
 6213WAT      O19157   1.257   1.789   1.755
 6213WAT     H119158   1.307   1.766   1.834
 6213WAT     H219159   1.237   1.705   1.714
 6214WAT      O19160   1.400   1.653   2.009
 6214WAT     H119161   1.389   1.637   2.102
 6214WAT     H219162   1.476   1.600   1.984
 6215WAT      O19163   1.235   1.247   2.654
 6215WAT     H119164   1.298   1.308   2.691
 6215WAT     H219165   1.249   1.250   2.560
 6216WAT      O19166   1.489   1.436   1.333
 6216WAT     H119167   1.581   1.422   1.312
 6216WAT     H219168   1.487   1.444   1.428
 6217WAT      O19169   1.496   1.513   1.595
 6217WAT     H119170   1.417   1.506   1.648
 6217WAT     H219171   1.517   1.606   1.594
 6218WAT      O19172   1.190   2.917   1.995
 6218WAT     H119173   1.250   2.885   1.927
 6218WAT     H219174   1.216   2.869   2.074
 6219WAT      O19175   0.351   2.715   2.570
 6219WAT     H119176   0.327   2.742   2.481
 6219WAT     H219177   0.445   2.733   2.575
 6220WAT      O19178   0.572   1.362   2.945
 6220WAT     H119179   0.566   1.421   3.020
 6220WAT     H219180   0.666   1.351   2.931
 6221WAT      O19181   0.835   1.327   2.909
 6221WAT     H119182   0.897   1.359   2.843
 6221WAT     H219183   0.890   1.279   2.971
 6222WAT      O19184   1.477   2.917   2.650
 6222WAT     H119185   1.428   2.957   2.578
 6222WAT     H219186   1.416   2.855   2.689
 6223WAT      O19187   0.910   1.184   2.542
 6223WAT     H119188   0.822   1.217   2.522
 6223WAT     H219189   0.899   1.137   2.624
 6224WAT      O19190   1.000   1.405   2.680
 6224WAT     H119191   0.967   1.323   2.642
 6224WAT     H219192   1.095   1.400   2.668
 6225WAT      O19193   1.246   2.982   2.378
 6225WAT     H119194   1.200   3.057   2.340
 6225WAT     H219195   1.183   2.910   2.372
 6226WAT      O19196   0.289   2.813   2.295
 6226WAT     H119197   0.340   2.751   2.243
 6226WAT     H219198   0.354   2.863   2.344
 6227WAT      O19199   0.562   2.902   2.378
 6227WAT     H119200   0.591   2.876   2.290
 6227WAT     H219201   0.614   2.846   2.437
 6228WAT      O19202   0.684   1.276   2.436
 6228WAT     H119203   0.606   1.323   2.464
 6228WAT     H219204   0.655   1.185   2.425
 6229WAT      O19205   1.139   1.346   2.240
 6229WAT     H119206   1.184   1.340   2.155
 6229WAT     H219207   1.113   1.437   2.247
 6230WAT      O19208   1.326   1.309   2.041
 6230WAT     H119209   1.320   1.215   2.027
 6230WAT     H219210   1.404   1.320   2.096
 6231WAT      O19211   0.473   1.517   1.987
 6231WAT     H119212   0.392   1.480   1.953
 6231WAT     H219213   0.523   1.442   2.017
 6232WAT      O19214   0.923   1.184   2.111
 6232WAT     H119215   0.983   1.241   2.158
 6232WAT     H219216   0.849   1.240   2.088
 6233WAT      O19217   1.237   1.224   1.638
 6233WAT     H119218   1.257   1.314   1.665
 6233WAT     H219219   1.159   1.201   1.687
 6234WAT      O19220   0.275   1.332   1.847
 6234WAT     H119221   0.212   1.262   1.864
 6234WAT     H219222   0.221   1.408   1.826
 6235WAT      O19223   0.569   2.994   3.114
 6235WAT     H119224   0.662   2.970   3.119
 6235WAT     H219225   0.568   3.076   3.066
 6236WAT      O19226   1.393   2.948   1.814
 6236WAT     H119227   1.410   2.879   1.750
 6236WAT     H219228   1.323   3.001   1.775
 6237WAT      O19229   0.288   1.260   3.091
 6237WAT     H119230   0.260   1.311   3.014
 6237WAT     H219231   0.326   1.180   3.054
 6238WAT      O19232   0.177   2.987   1.570
 6238WAT     H119233   0.250   2.959   1.515
 6238WAT     H219234   0.203   2.963   1.659
 6239WAT      O19235   0.948   1.202   3.149
 6239WAT     H119236   0.937   1.234   3.238
 6239WAT     H219237   1.030   1.242   3.119
 6240WAT      O19238   1.226   2.916   3.097
 6240WAT     H119239   1.305   2.867   3.076
 6240WAT     H219240   1.255   2.984   3.158
 6241WAT      O19241   0.652   2.181   0.373
 6241WAT     H119242   0.574   2.133   0.402
 6241WAT     H219243   0.717   2.114   0.356
 6242WAT      O19244   1.054   2.622   0.251
 6242WAT     H119245   1.008   2.545   0.284
 6242WAT     H219246   1.135   2.625   0.302
 6243WAT      O19247   0.596   2.449   0.374
 6243WAT     H119248   0.589   2.355   0.358
 6243WAT     H219249   0.672   2.458   0.431
 6244WAT      O19250   0.699   1.730   0.397
 6244WAT     H119251   0.737   1.642   0.385
 6244WAT     H219252   0.689   1.763   0.307
 6245WAT      O19253   0.296   1.864   0.376
 6245WAT     H119254   0.347   1.914   0.440
 6245WAT     H219255   0.349   1.786   0.358
 6246WAT      O19256   1.506   1.681   0.746
 6246WAT     H119257   1.436   1.720   0.694
 6246WAT     H219258   1.533   1.750   0.806
 6247WAT      O19259   0.249   2.292   0.620
 6247WAT     H119260   0.216   2.354   0.685
 6247WAT     H219261   0.267   2.344   0.542
 6248WAT      O19262   1.101   1.673   0.367
 6248WAT     H119263   1.030   1.702   0.425
 6248WAT     H219264   1.137   1.754   0.331
 6249WAT      O19265   1.262   2.635   0.593
 6249WAT     H119266   1.194   2.702   0.593
 6249WAT     H219267   1.316   2.655   0.517
 6250WAT      O19268   1.408   1.618   0.406
 6250WAT     H119269   1.313   1.621   0.419
 6250WAT     H219270   1.440   1.699   0.445
 6251WAT      O19271   1.016   2.819   0.465
 6251WAT     H119272   1.017   2.779   0.378
 6251WAT     H219273   0.961   2.897   0.454
 6252WAT      O19274   0.956   2.310   0.598
 6252WAT     H119275   0.998   2.288   0.514
 6252WAT     H219276   1.028   2.335   0.655
 6253WAT      O19277   1.350   2.150   0.607
 6253WAT     H119278   1.268   2.157   0.559
 6253WAT     H219279   1.410   2.208   0.560
 6254WAT      O19280   1.047   1.828   0.701
 6254WAT     H119281   1.006   1.911   0.727
 6254WAT     H219282   0.974   1.770   0.682
 6255WAT      O19283   0.307   2.476   0.404
 6255WAT     H119284   0.277   2.415   0.336
 6255WAT     H219285   0.402   2.479   0.393
 6256WAT      O19286   1.116   2.833   0.770
 6256WAT     H119287   1.068   2.914   0.751
 6256WAT     H219288   1.048   2.768   0.785
 6257WAT      O19289   0.279   2.731   1.147
 6257WAT     H119290   0.276   2.771   1.061
 6257WAT     H219291   0.262   2.638   1.131
 6258WAT      O19292   1.474   2.809   1.277
 6258WAT     H119293   1.521   2.857   1.345
 6258WAT     H219294   1.536   2.802   1.205
 6259WAT      O19295   1.414   2.528   0.993
 6259WAT     H119296   1.427   2.504   0.901
 6259WAT     H219297   1.418   2.445   1.040
 6260WAT      O19298   0.800   2.898   0.850
 6260WAT     H119299   0.852   2.890   0.930
 6260WAT     H219300   0.716   2.933   0.879
 6261WAT      O19301   1.399   1.733   1.090
 6261WAT     H119302   1.338   1.784   1.037
 6261WAT     H219303   1.367   1.643   1.084
 6262WAT      O19304   0.606   1.617   0.836
 6262WAT     H119305   0.559   1.638   0.917
 6262WAT     H219306   0.565   1.536   0.806
 6263WAT      O19307   1.106   1.739   0.949
 6263WAT     H119308   1.021   1.710   0.981
 6263WAT     H219309   1.090   1.764   0.858
 6264WAT      O19310   0.815   1.890   1.159
 6264WAT     H119311   0.848   1.806   1.125
 6264WAT     H219312   0.894   1.942   1.174
 6265WAT      O19313   0.381   1.385   0.462
 6265WAT     H119314   0.410   1.476   0.454
 6265WAT     H219315   0.436   1.336   0.400
 6266WAT      O19316   0.400   1.933   1.115
 6266WAT     H119317   0.390   1.839   1.100
 6266WAT     H219318   0.484   1.955   1.076
 6267WAT      O19319   0.571   1.582   1.238
 6267WAT     H119320   0.502   1.563   1.301
 6267WAT     H219321   0.645   1.611   1.291
 6268WAT      O19322   0.798   1.966   0.521
 6268WAT     H119323   0.725   2.017   0.556
 6268WAT     H219324   0.758   1.885   0.491
 6269WAT      O19325   0.442   1.634   0.362
 6269WAT     H119326   0.442   1.590   0.277
 6269WAT     H219327   0.531   1.666   0.372
 6270WAT      O19328   0.844   1.512   0.462
 6270WAT     H119329   0.846   1.557   0.547
 6270WAT     H219330   0.820   1.422   0.484
 6271WAT      O19331   1.187   1.253   1.046
 6271WAT     H119332   1.220   1.180   1.099
 6271WAT     H219333   1.191   1.221   0.956
 6272WAT      O19334   0.472   2.040   0.536
 6272WAT     H119335   0.509   1.993   0.611
 6272WAT     H219336   0.453   2.127   0.570
 6273WAT      O19337   0.251   1.944   0.768
 6273WAT     H119338   0.221   2.032   0.791
 6273WAT     H219339   0.347   1.950   0.772
 6274WAT      O19340   1.180   2.264   0.407
 6274WAT     H119341   1.252   2.314   0.368
 6274WAT     H219342   1.160   2.196   0.343
 6275WAT      O19343   0.718   2.271   0.996
 6275WAT     H119344   0.711   2.179   0.970
 6275WAT     H219345   0.655   2.281   1.067
 6276WAT      O19346   0.177   2.074   1.171
 6276WAT     H119347   0.147   2.088   1.081
 6276WAT     H219348   0.254   2.018   1.162
 6277WAT      O19349   0.711   2.554   0.971
 6277WAT     H119350   0.713   2.460   0.949
 6277WAT     H219351   0.640   2.562   1.035
 6278WAT      O19352   1.332   2.218   0.905
 6278WAT     H119353   1.260   2.277   0.886
 6278WAT     H219354   1.385   2.217   0.826
 6279WAT      O19355   0.885   2.390   0.255
 6279WAT     H119356   0.920   2.331   0.189
 6279WAT     H219357   0.797   2.358   0.272
 6280WAT      O19358   0.654   2.718   0.680
 6280WAT     H119359   0.719   2.738   0.748
 6280WAT     H219360   0.691   2.642   0.635
 6281WAT      O19361   0.782   2.518   0.552
 6281WAT     H119362   0.846   2.448   0.563
 6281WAT     H219363   0.834   2.596   0.534
 6282WAT      O19364   0.959   2.598   0.872
 6282WAT     H119365   0.993   2.657   0.940
 6282WAT     H219366   0.867   2.585   0.895
 6283WAT      O19367   0.542   2.603   1.189
 6283WAT     H119368   0.510   2.531   1.244
 6283WAT     H219369   0.475   2.670   1.197
 6284WAT      O19370   0.864   1.626   0.726
 6284WAT     H119371   0.900   1.544   0.758
 6284WAT     H219372   0.778   1.632   0.767
 6285WAT      O19373   0.560   1.892   0.748
 6285WAT     H119374   0.609   1.939   0.814
 6285WAT     H219375   0.574   1.799   0.769
 6286WAT      O19376   1.280   1.513   0.832
 6286WAT     H119377   1.230   1.587   0.866
 6286WAT     H219378   1.362   1.552   0.801
 6287WAT      O19379   1.109   2.038   0.177
 6287WAT     H119380   1.015   2.039   0.194
 6287WAT     H219381   1.141   1.959   0.221
 6288WAT      O19382   1.310   2.755   0.344
 6288WAT     H119383   1.322   2.837   0.392
 6288WAT     H219384   1.396   2.734   0.310
 6289WAT      O19385   0.841   2.493   1.225
 6289WAT     H119386   0.781   2.496   1.151
 6289WAT     H219387   0.811   2.420   1.279
 6290WAT      O19388   0.984   2.866   1.086
 6290WAT     H119389   1.079   2.858   1.081
 6290WAT     H219390   0.969   2.932   1.154
 6291WAT      O19391   0.435   2.272   1.078
 6291WAT     H119392   0.358   2.329   1.070
 6291WAT     H219393   0.453   2.243   0.989
 6292WAT      O19394   1.149   2.445   1.134
 6292WAT     H119395   1.223   2.479   1.084
 6292WAT     H219396   1.073   2.462   1.079
 6293WAT      O19397   1.017   2.250   0.987
 6293WAT     H119398   1.058   2.266   1.072
 6293WAT     H219399   0.923   2.263   1.004
 6294WAT      O19400   1.064   1.984   1.188
 6294WAT     H119401   1.122   1.909   1.179
 6294WAT     H219402   1.081   2.037   1.110
 6295WAT      O19403   0.452   1.356   0.722
 6295WAT     H119404   0.407   1.358   0.638
 6295WAT     H219405   0.389   1.316   0.782
 6296WAT      O19406   0.493   2.245   0.784
 6296WAT     H119407   0.535   2.330   0.767
 6296WAT     H219408   0.401   2.259   0.761
 6297WAT      O19409   0.726   2.018   0.923
 6297WAT     H119410   0.738   1.959   0.997
 6297WAT     H219411   0.812   2.022   0.881
 6298WAT      O19412   0.960   2.074   0.780
 6298WAT     H119413   0.908   2.126   0.720
 6298WAT     H219414   0.995   2.137   0.843
 6299WAT      O19415   0.278   2.876   0.896
 6299WAT     H119416   0.224   2.948   0.864
 6299WAT     H219417   0.303   2.828   0.817
 6300WAT      O19418   0.403   1.673   1.049
 6300WAT     H119419   0.462   1.642   1.117
 6300WAT     H219420   0.321   1.625   1.064
 6301WAT      O19421   0.885   1.634   1.072
 6301WAT     H119422   0.816   1.568   1.065
 6301WAT     H219423   0.957   1.590   1.116
 6302WAT      O19424   0.563   2.999   0.922
 6302WAT     H119425   0.556   3.090   0.953
 6302WAT     H219426   0.473   2.967   0.919
 6303WAT      O19427   1.316   2.769   0.955
 6303WAT     H119428   1.256   2.775   0.880
 6303WAT     H219429   1.329   2.675   0.968
 6304WAT      O19430   1.486   2.303   0.223
 6304WAT     H119431   1.523   2.225   0.183
 6304WAT     H219432   1.550   2.372   0.205
 6305WAT      O19433   1.185   2.442   0.765
 6305WAT     H119434   1.103   2.484   0.791
 6305WAT     H219435   1.225   2.503   0.703
 6306WAT      O19436   1.320   1.955   0.917
 6306WAT     H119437   1.296   1.933   0.827
 6306WAT     H219438   1.346   2.047   0.913
 6307WAT      O19439   1.163   1.478   1.195
 6307WAT     H119440   1.251   1.479   1.233
 6307WAT     H219441   1.165   1.404   1.134
 6308WAT      O19442   1.308   1.863   0.284
 6308WAT     H119443   1.360   1.814   0.221
 6308WAT     H219444   1.367   1.877   0.358
 6309WAT      O19445   1.326   1.872   0.636
 6309WAT     H119446   1.231   1.868   0.648
 6309WAT     H219447   1.344   1.963   0.613
 6310WAT      O19448   1.235   1.247   0.777
 6310WAT     H119449   1.298   1.308   0.814
 6310WAT     H219450   1.249   1.250   0.683
 6311WAT      O19451   0.351   2.715   0.692
 6311WAT     H119452   0.327   2.742   0.603
 6311WAT     H219453   0.445   2.733   0.698
 6312WAT      O19454   0.572   1.362   1.068
 6312WAT     H119455   0.566   1.421   1.143
 6312WAT     H219456   0.666   1.351   1.053
 6313WAT      O19457   0.835   1.327   1.032
 6313WAT     H119458   0.897   1.359   0.965
 6313WAT     H219459   0.890   1.279   1.094
 6314WAT      O19460   1.477   2.917   0.772
 6314WAT     H119461   1.428   2.957   0.701
 6314WAT     H219462   1.416   2.855   0.812
 6315WAT      O19463   0.910   1.184   0.664
 6315WAT     H119464   0.822   1.217   0.644
 6315WAT     H219465   0.899   1.137   0.747
 6316WAT      O19466   1.000   1.405   0.803
 6316WAT     H119467   0.967   1.323   0.765
 6316WAT     H219468   1.095   1.400   0.790
 6317WAT      O19469   1.246   2.982   0.500
 6317WAT     H119470   1.200   3.057   0.463
 6317WAT     H219471   1.183   2.910   0.494
 6318WAT      O19472   0.289   2.813   0.418
 6318WAT     H119473   0.340   2.751   0.365
 6318WAT     H219474   0.354   2.863   0.467
 6319WAT      O19475   0.562   2.902   0.500
 6319WAT     H119476   0.591   2.876   0.413
 6319WAT     H219477   0.614   2.846   0.559
 6320WAT      O19478   0.684   1.276   0.558
 6320WAT     H119479   0.606   1.323   0.586
 6320WAT     H219480   0.655   1.185   0.547
 6321WAT      O19481   1.139   1.346   0.363
 6321WAT     H119482   1.184   1.340   0.278
 6321WAT     H219483   1.113   1.437   0.370
 6322WAT      O19484   0.923   1.184   0.233
 6322WAT     H119485   0.983   1.241   0.281
 6322WAT     H219486   0.849   1.240   0.211
 6323WAT      O19487   0.569   2.994   1.237
 6323WAT     H119488   0.662   2.970   1.241
 6323WAT     H219489   0.568   3.076   1.189
 6324WAT      O19490   0.288   1.260   1.213
 6324WAT     H119491   0.260   1.311   1.137
 6324WAT     H219492   0.326   1.180   1.177
 6325WAT      O19493   0.948   1.202   1.271
 6325WAT     H119494   0.937   1.234   1.361
 6325WAT     H219495   1.030   1.242   1.242
 6326WAT      O19496   1.226   2.916   1.219
 6326WAT     H119497   1.305   2.867   1.199
 6326WAT     H219498   1.255   2.984   1.280
 6327WAT      O19499   0.652   0.304   6.005
 6327WAT     H119500   0.574   0.256   6.034
 6327WAT     H219501   0.717   0.236   5.988
 6328WAT      O19502   1.054   0.745   5.883
 6328WAT     H119503   1.008   0.668   5.916
 6328WAT     H219504   1.135   0.747   5.934
 6329WAT      O19505   0.676   0.973   5.845
 6329WAT     H119506   0.615   1.019   5.788
 6329WAT     H219507   0.762   0.989   5.805
 6330WAT      O19508   0.596   0.572   6.006
 6330WAT     H119509   0.589   0.478   5.990
 6330WAT     H219510   0.672   0.581   6.063
 6331WAT      O19511   0.763   0.462   5.585
 6331WAT     H119512   0.701   0.508   5.528
 6331WAT     H219513   0.814   0.531   5.626
 6332WAT      O19514   1.016   0.942   6.097
 6332WAT     H119515   1.017   0.902   6.010
 6332WAT     H219516   0.961   1.019   6.087
 6333WAT      O19517   1.145   0.614   5.606
 6333WAT     H119518   1.134   0.520   5.618
 6333WAT     H219519   1.145   0.650   5.695
 6334WAT      O19520   0.700   0.177   5.542
 6334WAT     H119521   0.607   0.170   5.565
 6334WAT     H219522   0.715   0.271   5.530
 6335WAT      O19523   1.103   0.333   5.592
 6335WAT     H119524   1.041   0.299   5.527
 6335WAT     H219525   1.101   0.269   5.663
 6336WAT      O19526   0.260   0.229   5.820
 6336WAT     H119527   0.220   0.158   5.770
 6336WAT     H219528   0.269   0.195   5.909
 6337WAT      O19529   0.307   0.598   6.036
 6337WAT     H119530   0.277   0.538   5.968
 6337WAT     H219531   0.402   0.602   6.025
 6338WAT      O19532   0.920   0.257   5.293
 6338WAT     H119533   0.964   0.173   5.278
 6338WAT     H219534   0.992   0.320   5.301
 6339WAT      O19535   0.731   0.751   5.690
 6339WAT     H119536   0.775   0.825   5.648
 6339WAT     H219537   0.725   0.775   5.782
 6340WAT      O19538   0.998   1.050   5.425
 6340WAT     H119539   0.982   1.021   5.515
 6340WAT     H219540   0.981   0.972   5.372
 6341WAT      O19541   0.246   1.028   5.603
 6341WAT     H119542   0.228   0.936   5.582
 6341WAT     H219543   0.160   1.063   5.627
 6342WAT      O19544   0.968   0.800   5.281
 6342WAT     H119545   0.899   0.800   5.215
 6342WAT     H219546   1.042   0.758   5.238
 6343WAT      O19547   0.925   0.963   5.689
 6343WAT     H119548   0.970   0.885   5.720
 6343WAT     H219549   0.959   1.034   5.743
 6344WAT      O19550   1.180   0.387   6.039
 6344WAT     H119551   1.252   0.436   6.000
 6344WAT     H219552   1.160   0.319   5.975
 6345WAT      O19553   0.597   0.581   5.351
 6345WAT     H119554   0.631   0.655   5.302
 6345WAT     H219555   0.514   0.612   5.387
 6346WAT      O19556   1.327   0.780   5.503
 6346WAT     H119557   1.263   0.715   5.530
 6346WAT     H219558   1.289   0.821   5.425
 6347WAT      O19559   0.885   0.513   5.888
 6347WAT     H119560   0.920   0.453   5.822
 6347WAT     H219561   0.797   0.480   5.905
 6348WAT      O19562   0.494   0.589   5.628
 6348WAT     H119563   0.563   0.643   5.666
 6348WAT     H219564   0.415   0.643   5.632
 6349WAT      O19565   0.424   0.289   5.590
 6349WAT     H119566   0.470   0.370   5.612
 6349WAT     H219567   0.389   0.257   5.673
 6350WAT      O19568   1.166   0.669   5.157
 6350WAT     H119569   1.144   0.597   5.216
 6350WAT     H219570   1.127   0.644   5.073
 6351WAT      O19571   1.124   0.461   5.323
 6351WAT     H119572   1.096   0.507   5.402
 6351WAT     H219573   1.204   0.415   5.350
 6352WAT      O19574   0.346   0.810   5.316
 6352WAT     H119575   0.345   0.883   5.254
 6352WAT     H219576   0.254   0.785   5.325
 6353WAT      O19577   0.645   0.816   5.182
 6353WAT     H119578   0.655   0.796   5.089
 6353WAT     H219579   0.555   0.791   5.203
 6354WAT      O19580   0.509   1.068   5.652
 6354WAT     H119581   0.534   1.064   5.559
 6354WAT     H219582   0.414   1.056   5.651
 6355WAT      O19583   1.310   0.877   5.977
 6355WAT     H119584   1.322   0.960   6.024
 6355WAT     H219585   1.396   0.856   5.942
 6356WAT      O19586   0.368   1.004   5.126
 6356WAT     H119587   0.447   1.033   5.081
 6356WAT     H219588   0.316   0.961   5.058
 6357WAT      O19589   1.273   0.927   5.268
 6357WAT     H119590   1.245   0.885   5.187
 6357WAT     H219591   1.253   1.019   5.256
 6358WAT      O19592   0.420   0.526   5.113
 6358WAT     H119593   0.409   0.464   5.185
 6358WAT     H219594   0.403   0.474   5.034
 6359WAT      O19595   0.744   0.432   5.173
 6359WAT     H119596   0.689   0.477   5.237
 6359WAT     H219597   0.806   0.382   5.225
 6360WAT      O19598   0.310   0.328   5.363
 6360WAT     H119599   0.353   0.311   5.447
 6360WAT     H219600   0.323   0.247   5.313
 6361WAT      O19601   0.562   0.230   5.087
 6361WAT     H119602   0.614   0.159   5.051
 6361WAT     H219603   0.626   0.294   5.117
 6362WAT      O19604   0.618   1.039   5.316
 6362WAT     H119605   0.708   1.072   5.319
 6362WAT     H219606   0.621   0.966   5.254
 6363WAT      O19607   1.440   0.666   5.121
 6363WAT     H119608   1.357   0.672   5.168
 6363WAT     H219609   1.458   0.755   5.090
 6364WAT      O19610   1.386   0.340   5.371
 6364WAT     H119611   1.462   0.397   5.382
 6364WAT     H219612   1.387   0.283   5.448
 6365WAT      O19613   1.486   0.426   5.856
 6365WAT     H119614   1.523   0.347   5.815
 6365WAT     H219615   1.550   0.495   5.838
 6366WAT      O19616   1.391   0.370   5.087
 6366WAT     H119617   1.418   0.460   5.074
 6366WAT     H219618   1.372   0.363   5.180
 6367WAT      O19619   1.190   1.039   5.749
 6367WAT     H119620   1.250   1.007   5.682
 6367WAT     H219621   1.216   0.992   5.829
 6368WAT      O19622   1.246   1.104   6.132
 6368WAT     H119623   1.200   1.179   6.095
 6368WAT     H219624   1.183   1.032   6.127
 6369WAT      O19625   0.289   0.935   6.050
 6369WAT     H119626   0.340   0.874   5.997
 6369WAT     H219627   0.354   0.985   6.099
 6370WAT      O19628   1.393   1.071   5.569
 6370WAT     H119629   1.410   1.002   5.505
 6370WAT     H219630   1.323   1.123   5.530
 6371WAT      O19631   0.177   1.110   5.324
 6371WAT     H119632   0.250   1.081   5.270
 6371WAT     H219633   0.203   1.086   5.413
 6372WAT      O19634   0.652   0.304   4.128
 6372WAT     H119635   0.574   0.256   4.157
 6372WAT     H219636   0.717   0.236   4.111
 6373WAT      O19637   1.054   0.745   4.006
 6373WAT     H119638   1.008   0.668   4.039
 6373WAT     H219639   1.135   0.747   4.057
 6374WAT      O19640   0.676   0.973   3.968
 6374WAT     H119641   0.615   1.019   3.911
 6374WAT     H219642   0.762   0.989   3.928
 6375WAT      O19643   0.596   0.572   4.129
 6375WAT     H119644   0.589   0.478   4.113
 6375WAT     H219645   0.672   0.581   4.186
 6376WAT      O19646   0.763   0.462   3.707
 6376WAT     H119647   0.701   0.508   3.651
 6376WAT     H219648   0.814   0.531   3.749
 6377WAT      O19649   0.249   0.414   4.375
 6377WAT     H119650   0.216   0.477   4.439
 6377WAT     H219651   0.267   0.467   4.297
 6378WAT      O19652   1.262   0.758   4.348
 6378WAT     H119653   1.194   0.825   4.347
 6378WAT     H219654   1.316   0.777   4.272
 6379WAT      O19655   1.016   0.942   4.220
 6379WAT     H119656   1.017   0.902   4.133
 6379WAT     H219657   0.961   1.019   4.209
 6380WAT      O19658   1.145   0.614   3.729
 6380WAT     H119659   1.134   0.520   3.741
 6380WAT     H219660   1.145   0.650   3.817
 6381WAT      O19661   0.956   0.432   4.352
 6381WAT     H119662   0.998   0.411   4.269
 6381WAT     H219663   1.028   0.458   4.410
 6382WAT      O19664   0.700   0.177   3.664
 6382WAT     H119665   0.607   0.170   3.687
 6382WAT     H219666   0.715   0.271   3.653
 6383WAT      O19667   1.350   0.272   4.362
 6383WAT     H119668   1.268   0.279   4.314
 6383WAT     H219669   1.410   0.331   4.315
 6384WAT      O19670   1.103   0.333   3.715
 6384WAT     H119671   1.041   0.299   3.650
 6384WAT     H219672   1.101   0.269   3.785
 6385WAT      O19673   0.260   0.229   3.942
 6385WAT     H119674   0.220   0.158   3.893
 6385WAT     H219675   0.269   0.195   4.031
 6386WAT      O19676   0.307   0.598   4.159
 6386WAT     H119677   0.277   0.538   4.091
 6386WAT     H219678   0.402   0.602   4.148
 6387WAT      O19679   1.116   0.955   4.525
 6387WAT     H119680   1.068   1.036   4.506
 6387WAT     H219681   1.048   0.890   4.540
 6388WAT      O19682   0.920   0.257   3.415
 6388WAT     H119683   0.964   0.173   3.401
 6388WAT     H219684   0.992   0.320   3.424
 6389WAT      O19685   0.731   0.751   3.812
 6389WAT     H119686   0.775   0.825   3.771
 6389WAT     H219687   0.725   0.775   3.904
 6390WAT      O19688   0.279   0.853   4.902
 6390WAT     H119689   0.276   0.894   4.816
 6390WAT     H219690   0.262   0.760   4.886
 6391WAT      O19691   1.474   0.932   5.032
 6391WAT     H119692   1.521   0.979   5.100
 6391WAT     H219693   1.536   0.925   4.959
 6392WAT      O19694   1.414   0.651   4.748
 6392WAT     H119695   1.427   0.627   4.656
 6392WAT     H219696   1.418   0.568   4.795
 6393WAT      O19697   0.800   1.021   4.605
 6393WAT     H119698   0.852   1.012   4.685
 6393WAT     H219699   0.716   1.056   4.634
 6394WAT      O19700   0.998   1.050   3.548
 6394WAT     H119701   0.982   1.021   3.638
 6394WAT     H219702   0.981   0.972   3.494
 6395WAT      O19703   0.246   1.028   3.725
 6395WAT     H119704   0.228   0.936   3.704
 6395WAT     H219705   0.160   1.063   3.749
 6396WAT      O19706   0.968   0.800   3.404
 6396WAT     H119707   0.899   0.800   3.338
 6396WAT     H219708   1.042   0.758   3.361
 6397WAT      O19709   0.925   0.963   3.811
 6397WAT     H119710   0.970   0.885   3.843
 6397WAT     H219711   0.959   1.034   3.866
 6398WAT      O19712   1.180   0.387   4.162
 6398WAT     H119713   1.252   0.436   4.123
 6398WAT     H219714   1.160   0.319   4.097
 6399WAT      O19715   0.718   0.394   4.751
 6399WAT     H119716   0.711   0.302   4.725
 6399WAT     H219717   0.655   0.404   4.822
 6400WAT      O19718   0.597   0.581   3.474
 6400WAT     H119719   0.631   0.655   3.424
 6400WAT     H219720   0.514   0.612   3.510
 6401WAT      O19721   0.711   0.676   4.726
 6401WAT     H119722   0.713   0.583   4.704
 6401WAT     H219723   0.640   0.685   4.790
 6402WAT      O19724   1.332   0.340   4.660
 6402WAT     H119725   1.260   0.400   4.641
 6402WAT     H219726   1.385   0.339   4.580
 6403WAT      O19727   1.327   0.780   3.625
 6403WAT     H119728   1.263   0.715   3.653
 6403WAT     H219729   1.289   0.821   3.548
 6404WAT      O19730   0.885   0.513   4.010
 6404WAT     H119731   0.920   0.453   3.944
 6404WAT     H219732   0.797   0.480   4.027
 6405WAT      O19733   0.494   0.589   3.751
 6405WAT     H119734   0.563   0.643   3.789
 6405WAT     H219735   0.415   0.643   3.754
 6406WAT      O19736   0.424   0.289   3.712
 6406WAT     H119737   0.470   0.370   3.735
 6406WAT     H219738   0.389   0.257   3.795
 6407WAT      O19739   0.654   0.840   4.435
 6407WAT     H119740   0.719   0.861   4.503
 6407WAT     H219741   0.691   0.764   4.390
 6408WAT      O19742   0.782   0.641   4.307
 6408WAT     H119743   0.846   0.571   4.318
 6408WAT     H219744   0.834   0.719   4.289
 6409WAT      O19745   1.166   0.669   3.279
 6409WAT     H119746   1.144   0.597   3.338
 6409WAT     H219747   1.127   0.644   3.195
 6410WAT      O19748   0.959   0.721   4.627
 6410WAT     H119749   0.993   0.779   4.695
 6410WAT     H219750   0.867   0.708   4.650
 6411WAT      O19751   1.124   0.461   3.445
 6411WAT     H119752   1.096   0.507   3.524
 6411WAT     H219753   1.204   0.415   3.472
 6412WAT      O19754   0.542   0.726   4.944
 6412WAT     H119755   0.510   0.654   4.999
 6412WAT     H219756   0.475   0.793   4.951
 6413WAT      O19757   0.346   0.810   3.438
 6413WAT     H119758   0.345   0.883   3.377
 6413WAT     H219759   0.254   0.785   3.448
 6414WAT      O19760   0.645   0.816   3.305
 6414WAT     H119761   0.655   0.796   3.212
 6414WAT     H219762   0.555   0.791   3.325
 6415WAT      O19763   0.509   1.068   3.774
 6415WAT     H119764   0.534   1.064   3.682
 6415WAT     H219765   0.414   1.056   3.773
 6416WAT      O19766   1.310   0.877   4.099
 6416WAT     H119767   1.322   0.960   4.146
 6416WAT     H219768   1.396   0.856   4.064
 6417WAT      O19769   0.368   1.004   3.249
 6417WAT     H119770   0.447   1.033   3.203
 6417WAT     H219771   0.316   0.961   3.181
 6418WAT      O19772   0.841   0.616   4.980
 6418WAT     H119773   0.781   0.618   4.906
 6418WAT     H219774   0.811   0.543   5.034
 6419WAT      O19775   0.984   0.989   4.841
 6419WAT     H119776   1.079   0.980   4.836
 6419WAT     H219777   0.969   1.055   4.908
 6420WAT      O19778   1.273   0.927   3.391
 6420WAT     H119779   1.245   0.885   3.310
 6420WAT     H219780   1.253   1.019   3.379
 6421WAT      O19781   0.420   0.526   3.235
 6421WAT     H119782   0.409   0.464   3.308
 6421WAT     H219783   0.403   0.474   3.157
 6422WAT      O19784   0.435   0.394   4.833
 6422WAT     H119785   0.358   0.451   4.825
 6422WAT     H219786   0.453   0.365   4.744
 6423WAT      O19787   0.744   0.432   3.296
 6423WAT     H119788   0.689   0.477   3.360
 6423WAT     H219789   0.806   0.382   3.348
 6424WAT      O19790   1.149   0.568   4.889
 6424WAT     H119791   1.223   0.601   4.838
 6424WAT     H219792   1.073   0.584   4.833
 6425WAT      O19793   0.310   0.328   3.485
 6425WAT     H119794   0.353   0.311   3.569
 6425WAT     H219795   0.323   0.247   3.436
 6426WAT      O19796   0.562   0.230   3.210
 6426WAT     H119797   0.614   0.159   3.173
 6426WAT     H219798   0.626   0.294   3.240
 6427WAT      O19799   1.017   0.373   4.742
 6427WAT     H119800   1.058   0.388   4.827
 6427WAT     H219801   0.923   0.385   4.759
 6428WAT      O19802   0.493   0.368   4.539
 6428WAT     H119803   0.535   0.452   4.522
 6428WAT     H219804   0.401   0.382   4.516
 6429WAT      O19805   0.960   0.196   4.535
 6429WAT     H119806   0.908   0.249   4.475
 6429WAT     H219807   0.995   0.260   4.598
 6430WAT      O19808   0.278   0.998   4.651
 6430WAT     H119809   0.224   1.071   4.619
 6430WAT     H219810   0.303   0.951   4.572
 6431WAT      O19811   0.563   1.122   4.677
 6431WAT     H119812   0.556   1.212   4.707
 6431WAT     H219813   0.473   1.090   4.674
 6432WAT      O19814   0.618   1.039   3.439
 6432WAT     H119815   0.708   1.072   3.441
 6432WAT     H219816   0.621   0.966   3.376
 6433WAT      O19817   1.316   0.892   4.710
 6433WAT     H119818   1.256   0.897   4.635
 6433WAT     H219819   1.329   0.798   4.723
 6434WAT      O19820   1.440   0.666   3.243
 6434WAT     H119821   1.357   0.672   3.290
 6434WAT     H219822   1.458   0.755   3.213
 6435WAT      O19823   1.386   0.340   3.494
 6435WAT     H119824   1.462   0.397   3.504
 6435WAT     H219825   1.387   0.283   3.571
 6436WAT      O19826   1.486   0.426   3.978
 6436WAT     H119827   1.523   0.347   3.937
 6436WAT     H219828   1.550   0.495   3.960
 6437WAT      O19829   1.185   0.564   4.519
 6437WAT     H119830   1.103   0.607   4.546
 6437WAT     H219831   1.225   0.625   4.458
 6438WAT      O19832   1.391   0.370   3.209
 6438WAT     H119833   1.418   0.460   3.197
 6438WAT     H219834   1.372   0.363   3.303
 6439WAT      O19835   1.190   1.039   3.872
 6439WAT     H119836   1.250   1.007   3.804
 6439WAT     H219837   1.216   0.992   3.951
 6440WAT      O19838   0.351   0.838   4.447
 6440WAT     H119839   0.327   0.865   4.358
 6440WAT     H219840   0.445   0.855   4.453
 6441WAT      O19841   1.477   1.040   4.527
 6441WAT     H119842   1.428   1.080   4.455
 6441WAT     H219843   1.416   0.977   4.567
 6442WAT      O19844   1.246   1.104   4.255
 6442WAT     H119845   1.200   1.179   4.218
 6442WAT     H219846   1.183   1.032   4.249
 6443WAT      O19847   0.289   0.935   4.173
 6443WAT     H119848   0.340   0.874   4.120
 6443WAT     H219849   0.354   0.985   4.222
 6444WAT      O19850   0.562   1.024   4.255
 6444WAT     H119851   0.591   0.999   4.168
 6444WAT     H219852   0.614   0.969   4.314
 6445WAT      O19853   0.569   1.116   4.992
 6445WAT     H119854   0.662   1.093   4.996
 6445WAT     H219855   0.568   1.199   4.944
 6446WAT      O19856   1.393   1.071   3.692
 6446WAT     H119857   1.410   1.002   3.627
 6446WAT     H219858   1.323   1.123   3.652
 6447WAT      O19859   0.177   1.110   3.447
 6447WAT     H119860   0.250   1.081   3.392
 6447WAT     H219861   0.203   1.086   3.536
 6448WAT      O19862   1.226   1.039   4.974
 6448WAT     H119863   1.305   0.990   4.954
 6448WAT     H219864   1.255   1.107   5.035
 6449WAT      O19865   0.652   0.304   2.251
 6449WAT     H119866   0.574   0.256   2.280
 6449WAT     H219867   0.717   0.236   2.233
 6450WAT      O19868   1.054   0.745   2.129
 6450WAT     H119869   1.008   0.668   2.161
 6450WAT     H219870   1.135   0.747   2.179
 6451WAT      O19871   0.676   0.973   2.091
 6451WAT     H119872   0.615   1.019   2.034
 6451WAT     H219873   0.762   0.989   2.050
 6452WAT      O19874   0.596   0.572   2.251
 6452WAT     H119875   0.589   0.478   2.235
 6452WAT     H219876   0.672   0.581   2.308
 6453WAT      O19877   0.763   0.462   1.830
 6453WAT     H119878   0.701   0.508   1.774
 6453WAT     H219879   0.814   0.531   1.872
 6454WAT      O19880   0.249   0.414   2.498
 6454WAT     H119881   0.216   0.477   2.562
 6454WAT     H219882   0.267   0.467   2.420
 6455WAT      O19883   1.262   0.758   2.471
 6455WAT     H119884   1.194   0.825   2.470
 6455WAT     H219885   1.316   0.777   2.394
 6456WAT      O19886   1.016   0.942   2.342
 6456WAT     H119887   1.017   0.902   2.255
 6456WAT     H219888   0.961   1.019   2.332
 6457WAT      O19889   1.145   0.614   1.851
 6457WAT     H119890   1.134   0.520   1.864
 6457WAT     H219891   1.145   0.650   1.940
 6458WAT      O19892   0.956   0.432   2.475
 6458WAT     H119893   0.998   0.411   2.392
 6458WAT     H219894   1.028   0.458   2.532
 6459WAT      O19895   0.700   0.177   1.787
 6459WAT     H119896   0.607   0.170   1.810
 6459WAT     H219897   0.715   0.271   1.775
 6460WAT      O19898   1.350   0.272   2.484
 6460WAT     H119899   1.268   0.279   2.437
 6460WAT     H219900   1.410   0.331   2.437
 6461WAT      O19901   1.103   0.333   1.837
 6461WAT     H119902   1.041   0.299   1.772
 6461WAT     H219903   1.101   0.269   1.908
 6462WAT      O19904   0.260   0.229   2.065
 6462WAT     H119905   0.220   0.158   2.015
 6462WAT     H219906   0.269   0.195   2.154
 6463WAT      O19907   0.307   0.598   2.281
 6463WAT     H119908   0.277   0.538   2.213
 6463WAT     H219909   0.402   0.602   2.270
 6464WAT      O19910   1.116   0.955   2.648
 6464WAT     H119911   1.068   1.036   2.628
 6464WAT     H219912   1.048   0.890   2.663
 6465WAT      O19913   0.920   0.257   1.538
 6465WAT     H119914   0.964   0.173   1.523
 6465WAT     H219915   0.992   0.320   1.546
 6466WAT      O19916   0.731   0.751   1.935
 6466WAT     H119917   0.775   0.825   1.893
 6466WAT     H219918   0.725   0.775   2.027
 6467WAT      O19919   0.279   0.853   3.025
 6467WAT     H119920   0.276   0.894   2.938
 6467WAT     H219921   0.262   0.760   3.009
 6468WAT      O19922   1.474   0.932   3.154
 6468WAT     H119923   1.521   0.979   3.222
 6468WAT     H219924   1.536   0.925   3.082
 6469WAT      O19925   1.414   0.651   2.870
 6469WAT     H119926   1.427   0.627   2.779
 6469WAT     H219927   1.418   0.568   2.918
 6470WAT      O19928   0.800   1.021   2.727
 6470WAT     H119929   0.852   1.012   2.808
 6470WAT     H219930   0.716   1.056   2.757
 6471WAT      O19931   0.998   1.050   1.670
 6471WAT     H119932   0.982   1.021   1.760
 6471WAT     H219933   0.981   0.972   1.617
 6472WAT      O19934   0.246   1.028   1.848
 6472WAT     H119935   0.228   0.936   1.827
 6472WAT     H219936   0.160   1.063   1.872
 6473WAT      O19937   0.968   0.800   1.526
 6473WAT     H119938   0.899   0.800   1.460
 6473WAT     H219939   1.042   0.758   1.483
 6474WAT      O19940   0.925   0.963   1.934
 6474WAT     H119941   0.970   0.885   1.965
 6474WAT     H219942   0.959   1.034   1.988
 6475WAT      O19943   1.180   0.387   2.284
 6475WAT     H119944   1.252   0.436   2.245
 6475WAT     H219945   1.160   0.319   2.220
 6476WAT      O19946   0.718   0.394   2.873
 6476WAT     H119947   0.711   0.302   2.848
 6476WAT     H219948   0.655   0.404   2.945
 6477WAT      O19949   0.597   0.581   1.596
 6477WAT     H119950   0.631   0.655   1.547
 6477WAT     H219951   0.514   0.612   1.633
 6478WAT      O19952   0.711   0.676   2.848
 6478WAT     H119953   0.713   0.583   2.826
 6478WAT     H219954   0.640   0.685   2.912
 6479WAT      O19955   1.332   0.340   2.783
 6479WAT     H119956   1.260   0.400   2.763
 6479WAT     H219957   1.385   0.339   2.703
 6480WAT      O19958   1.327   0.780   1.748
 6480WAT     H119959   1.263   0.715   1.775
 6480WAT     H219960   1.289   0.821   1.670
 6481WAT      O19961   0.885   0.513   2.133
 6481WAT     H119962   0.920   0.453   2.067
 6481WAT     H219963   0.797   0.480   2.150
 6482WAT      O19964   0.494   0.589   1.873
 6482WAT     H119965   0.563   0.643   1.912
 6482WAT     H219966   0.415   0.643   1.877
 6483WAT      O19967   0.424   0.289   1.835
 6483WAT     H119968   0.470   0.370   1.857
 6483WAT     H219969   0.389   0.257   1.918
 6484WAT      O19970   0.654   0.840   2.558
 6484WAT     H119971   0.719   0.861   2.625
 6484WAT     H219972   0.691   0.764   2.512
 6485WAT      O19973   0.782   0.641   2.429
 6485WAT     H119974   0.846   0.571   2.441
 6485WAT     H219975   0.834   0.719   2.411
 6486WAT      O19976   1.166   0.669   1.402
 6486WAT     H119977   1.144   0.597   1.461
 6486WAT     H219978   1.127   0.644   1.318
 6487WAT      O19979   0.959   0.721   2.750
 6487WAT     H119980   0.993   0.779   2.818
 6487WAT     H219981   0.867   0.708   2.773
 6488WAT      O19982   1.124   0.461   1.568
 6488WAT     H119983   1.096   0.507   1.647
 6488WAT     H219984   1.204   0.415   1.595
 6489WAT      O19985   0.542   0.726   3.067
 6489WAT     H119986   0.510   0.654   3.121
 6489WAT     H219987   0.475   0.793   3.074
 6490WAT      O19988   0.346   0.810   1.561
 6490WAT     H119989   0.345   0.883   1.499
 6490WAT     H219990   0.254   0.785   1.570
 6491WAT      O19991   0.645   0.816   1.427
 6491WAT     H119992   0.655   0.796   1.334
 6491WAT     H219993   0.555   0.791   1.448
 6492WAT      O19994   0.509   1.068   1.897
 6492WAT     H119995   0.534   1.064   1.804
 6492WAT     H219996   0.414   1.056   1.896
 6493WAT      O19997   1.310   0.877   2.222
 6493WAT     H119998   1.322   0.960   2.269
 6493WAT     H219999   1.396   0.856   2.187
 6494WAT      O20000   0.368   1.004   1.371
 6494WAT     H120001   0.447   1.033   1.326
 6494WAT     H220002   0.316   0.961   1.303
 6495WAT      O20003   0.841   0.616   3.103
 6495WAT     H120004   0.781   0.618   3.029
 6495WAT     H220005   0.811   0.543   3.156
 6496WAT      O20006   0.984   0.989   2.964
 6496WAT     H120007   1.079   0.980   2.959
 6496WAT     H220008   0.969   1.055   3.031
 6497WAT      O20009   1.273   0.927   1.514
 6497WAT     H120010   1.245   0.885   1.432
 6497WAT     H220011   1.253   1.019   1.502
 6498WAT      O20012   0.420   0.526   1.358
 6498WAT     H120013   0.409   0.464   1.430
 6498WAT     H220014   0.403   0.474   1.279
 6499WAT      O20015   0.435   0.394   2.956
 6499WAT     H120016   0.358   0.451   2.947
 6499WAT     H220017   0.453   0.365   2.866
 6500WAT      O20018   0.744   0.432   1.418
 6500WAT     H120019   0.689   0.477   1.483
 6500WAT     H220020   0.806   0.382   1.470
 6501WAT      O20021   1.149   0.568   3.011
 6501WAT     H120022   1.223   0.601   2.961
 6501WAT     H220023   1.073   0.584   2.956
 6502WAT      O20024   0.310   0.328   1.608
 6502WAT     H120025   0.353   0.311   1.692
 6502WAT     H220026   0.323   0.247   1.558
 6503WAT      O20027   0.562   0.230   1.333
 6503WAT     H120028   0.614   0.159   1.296
 6503WAT     H220029   0.626   0.294   1.363
 6504WAT      O20030   1.017   0.373   2.865
 6504WAT     H120031   1.058   0.388   2.950
 6504WAT     H220032   0.923   0.385   2.881
 6505WAT      O20033   0.493   0.368   2.662
 6505WAT     H120034   0.535   0.452   2.645
 6505WAT     H220035   0.401   0.382   2.639
 6506WAT      O20036   0.960   0.196   2.658
 6506WAT     H120037   0.908   0.249   2.597
 6506WAT     H220038   0.995   0.260   2.721
 6507WAT      O20039   0.278   0.998   2.773
 6507WAT     H120040   0.224   1.071   2.741
 6507WAT     H220041   0.303   0.951   2.694
 6508WAT      O20042   0.563   1.122   2.799
 6508WAT     H120043   0.556   1.212   2.830
 6508WAT     H220044   0.473   1.090   2.796
 6509WAT      O20045   0.618   1.039   1.562
 6509WAT     H120046   0.708   1.072   1.564
 6509WAT     H220047   0.621   0.966   1.499
 6510WAT      O20048   1.316   0.892   2.832
 6510WAT     H120049   1.256   0.897   2.758
 6510WAT     H220050   1.329   0.798   2.845
 6511WAT      O20051   1.440   0.666   1.366
 6511WAT     H120052   1.357   0.672   1.413
 6511WAT     H220053   1.458   0.755   1.336
 6512WAT      O20054   1.386   0.340   1.616
 6512WAT     H120055   1.462   0.397   1.627
 6512WAT     H220056   1.387   0.283   1.693
 6513WAT      O20057   1.486   0.426   2.101
 6513WAT     H120058   1.523   0.347   2.060
 6513WAT     H220059   1.550   0.495   2.083
 6514WAT      O20060   1.185   0.564   2.642
 6514WAT     H120061   1.103   0.607   2.668
 6514WAT     H220062   1.225   0.625   2.581
 6515WAT      O20063   1.391   0.370   1.332
 6515WAT     H120064   1.418   0.460   1.319
 6515WAT     H220065   1.372   0.363   1.426
 6516WAT      O20066   1.190   1.039   1.995
 6516WAT     H120067   1.250   1.007   1.927
 6516WAT     H220068   1.216   0.992   2.074
 6517WAT      O20069   0.351   0.838   2.570
 6517WAT     H120070   0.327   0.865   2.481
 6517WAT     H220071   0.445   0.855   2.575
 6518WAT      O20072   1.477   1.040   2.650
 6518WAT     H120073   1.428   1.080   2.578
 6518WAT     H220074   1.416   0.977   2.689
 6519WAT      O20075   1.246   1.104   2.378
 6519WAT     H120076   1.200   1.179   2.340
 6519WAT     H220077   1.183   1.032   2.372
 6520WAT      O20078   0.289   0.935   2.295
 6520WAT     H120079   0.340   0.874   2.243
 6520WAT     H220080   0.354   0.985   2.344
 6521WAT      O20081   0.562   1.024   2.378
 6521WAT     H120082   0.591   0.999   2.290
 6521WAT     H220083   0.614   0.969   2.437
 6522WAT      O20084   0.569   1.116   3.114
 6522WAT     H120085   0.662   1.093   3.119
 6522WAT     H220086   0.568   1.199   3.066
 6523WAT      O20087   1.393   1.071   1.814
 6523WAT     H120088   1.410   1.002   1.750
 6523WAT     H220089   1.323   1.123   1.775
 6524WAT      O20090   0.177   1.110   1.570
 6524WAT     H120091   0.250   1.081   1.515
 6524WAT     H220092   0.203   1.086   1.659
 6525WAT      O20093   1.226   1.039   3.097
 6525WAT     H120094   1.305   0.990   3.076
 6525WAT     H220095   1.255   1.107   3.158
 6526WAT      O20096   0.652   0.304   0.373
 6526WAT     H120097   0.574   0.256   0.402
 6526WAT     H220098   0.717   0.236   0.356
 6527WAT      O20099   1.054   0.745   0.251
 6527WAT     H120100   1.008   0.668   0.284
 6527WAT     H220101   1.135   0.747   0.302
 6528WAT      O20102   0.596   0.572   0.374
 6528WAT     H120103   0.589   0.478   0.358
 6528WAT     H220104   0.672   0.581   0.431
 6529WAT      O20105   0.249   0.414   0.620
 6529WAT     H120106   0.216   0.477   0.685
 6529WAT     H220107   0.267   0.467   0.542
 6530WAT      O20108   1.262   0.758   0.593
 6530WAT     H120109   1.194   0.825   0.593
 6530WAT     H220110   1.316   0.777   0.517
 6531WAT      O20111   1.016   0.942   0.465
 6531WAT     H120112   1.017   0.902   0.378
 6531WAT     H220113   0.961   1.019   0.454
 6532WAT      O20114   0.956   0.432   0.598
 6532WAT     H120115   0.998   0.411   0.514
 6532WAT     H220116   1.028   0.458   0.655
 6533WAT      O20117   1.350   0.272   0.607
 6533WAT     H120118   1.268   0.279   0.559
 6533WAT     H220119   1.410   0.331   0.560
 6534WAT      O20120   0.307   0.598   0.404
 6534WAT     H120121   0.277   0.538   0.336
 6534WAT     H220122   0.402   0.602   0.393
 6535WAT      O20123   1.116   0.955   0.770
 6535WAT     H120124   1.068   1.036   0.751
 6535WAT     H220125   1.048   0.890   0.785
 6536WAT      O20126   0.279   0.853   1.147
 6536WAT     H120127   0.276   0.894   1.061
 6536WAT     H220128   0.262   0.760   1.131
 6537WAT      O20129   1.474   0.932   1.277
 6537WAT     H120130   1.521   0.979   1.345
 6537WAT     H220131   1.536   0.925   1.205
 6538WAT      O20132   1.414   0.651   0.993
 6538WAT     H120133   1.427   0.627   0.901
 6538WAT     H220134   1.418   0.568   1.040
 6539WAT      O20135   0.800   1.021   0.850
 6539WAT     H120136   0.852   1.012   0.930
 6539WAT     H220137   0.716   1.056   0.879
 6540WAT      O20138   1.180   0.387   0.407
 6540WAT     H120139   1.252   0.436   0.368
 6540WAT     H220140   1.160   0.319   0.343
 6541WAT      O20141   0.718   0.394   0.996
 6541WAT     H120142   0.711   0.302   0.970
 6541WAT     H220143   0.655   0.404   1.067
 6542WAT      O20144   0.711   0.676   0.971
 6542WAT     H120145   0.713   0.583   0.949
 6542WAT     H220146   0.640   0.685   1.035
 6543WAT      O20147   1.332   0.340   0.905
 6543WAT     H120148   1.260   0.400   0.886
 6543WAT     H220149   1.385   0.339   0.826
 6544WAT      O20150   0.885   0.513   0.255
 6544WAT     H120151   0.920   0.453   0.189
 6544WAT     H220152   0.797   0.480   0.272
 6545WAT      O20153   0.654   0.840   0.680
 6545WAT     H120154   0.719   0.861   0.748
 6545WAT     H220155   0.691   0.764   0.635
 6546WAT      O20156   0.782   0.641   0.552
 6546WAT     H120157   0.846   0.571   0.563
 6546WAT     H220158   0.834   0.719   0.534
 6547WAT      O20159   0.959   0.721   0.872
 6547WAT     H120160   0.993   0.779   0.940
 6547WAT     H220161   0.867   0.708   0.895
 6548WAT      O20162   0.542   0.726   1.189
 6548WAT     H120163   0.510   0.654   1.244
 6548WAT     H220164   0.475   0.793   1.197
 6549WAT      O20165   1.310   0.877   0.344
 6549WAT     H120166   1.322   0.960   0.392
 6549WAT     H220167   1.396   0.856   0.310
 6550WAT      O20168   0.841   0.616   1.225
 6550WAT     H120169   0.781   0.618   1.151
 6550WAT     H220170   0.811   0.543   1.279
 6551WAT      O20171   0.984   0.989   1.086
 6551WAT     H120172   1.079   0.980   1.081
 6551WAT     H220173   0.969   1.055   1.154
 6552WAT      O20174   0.435   0.394   1.078
 6552WAT     H120175   0.358   0.451   1.070
 6552WAT     H220176   0.453   0.365   0.989
 6553WAT      O20177   1.149   0.568   1.134
 6553WAT     H120178   1.223   0.601   1.084
 6553WAT     H220179   1.073   0.584   1.079
 6554WAT      O20180   1.017   0.373   0.987
 6554WAT     H120181   1.058   0.388   1.072
 6554WAT     H220182   0.923   0.385   1.004
 6555WAT      O20183   0.493   0.368   0.784
 6555WAT     H120184   0.535   0.452   0.767
 6555WAT     H220185   0.401   0.382   0.761
 6556WAT      O20186   0.960   0.196   0.780
 6556WAT     H120187   0.908   0.249   0.720
 6556WAT     H220188   0.995   0.260   0.843
 6557WAT      O20189   0.278   0.998   0.896
 6557WAT     H120190   0.224   1.071   0.864
 6557WAT     H220191   0.303   0.951   0.817
 6558WAT      O20192   0.563   1.122   0.922
 6558WAT     H120193   0.556   1.212   0.953
 6558WAT     H220194   0.473   1.090   0.919
 6559WAT      O20195   1.316   0.892   0.955
 6559WAT     H120196   1.256   0.897   0.880
 6559WAT     H220197   1.329   0.798   0.968
 6560WAT      O20198   1.486   0.426   0.223
 6560WAT     H120199   1.523   0.347   0.183
 6560WAT     H220200   1.550   0.495   0.205
 6561WAT      O20201   1.185   0.564   0.765
 6561WAT     H120202   1.103   0.607   0.791
 6561WAT     H220203   1.225   0.625   0.703
 6562WAT      O20204   0.351   0.838   0.692
 6562WAT     H120205   0.327   0.865   0.603
 6562WAT     H220206   0.445   0.855   0.698
 6563WAT      O20207   1.477   1.040   0.772
 6563WAT     H120208   1.428   1.080   0.701
 6563WAT     H220209   1.416   0.977   0.812
 6564WAT      O20210   1.246   1.104   0.500
 6564WAT     H120211   1.200   1.179   0.463
 6564WAT     H220212   1.183   1.032   0.494
 6565WAT      O20213   0.289   0.935   0.418
 6565WAT     H120214   0.340   0.874   0.365
 6565WAT     H220215   0.354   0.985   0.467
 6566WAT      O20216   0.562   1.024   0.500
 6566WAT     H120217   0.591   0.999   0.413
 6566WAT     H220218   0.614   0.969   0.559
 6567WAT      O20219   0.569   1.116   1.237
 6567WAT     H120220   0.662   1.093   1.241
 6567WAT     H220221   0.568   1.199   1.189
 6568WAT      O20222   1.226   1.039   1.219
 6568WAT     H120223   1.305   0.990   1.199
 6568WAT     H220224   1.255   1.107   1.280
   6.76829   6.04025   6.30930
