default_name
 20224
  44.1269747  35.3488523  37.1264839  44.8189747  35.5848523  36.3184839
  44.5509747  34.8848523  38.0164839  39.5589747  39.4028523  38.0324839
  40.3909747  38.5688523  38.3494839  40.1329747  37.0858523  38.5834839
  39.3849747  36.9718523  39.3684839  41.4879747  36.5008523  39.0584839
  41.8049747  35.3038523  38.1214839  42.8179747  35.6248523  37.0334839
  40.4359747  34.9508523  37.5064839  39.7169747  36.3038523  37.3194839
  38.2039747  36.3458523  37.1104839  41.3959747  36.1608523  40.0984839
  41.7419747  38.7998523  38.5844839  42.3059747  40.1668523  38.6334839
  42.5359747  40.8608523  37.2654839  42.8619747  39.9668523  36.0384839
  44.0199747  38.9598523  36.1944839  45.1399747  39.6048523  36.8184839
  46.1439747  38.7098523  37.3504839  46.7449747  39.3818523  38.6114839
  45.7629747  39.4248523  39.6534839  48.0179747  38.6368523  39.1104839
  48.7739747  39.4018523  40.2194839  47.9989747  39.4318523  41.4194839
  48.9379747  38.4798523  38.0094839  48.4299747  37.7148523  36.9084839
  49.4349747  37.5978523  35.9204839  47.2449747  38.4808523  36.2884839
  46.7369747  37.7378523  35.1724839  42.4599747  37.6818523  39.0154839
  43.6359747  37.6668523  39.3434839  42.1759747  34.4588523  38.7184839
  42.4249747  36.0888523  36.1294839  39.8939747  34.3308523  38.2314839
  40.5389747  34.3918523  36.5674839  40.1779747  36.8028523  36.4554839
  37.8409747  37.3718523  37.0344839  43.2699747  40.1238523  39.1534839
  41.6479747  40.7958523  39.2474839  41.6259747  41.4228523  37.0214839
  43.3259747  41.6118523  37.3874839  41.9599747  39.4108523  35.7554839
  43.0899747  40.6238523  35.1904839  44.2839747  38.5608523  35.2094839
  43.6779747  38.1218523  36.8044839  45.7099747  37.7418523  37.6414839
  47.0419747  40.4058523  38.3424839  45.0839747  38.7318523  39.4794839
  47.7379747  37.6478523  39.4984839  49.7339747  38.9038523  40.4064839
  48.9909747  40.4208523  39.8744839  47.0719747  39.6018523  41.1474839
  48.1149747  36.7178523  37.2464839  48.9129747  37.3868523  35.1224839
  47.6249747  39.4618523  35.9664839  46.0189747  38.2808523  34.7944839
  33.7019747  33.1298523  39.7414839  34.8689747  33.3418523  39.4594839
  35.6719747  32.6458523  38.3634839  35.6969747  31.5638523  38.5464839
  37.1009747  33.2508523  38.4634839  37.4339747  33.8588523  37.0704839
  37.2729747  35.3718523  37.0234839  36.4239747  33.1958523  36.1164839
  35.1479747  32.9738523  36.9494839  34.1889747  31.9358523  36.3924839
  37.8229747  32.4688523  38.7304839  35.7069747  34.2698523  40.0684839
  35.2649747  35.1138523  41.1984839  34.4319747  36.3538523  40.7874839
  35.0129747  37.2508523  39.6624839  36.4259747  37.8328523  39.8884839
  36.5389747  38.2858523  41.2434839  37.8009747  38.9008523  41.5784839
  38.5679747  37.9798523  42.5634839  39.0679747  36.8308523  41.8704839
  39.7579747  38.7298523  43.2324839  40.4159747  37.9308523  44.3794839
  41.0639747  36.7648523  43.8634839  39.2829747  39.9678523  43.8024839
  38.7249747  40.8878523  42.8534839  38.3299747  42.0678523  43.5224839
  37.4619747  40.2478523  42.2484839  36.8849747  41.1338523  41.2834839
  37.0249747  34.2438523  39.6254839  37.9579747  34.8558523  40.1204839
  38.4319747  33.5548523  36.7454839  36.2409747  35.6898523  36.8844839
  36.8249747  32.2298523  35.7844839  36.2339747  33.8078523  35.2274839
  34.6089747  33.9268523  37.0234839  33.4399747  31.5868523  37.1044839
  36.1459747  35.4538523  41.7564839  34.6679747  34.4968523  41.8824839
  33.4449747  36.0058523  40.4574839  34.2509747  36.9638523  41.6804839
  35.0149747  36.6878523  38.7234839  34.3199747  38.0878523  39.5084839
  36.5929747  38.6578523  39.1834839  37.1729747  37.0668523  39.6784839
  38.4189747  39.0948523  40.6884839  37.8719747  37.6758523  43.3594839
  38.3279747  36.3668523  41.4214839  40.5259747  38.9468523  42.4774839
  41.1479747  38.5718523  44.8894839  39.6509747  37.6538523  45.1164839
  40.4919747  36.4308523  43.1414839  39.4559747  41.1238523  42.0684839
  37.6779747  42.4468523  42.9004839  36.7599747  40.0598523  43.0744839
  36.1899747  40.6228523  40.8224839  32.4979747  31.2478523  29.9264839
  32.4999747  31.4048523  31.1344839  32.5419747  30.3098523  32.1924839
  31.8079747  29.5248523  31.9704839  32.2189747  31.0218523  33.5354839
  33.2089747  30.4488523  34.5964839  34.1909747  31.4718523  35.1314839
  33.9689747  29.3168523  33.8714839  33.9539747  29.7258523  32.3894839
  34.3369747  28.6658523  31.3744839  31.1779747  30.8278523  33.8234839
  32.4969747  32.6178523  31.8104839  32.5129747  33.9168523  31.1034839
  33.8569747  34.2678523  30.4194839  35.1539747  33.9258523  31.1994839
  35.2949747  34.5428523  32.6064839  35.0239747  35.9488523  32.5254839
  35.2649747  36.7018523  33.7354839  33.9759747  36.7718523  34.6004839
  33.7269747  35.5068523  35.2214839  34.1119747  37.8548523  35.7124839
  32.8029747  38.1028523  36.4934839  32.5279747  36.9988523  37.3594839
  34.4959747  39.1088523  35.1144839  35.7729747  39.0878523  34.4614839
  36.0479747  40.3758523  33.9474839  35.6909747  38.1108523  33.2724839
  36.9649747  38.0248523  32.6244839  32.3479747  32.5158523  33.1934839
  32.2809747  33.4568523  33.9694839  32.6379747  30.0248523  35.4334839
  34.9219747  31.8298523  34.4074839  33.4249747  28.3748523  34.0144839
  34.9929747  29.1908523  34.2474839  34.6759747  30.5478523  32.2804839
  34.5519747  29.0698523  30.3844839  32.2779747  34.7118523  31.8224839
  31.7149747  33.9168523  30.3504839  33.8989747  33.7318523  29.4634839
  33.8539747  35.3348523  30.1644839  35.2489747  32.8368523  31.2844839
  36.0089747  34.2538523  30.5954839  36.3189747  34.3688523  32.9614839
  34.6099747  34.0498523  33.2994839  36.0839747  36.2688523  34.3264839
  33.1349747  37.0598523  33.9524839  33.2469747  34.9138523  34.5964839
  34.8849747  37.5498523  36.4284839  32.9099747  39.0218523  37.0854839
  31.9779747  38.2608523  35.7874839  32.6659747  36.1858523  36.8314839
  36.5609747  38.7848523  35.1634839  36.7429747  40.1978523  33.2854839
  34.9259747  38.4988523  32.5834839  36.8729747  37.3308523  31.9424839
  34.1419747  22.5528523  32.9434839  34.7689747  23.4898523  32.4794839
  34.7049747  23.9918523  31.0394839  35.0269747  23.1938523  30.3684839
  35.7189747  25.1608523  30.9784839  34.9319747  26.3998523  30.4874839
  34.4679747  27.3458523  31.5824839  33.7189747  25.7908523  29.7704839
  33.3329747  24.5378523  30.5844839  32.4989747  23.4408523  29.9154839
  36.5199747  24.9098523  30.2684839  35.7179747  24.2538523  33.1554839
  36.3319747  23.7798523  34.4174839  35.5179747  24.0258523  35.7114839
  34.7799747  25.3828523  35.8534839  35.5939747  26.6598523  35.5584839
  36.9179747  26.5448523  36.1074839  37.8659747  27.5208523  35.6134839
  39.2689747  26.8558523  35.5504839  39.2949747  25.8458523  34.5374839
  40.3939747  27.9008523  35.2734839  41.8139747  27.3188523  35.4474839
  42.1099747  26.4118523  34.3834839  40.2719747  29.0098523  36.1934839
  39.0169747  29.6968523  36.1204839  38.9989747  30.7768523  37.0254839
  37.9209747  28.7218523  36.5834839  36.6679747  29.4138523  36.6594839
  36.3169747  25.2498523  32.3794839  37.1859747  26.0278523  32.7434839
  35.5449747  26.9558523  29.7634839  34.2569747  26.8968523  32.5494839
  34.0599747  25.5038523  28.7694839  32.8909747  26.5048523  29.6774839
  32.7929747  24.8798523  31.4774839  32.3499747  22.5908523  30.5814839
  37.3069747  24.2628523  34.5334839  36.5289747  22.7038523  34.3304839
  34.7669747  23.2308523  35.7954839  36.1909747  23.8938523  36.5674839
  33.9029747  25.3768523  35.1944839  34.3899747  25.4498523  36.8764839
  35.0619747  27.5208523  35.9764839  35.6399747  26.7998523  34.4744839
  37.5989747  27.8708523  34.6064839  39.4729747  26.3958523  36.5284839
  38.5679747  26.0078523  33.8924839  40.2999747  28.2718523  34.2434839
  42.5409747  28.1418523  35.4474839  41.8869747  26.8128523  36.4194839
  41.3159747  25.8498523  34.2604839  38.8259747  30.0518523  35.0984839
  38.0459747  30.7788523  37.2444839  38.2149747  28.3458523  37.5754839
  36.0139747  28.7398523  36.9304839  32.8069747  21.2718523  24.1614839
  33.0509747  22.0848523  25.0364839  32.3439747  23.4198523  25.2534839
  32.4799747  24.0378523  24.3634839  33.0669747  24.0698523  26.4644839
  31.9789747  24.3498523  27.5354839  31.9639747  23.3418523  28.6774839
  30.6689747  24.3308523  26.7374839  30.8429747  23.3058523  25.6034839
  29.9609747  23.4378523  24.3574839  33.5439747  25.0058523  26.1464839
  34.0429747  21.9728523  26.0044839  35.0519747  20.8908523  25.9774839
  34.5399747  19.5008523  26.4304839  33.5239747  19.4668523  27.6004839
  33.9569747  20.1478523  28.9144839  35.2719747  19.6998523  29.2774839
  35.7139747  20.1968523  30.5574839  37.1219747  20.8198523  30.4044839
  37.0589747  21.9748523  29.5634839  37.6699747  21.2118523  31.8064839
  39.1029747  21.7798523  31.7824839  39.0789747  23.1038523  31.2434839
  37.6559747  20.0508523  32.6634839  36.3489747  19.4988523  32.8964839
  36.4599747  18.3758523  33.7474839  35.7739747  19.0158523  31.5484839
  34.4669747  18.4648523  31.7424839  34.1549747  23.0668523  26.8584839
  34.9939747  23.2048523  27.7354839  32.0699747  25.3688523  27.9164839
  31.4259747  22.4248523  28.4384839  30.5719747  25.3368523  26.3224839
  29.7919747  24.1248523  27.3604839  30.6769747  22.3078523  26.0344839
  30.1949747  22.6658523  23.6234839  35.8869747  21.1758523  26.6284839
  35.4559747  20.8088523  24.9614839  34.0609747  19.0228523  25.5674839
  35.4049747  18.8728523  26.6774839  32.5819747  19.9198523  27.2694839
  33.2909747  18.4168523  27.8184839  33.2289747  19.9008523  29.6984839
  33.9479747  21.2348523  28.7934839  35.0269747  20.9548523  30.9604839
  37.7939747  20.0668523  29.9684839  36.4589747  21.7868523  28.8124839
  37.0179747  21.9768523  32.2384839  39.4989747  21.8008523  32.8064839
  39.7519747  21.1248523  31.1864839  38.6199747  23.0418523  30.3804839
  35.6879747  20.2518523  33.3474839  35.6269747  17.8988523  33.5644839
  36.4619747  18.2558523  31.1484839  34.1309747  18.2498523  30.8504839
  28.3829747  28.3598523  21.3444839  28.8709747  27.8588523  22.3444839
  28.2029747  27.7268523  23.7124839  28.1439747  28.7238523  24.1514839
  29.1579747  26.8438523  24.5474839  28.4239747  25.4948523  24.8124839
  28.9959747  24.3258523  24.0164839  26.9299747  25.7368523  24.4904839
  26.8239747  27.0398523  23.6694839  25.7139747  27.9748523  24.1234839
  29.3959747  27.3458523  25.4944839  30.1449747  27.3178523  22.4534839
  31.1969747  27.5768523  21.4444839  31.0579747  26.7758523  20.1274839
  30.5759747  25.3078523  20.2504839  31.4099747  24.3888523  21.1644839
  32.7859747  24.4358523  20.7614839  33.6139747  23.4778523  21.4514839
  34.8199747  24.2038523  22.0894839  34.3629747  25.1138523  23.0934839
  35.7869747  23.1528523  22.7054839  37.0699747  23.7638523  23.3054839
  36.7529747  24.4378523  24.5244839  36.1769747  22.2168523  21.6784839
  35.0889747  21.4598523  21.1194839  35.5909747  20.5798523  20.1334839
  34.1139747  22.4368523  20.4294839  33.0059747  21.7168523  19.8784839
  30.4339747  26.7708523  23.7004839  31.5259747  26.3658523  24.0664839
  28.4529747  25.2638523  25.8804839  28.5349747  24.2018523  23.0364839
  26.3609747  25.8258523  25.4234839  26.4879747  24.8928523  23.9444839
  26.6229747  26.7518523  22.6274839  24.9959747  28.2008523  23.3344839
  32.1729747  27.3428523  21.8864839  31.2039747  28.6478523  21.2134839
  30.3429747  27.3038523  19.4854839  32.0169747  26.8038523  19.5964839
  29.5379747  25.3008523  20.6054839  30.5539747  24.8688523  19.2454839
  31.0169747  23.3658523  21.0874839  31.3099747  24.7018523  22.2074839
  33.0569747  22.9518523  22.2404839  35.3599747  24.7468523  21.2994839
  33.6259747  25.6328523  22.7114839  35.2679747  22.6088523  23.5014839
  37.7929747  22.9598523  23.4984839  37.5239747  24.4528523  22.5814839
  35.9989747  25.0298523  24.3224839  34.5719747  20.8928523  21.9064839
  34.7899747  20.3728523  19.6154839  34.6729747  22.9588523  19.6384839
  32.3879747  22.3928523  19.5394839  24.2179747  32.1888523  27.1944839
  25.2469747  31.5528523  27.0384839  25.7629747  30.4248523  27.9364839
  26.1669747  30.8638523  28.8584839  26.9099747  29.7888523  27.1164839
  26.3589747  28.4338523  26.6024839  25.5349747  28.5668523  25.3224839
  25.4299747  28.0028523  27.7574839  24.7309747  29.3058523  28.2184839
  24.2769747  29.3268523  29.6654839  27.7899747  29.6328523  27.7554839
  26.1769747  31.7308523  26.0164839  26.2129747  32.9488523  25.1794839
  25.2499747  32.9478523  23.9694839  25.2119747  31.6668523  23.0944839
  26.5559747  31.1558523  22.5234839  27.3449747  32.2718523  22.0854839
  28.5139747  31.9278523  21.3084839  29.7869747  31.8828523  22.1974839
  29.7409747  30.7708523  23.0974839  31.0539747  31.7708523  21.3004839
  32.3819747  31.8158523  22.0894839  32.5529747  30.6018523  22.8254839
  31.0649747  32.8718523  20.3704839  29.9639747  32.8758523  19.4474839
  30.0829747  33.9868523  18.5814839  28.6549747  33.0368523  20.2454839
  27.5349747  32.9878523  19.3554839  27.2319747  30.8228523  26.0444839
  28.2569747  30.8818523  25.3874839  27.1799747  27.7188523  26.4794839
  24.6749747  29.2258523  25.4184839  26.0369747  27.5928523  28.5754839
  24.7109747  27.2328523  27.4494839  23.8599747  29.4888523  27.5774839
  24.2009747  30.3248523  30.0994839  27.2349747  33.0888523  24.8044839
  25.9839747  33.8148523  25.8134839  24.2349747  33.1288523  24.3414839
  25.4919747  33.8088523  23.3344839  24.7439747  30.8578523  23.6644839
  24.5399747  31.8618523  22.2494839  26.3459747  30.4738523  21.6884839
  27.0879747  30.5798523  23.2834839  28.3899747  30.9618523  20.7944839
  29.8539747  32.8268523  22.7574839  29.0999747  30.9808523  23.8164839
  31.0189747  30.8278523  20.7394839  33.2129747  31.9458523  21.3824839
  32.3789747  32.6838523  22.7614839  31.6899747  30.4228523  23.2524839
  29.9489747  31.9428523  18.8664839  29.1709747  34.0868523  18.2484839
  28.6999747  34.0088523  20.7594839  26.7449747  32.9128523  19.9284839
  19.9779747  25.4928523  31.8314839  20.5809747  26.5498523  31.7544839
  21.6539747  27.0478523  32.7224839  21.2209747  27.1538523  33.7254839
  22.0729747  28.4348523  32.1644839  23.5979747  28.3838523  31.8874839
  23.9739747  28.2608523  30.4224839  24.0999747  27.1658523  32.6754839
  22.9259747  26.1728523  32.7434839  23.0099747  25.2188523  33.9234839
  21.8419747  29.2158523  32.8984839  20.3999747  27.5248523  30.7774839
  19.2529747  27.4968523  29.8434839  19.4009747  26.5468523  28.6294839
  20.7849747  26.4908523  27.9294839  21.4209747  27.8378523  27.5274839
  20.4139747  28.7168523  26.9984839  20.8759747  30.0558523  26.7054839
  19.7629747  31.0658523  27.0834839  19.5379747  31.0588523  28.4984839
  20.1369747  32.5018523  26.6064839  18.9899747  33.5228523  26.7804839
  18.7259747  33.7438523  28.1664839  20.4549747  32.4668523  25.1964839
  21.5549747  31.6148523  24.8454839  21.7649747  31.6758523  23.4484839
  21.1589747  30.1668523  25.1904839  22.1879747  29.2578523  24.7814839
  21.1899747  28.6608523  30.9404839  21.1469747  29.6778523  30.2664839
  24.0639747  29.2928523  32.2924839  24.0169747  27.2498523  30.0184839
  24.3809747  27.4998523  33.6784839  24.9819747  26.7118523  32.2134839
  22.9509747  25.5818523  31.8164839  22.8049747  24.1778523  33.6704839
  19.0859747  28.5118523  29.4634839  18.3519747  27.2178523  30.4044839
  19.1589747  25.5308523  28.9634839  18.6339747  26.8108523  27.8914839
  21.4899747  25.9588523  28.5794839  20.6829747  25.8748523  27.0284839
  22.2179747  27.6538523  26.7974839  21.8909747  28.2848523  28.4074839
  21.7809747  30.3128523  27.2734839  18.8389747  30.7708523  26.5644839
  20.2339747  30.5198523  28.9394839  21.0119747  32.8598523  27.1674839
  19.2759747  34.4678523  26.2974839  18.0919747  33.1498523  26.2704839
  18.7979747  32.8678523  28.6024839  22.4639747  31.9148523  25.3844839
  22.1519747  30.7988523  23.2644839  20.2229747  29.9538523  24.6514839
  21.8389747  28.3668523  24.9824839  27.0049747  26.4138523  38.7754839
  26.4369747  25.7708523  37.9104839  25.1699747  24.9388523  38.0914839
  25.3309747  24.1848523  38.8744839  24.9409747  24.2458523  36.7224839
  23.4699747  24.5308523  36.3074839  23.3429747  25.5458523  35.1854839
  22.7969747  25.0458523  37.5964839  23.9059747  25.7798523  38.3794839
  23.6499747  25.9508523  39.8684839  25.1029747  23.1648523  36.8294839
  26.8509747  25.6408523  36.5894839  28.2419747  25.9638523  36.1834839
  28.5529747  27.4688523  36.0024839  27.5159747  28.2938523  35.2054839
  27.1799747  27.7808523  33.7934839  28.3819747  27.6278523  33.0294839
  28.1919747  27.1508523  31.6764839  28.2279747  25.5938523  31.6484839
  26.9569747  25.0688523  32.0474839  28.5219747  25.0338523  30.2264839
  28.8579747  23.5248523  30.2494839  27.6699747  22.7618523  30.4644839
  29.6319747  25.7298523  29.6284839  29.4199747  27.1348523  29.4514839
  30.5249747  27.6828523  28.7584839  29.3389747  27.7718523  30.8514839
  29.1089747  29.1798523  30.7334839  26.0449747  24.8058523  35.8164839
  26.2499747  24.5058523  34.6504839  22.9919747  23.5908523  35.9974839
  23.5539747  26.5768523  35.4634839  22.4449747  24.1828523  38.1794839
  21.9289747  25.6848523  37.3894839  24.0629747  26.7708523  37.9334839
  24.5409747  26.1838523  40.4534839  28.4629747  25.4538523  35.2374839
  28.9259747  25.5498523  36.9354839  28.6479747  27.9218523  36.9964839
  29.5379747  27.5688523  35.5294839  26.5849747  28.3318523  35.7834839
  27.8739747  29.3278523  35.1274839  26.5109747  28.5028523  33.3084839
  26.6509747  26.8288523  33.8804839  27.2369747  27.4988523  31.2554839
  29.0279747  25.2508523  32.3214839  26.8989747  24.9958523  33.0284839
  27.6349747  25.1738523  29.5944839  29.3049747  23.2368523  29.2924839
  29.6019747  23.3228523  31.0324839  27.1529747  23.2288523  31.1524839
  28.4949747  27.3178523  28.8894839  30.5469747  28.6188523  29.0444839
  30.2919747  27.5648523  31.3614839  28.8459747  29.4878523  31.6244839
  18.1739747  27.9728523  41.4694839  19.3779747  27.9188523  41.6504839
  20.1069747  27.0088523  42.6374839  19.8139747  27.2748523  43.6614839
  21.6139747  27.3098523  42.4204839  22.2819747  25.9768523  41.9924839
  22.4619747  25.8378523  40.4884839  21.3169747  24.8978523  42.5244839
  19.9029747  25.5008523  42.3664839  18.8169747  24.8998523  43.2434839
  22.0549747  27.6748523  43.3564839  20.3359747  28.6848523  40.9964839
  19.9709747  29.8588523  40.1744839  19.4829747  29.5308523  38.7434839
  20.2669747  28.4448523  37.9614839  21.7979747  28.6168523  37.8624839
  22.1249747  30.0068523  37.7154839  23.5199747  30.2798523  37.4694839
  23.9609747  31.4668523  38.3634839  24.1479747  30.9968523  39.7024839
  25.2989747  32.1128523  37.8804839  25.5709747  33.4838523  38.5364839
  25.8119747  33.3198523  39.9344839  25.2859747  32.3148523  36.4484839
  25.0819747  31.1208523  35.6854839  25.1679747  31.4078523  34.3044839
  23.6489747  30.6508523  35.9794839  23.2919747  29.5308523  35.1634839
  21.6489747  28.4358523  41.3874839  22.6369747  29.0448523  41.0114839
  23.2589747  25.8808523  42.4864839  21.5549747  25.6178523  39.9264839
  21.5359747  24.7298523  43.5874839  21.4219747  23.9388523  41.9994839
  19.5949747  25.3828523  41.3174839  17.8559747  25.4148523  43.1794839
  20.8419747  30.5208523  40.0994839  19.1869747  30.4218523  40.6974839
  18.4379747  29.2028523  38.8084839  19.4699747  30.4598523  38.1604839
  20.0589747  27.4638523  38.4064839  19.8589747  28.4038523  36.9444839
  22.1639747  28.0308523  37.0114839  22.2709747  28.2118523  38.7614839
  24.1599747  29.4148523  37.6974839  23.1759747  32.2368523  38.3314839
  23.4279747  30.3748523  39.9544839  26.1319747  31.4428523  38.1384839
  26.4449747  33.9468523  38.0574839  24.7119747  34.1468523  38.3674839
  25.2529747  32.5708523  40.2334839  25.8169747  30.3588523  35.9654839
  24.4379747  30.8678523  33.9494839  22.9799747  31.5038523  35.7824839
  22.4079747  29.2748523  35.4934839  18.9379747  23.8358523  44.0534839
  19.8619747  23.2688523  44.1564839  18.0909747  23.4848523  44.6424839
  64.7089950  57.5855260  58.1733160  64.6284000  56.6709870  57.9024870
  64.2954370  58.0822330  57.4672870  55.2665770  54.6355980  54.7160580
  54.3782470  54.9771950  54.6140460  55.5506960  54.4356300  53.8241410
  53.2298780  57.2361630  60.6000280  53.8014890  56.4683830  60.6003920
  53.2300320  57.5350390  59.6906890  63.3122150  54.8461850  60.2881520
  63.6886970  53.9733730  60.1755190  63.2141660  55.1820550  59.3971960
  57.4427160  53.2187480  55.7498960  57.5493910  54.1191210  56.0567720
  56.5319520  53.1705450  55.4593610  59.2834890  56.1873850  60.0824140
  59.7913110  56.6854820  60.7229160  59.8148130  55.4109050  59.9063500
  60.9314210  50.0264640  58.6802600  61.2389190  49.4711530  57.9638100
  60.0014910  50.1609100  58.4975590  63.3064050  54.3630470  52.4129880
  62.3667720  54.5244430  52.4982340  63.6247310  55.0816150  51.8665870
  58.9251610  58.6178210  58.1982450  58.5208610  57.9055460  57.7028350
  59.0114730  58.2731450  59.0870490  55.6256240  57.5123190  55.6989100
  55.5053840  58.2385280  55.0870370  55.3157130  56.7426100  55.2217010
  58.0919900  50.8558260  59.0812770  57.6488050  51.6367800  58.7497290
  58.6504890  51.1788150  59.7883710  61.2078720  50.4768960  53.9618600
  60.5832900  50.4728830  54.6871910  61.1208840  49.6099920  53.5654570
  60.1295800  51.4005590  60.9402370  60.4268130  52.3068420  60.8594390
  60.6781360  50.9124370  60.3261940  57.8834120  55.9791830  56.8094020
  57.6575040  55.7629000  57.7140640  57.1026650  56.4120290  56.4639990
  65.1131880  55.9855200  55.4084670  64.5140770  56.7091000  55.2248290
  65.6611490  55.9231980  54.6261120  63.7196750  54.6218740  57.4387950
  64.1126320  54.9390940  56.6256640  64.0813600  53.7430620  57.5532470
  52.7560920  51.2119540  59.6618150  52.4673970  51.7822400  60.3743130
  53.5006680  50.7323990  60.0249380  52.9431150  55.1539660  50.8720870
  52.8605820  56.0970420  51.0135860  52.5914210  55.0114570  49.9933220
  60.7429280  53.8878690  59.9391220  60.7465340  53.4468640  59.0895760
  61.6380400  54.2096020  60.0463040  56.5931660  53.7705180  58.8985430
  56.2531710  54.2480410  59.6552480  55.8308980  53.3170300  58.5386530
  60.8049430  54.8890770  52.9297980  60.9262250  54.8477250  53.8783800
  60.4197940  55.7514920  52.7744710  59.8170930  57.1991910  52.3281280
  59.2487830  56.7510160  51.7017190  60.5259930  57.5584690  51.7946430
  53.9077740  52.6924160  57.8150100  53.6224660  52.3279830  58.6528720
  53.8456600  51.9604620  57.2013240  63.5816330  51.5853420  54.5363470
  62.7680940  51.0866590  54.4608780  63.3878280  52.4251670  54.1199820
  53.4008400  57.8283110  51.7746800  54.2703250  58.1107910  52.0582720
  52.9098720  58.6418980  51.6595610  56.4654990  49.5593970  56.3677600
  56.3369620  49.5511870  57.3162520  55.6417010  49.8977060  56.0168610
  60.2933760  55.0450290  55.8031190  59.5849910  55.5136630  56.2444800
  60.5778240  54.3872300  56.4376380  64.3249190  51.7700950  57.2426980
  64.2016970  51.7887080  56.2936490  65.2733750  51.8179890  57.3625380
  58.4968780  53.3535370  53.1781900  59.3459310  53.7905520  53.1122090
  58.1300050  53.6655630  54.0053960  56.0906960  57.0392800  52.3350320
  56.1710550  56.0920310  52.4467720  56.9826710  57.3699680  52.4410980
  58.3238130  55.6766090  50.5718230  58.1227190  54.8133450  50.9331570
  58.1530180  55.5899450  49.6339830  65.8026440  50.4874320  53.1005110
  66.0828730  49.6442220  53.4564530  65.0292170  50.7197430  53.6143860
  57.1220930  52.7766710  50.5596110  57.4246830  52.7834140  49.6515260
  57.8615520  52.4264570  51.0563770  60.3405860  51.7201330  51.5452310
  59.9927860  51.0425320  50.9654760  60.5418630  51.2590840  52.3595700
  53.6811500  58.2488980  57.9416680  53.0260340  57.9800620  57.2976380
  54.5189450  58.1393460  57.4918660  52.8949580  55.4587910  53.8842010
  51.9913660  55.7218110  53.7093670  53.3790200  55.7299080  53.1041970
  55.4376790  54.5153450  51.7936390  56.1468490  54.0936670  51.3083670
  54.7216730  54.5828680  51.1619740  55.0850950  50.5692780  50.8339040
  55.8079080  51.1101720  51.1520260  55.3575470  50.2956200  49.9580580
  54.5097790  50.6086040  54.4274610  55.2677150  50.7214920  53.8538640
  54.0474960  51.4455240  54.3818040  61.0511600  52.7225310  57.4176920
  60.2386110  52.3482200  57.0772800  61.5553240  51.9670390  57.7198110
  65.5536580  49.3867760  58.6559990  66.1565950  49.9587970  59.1308510
  64.8129570  49.9507200  58.4333890  56.8822940  51.1350090  52.9676580
  57.4115700  50.3479890  52.8384530  57.5151260  51.8141280  53.2012110
  59.0760780  50.8725230  56.0221970  58.4463520  50.1712540  56.1892100
  58.5365920  51.6329360  55.8055130  64.7089950  57.5855260  39.3989670
  64.6284000  56.6709870  39.1281380  64.2954370  58.0822330  38.6929380
  55.2665770  54.6355980  35.9417090  54.3782470  54.9771950  35.8396970
  55.5506960  54.4356300  35.0497920  53.2298780  57.2361630  41.8256790
  53.8014890  56.4683830  41.8260430  53.2300320  57.5350390  40.9163400
  54.4723650  52.6445990  43.6125720  54.2926490  51.7471740  43.8928480
  54.0703730  53.1917860  44.2872670  63.3122150  54.8461850  41.5138030
  63.6886970  53.9733730  41.4011700  63.2141660  55.1820550  40.6228470
  57.4427160  53.2187480  36.9755470  57.5493910  54.1191210  37.2824230
  56.5319520  53.1705450  36.6850120  55.0910320  55.1406490  42.2208060
  55.7720430  55.4044860  42.8395460  54.7758370  54.3007360  42.5546070
  59.2834890  56.1873850  41.3080650  59.7913110  56.6854820  41.9485670
  59.8148130  55.4109050  41.1320010  57.5670990  50.8272410  45.5744070
  57.5689430  51.3444800  44.7689970  56.7375300  50.3502590  45.5514000
  57.2486320  52.5382370  43.5814520  57.5903130  53.3824420  43.2868390
  56.3102130  52.6866110  43.6979860  60.9314210  50.0264640  39.9059110
  61.2389190  49.4711530  39.1894610  60.0014910  50.1609100  39.7232100
  63.3064050  54.3630470  33.6386390  62.3667720  54.5244430  33.7238850
  63.6247310  55.0816150  33.0922380  58.9251610  58.6178210  39.4238960
  58.5208610  57.9055460  38.9284860  59.0114730  58.2731450  40.3127000
  57.6380230  55.3921420  43.2038000  58.1894820  55.5016760  42.4291250
  58.1523740  55.7659020  43.9193230  55.6256240  57.5123190  36.9245610
  55.5053840  58.2385280  36.3126880  55.3157130  56.7426100  36.4473520
  58.0919900  50.8558260  40.3069280  57.6488050  51.6367800  39.9753800
  58.6504890  51.1788150  41.0140220  62.3789710  53.7226780  45.9104600
  61.9169080  53.9309800  46.7224540  61.9767820  52.9086130  45.6075270
  64.4743930  56.4437480  49.1400050  64.7997340  55.6101230  48.8002280
  65.2624260  56.9666000  49.2878380  61.2078720  50.4768960  35.1875110
  60.5832900  50.4728830  35.9128420  61.1208840  49.6099920  34.7911080
  60.1295800  51.4005590  42.1658880  60.4268130  52.3068420  42.0850900
  60.6781360  50.9124370  41.5518450  57.8834120  55.9791830  38.0350530
  57.6575040  55.7629000  38.9397150  57.1026650  56.4120290  37.6896500
  65.1131880  55.9855200  36.6341180  64.5140770  56.7091000  36.4504800
  65.6611490  55.9231980  35.8517630  60.3233330  56.8777410  48.7010800
  60.2276930  55.9372140  48.5511200  61.1665310  57.0992480  48.3058870
  63.7196750  54.6218740  38.6644460  64.1126320  54.9390940  37.8513150
  64.0813600  53.7430620  38.7788980  55.4543870  53.2891080  46.8544580
  55.0607260  54.1366290  47.0617360  54.7662270  52.6517450  47.0453220
  62.0288920  53.3726050  49.9241320  61.3387240  53.1798250  50.5587410
  62.7721220  53.6560690  50.4565620  52.7560920  51.2119540  40.8874660
  52.4673970  51.7822400  41.5999640  53.5006680  50.7323990  41.2505890
  52.9431150  55.1539660  32.0977380  52.8605820  56.0970420  32.2392370
  52.5914210  55.0114570  31.2189730  64.3051890  57.2124490  42.7595240
  63.5733010  57.7211300  43.1085340  63.9076230  56.3954470  42.4584020
  60.7429280  53.8878690  41.1647730  60.7465340  53.4468640  40.3152270
  61.6380400  54.2096020  41.2719550  56.5931660  53.7705180  40.1241940
  56.2531710  54.2480410  40.8808990  55.8308980  53.3170300  39.7643040
  60.8049430  54.8890770  34.1554490  60.9262250  54.8477250  35.1040310
  60.4197940  55.7514920  34.0001220  64.7677800  52.6658170  42.1718180
  64.7850540  53.1166820  43.0160030  64.5193380  51.7663810  42.3851620
  59.8170930  57.1991910  33.5537790  59.2487830  56.7510160  32.9273700
  60.5259930  57.5584690  33.0202940  61.0437250  57.9480470  42.9113140
  61.4107380  57.4739040  43.6574480  60.8542310  58.8222040  43.2521480
  53.9077740  52.6924160  39.0406610  53.6224660  52.3279830  39.8785230
  53.8456600  51.9604620  38.4269750  58.8336620  56.9889110  45.2297350
  58.5293690  57.8681090  45.4547710  59.7883080  57.0488900  45.2654790
  63.5816330  51.5853420  35.7619980  62.7680940  51.0866590  35.6865290
  63.3878280  52.4251670  35.3456330  54.8900350  57.8291850  46.3768710
  54.5315290  58.4945700  46.9642050  54.5954910  56.9975400  46.7481330
  58.0913470  58.2876090  49.2608260  57.7913610  58.4333270  48.3636080
  58.8624710  57.7281380  49.1681650  53.4008400  57.8283110  33.0003310
  54.2703250  58.1107910  33.2839230  52.9098720  58.6418980  32.8852120
  56.4654990  49.5593970  37.5934110  56.3369620  49.5511870  38.5419030
  55.6417010  49.8977060  37.2425120  53.4648920  51.3185090  47.0540810
  52.7507440  51.5182010  47.6593420  53.8843960  50.5424660  47.4255610
  64.9587700  53.8107400  44.8042260  65.3268520  52.9902610  45.1321830
  64.0985900  53.8709290  45.2197910  60.2933760  55.0450290  37.0287700
  59.5849910  55.5136630  37.4701310  60.5778240  54.3872300  37.6632890
  61.9189690  56.4646990  45.0280230  62.4174940  56.9392810  45.6932080
  62.0612640  55.5410510  45.2350260  64.3249190  51.7700950  38.4683490
  64.2016970  51.7887080  37.5193000  65.2733750  51.8179890  38.5881890
  58.4968780  53.3535370  34.4038410  59.3459310  53.7905520  34.3378600
  58.1300050  53.6655630  35.2310470  56.0906960  57.0392800  33.5606830
  56.1710550  56.0920310  33.6724230  56.9826710  57.3699680  33.6667490
  55.6500840  57.0037310  49.6913070  55.6906180  56.7051180  50.5998300
  56.5046340  57.4044920  49.5320590  57.5906650  55.5829410  47.6587560
  57.0603110  55.0920360  47.0310900  58.2594720  56.0113610  47.1245490
  58.0778950  52.5491780  47.7384850  57.9835820  51.9312530  47.0135720
  57.4976340  53.2758070  47.5114760  60.8440390  51.1065020  44.7712240
  60.3957690  51.1289280  43.9257790  60.2105590  50.7084040  45.3682540
  63.5863840  57.7335530  46.7762520  63.7060050  57.1376670  47.5157360
  64.4457840  57.7705220  46.3563820  58.3238130  55.6766090  31.7974740
  58.1227190  54.8133450  32.1588080  58.1530180  55.5899450  30.8596340
  60.3532610  54.2756880  48.0338340  60.9432300  53.9672730  48.7216160
  59.5352850  53.8036630  48.1898240  65.1726040  53.8922690  48.2671360
  64.4841560  53.2304230  48.2021350  65.8932060  53.4460960  48.7119820
  65.8026440  50.4874320  34.3261620  66.0828730  49.6442220  34.6821040
  65.0292170  50.7197430  34.8400370  57.1220930  52.7766710  31.7852620
  57.4246830  52.7834140  30.8771770  57.8615520  52.4264570  32.2820280
  60.3405860  51.7201330  32.7708820  59.9927860  51.0425320  32.1911270
  60.5418630  51.2590840  33.5852210  53.6811500  58.2488980  39.1673190
  53.0260340  57.9800620  38.5232890  54.5189450  58.1393460  38.7175170
  54.7187430  58.6341550  43.7076530  55.0860470  58.5468950  44.5872550
  54.1498250  57.8708100  43.6083390  54.2703430  55.5450640  47.6134950
  53.3759480  55.5117400  47.9528660  54.8100980  55.7437430  48.3786200
  52.8949580  55.4587910  35.1098520  51.9913660  55.7218110  34.9350180
  53.3790200  55.7299080  34.3298480  55.4376790  54.5153450  33.0192900
  56.1468490  54.0936670  32.5340180  54.7216730  54.5828680  32.3876250
  55.0850950  50.5692780  32.0595550  55.8079080  51.1101720  32.3776770
  55.3575470  50.2956200  31.1837090  54.7743140  49.8198970  41.9618170
  55.4219330  49.2696350  41.5213330  55.1944980  50.0742120  42.7833980
  54.5275140  49.9754640  44.7043490  54.1789960  50.4318460  45.4701670
  54.1962840  49.0811770  44.7865920  62.0399960  51.1666520  48.2262910
  61.9788850  51.7588350  48.9758320  62.9800340  51.0592480  48.0813170
  64.6774520  50.8236580  47.8655200  65.2914930  51.1415870  47.2036280
  65.2224080  50.3385170  48.4851060  55.1995780  49.5030840  47.9794260
  55.7478770  49.3218890  47.2160370  55.2651090  48.7124950  48.5150570
  65.4182560  49.3868720  44.1924490  64.5442400  49.7203830  43.9897420
  65.3093310  48.9141900  45.0176360  63.1657380  50.3038560  43.1317400
  62.3829170  50.7784060  43.4114160  62.8720310  49.3993390  43.0230580
  54.5097790  50.6086040  35.6531120  55.2677150  50.7214920  35.0795150
  54.0474960  51.4455240  35.6074550  61.0511600  52.7225310  38.6433430
  60.2386110  52.3482200  38.3029310  61.5553240  51.9670390  38.9454620
  65.5536580  49.3867760  39.8816500  66.1565950  49.9587970  40.3565020
  64.8129570  49.9507200  39.6590400  56.8822940  51.1350090  34.1933090
  57.4115700  50.3479890  34.0641040  57.5151260  51.8141280  34.4268620
  59.0760780  50.8725230  37.2478480  58.4463520  50.1712540  37.4148610
  58.5365920  51.6329360  37.0311640  59.2016340  50.1509210  49.6830970
  58.9200610  50.6542810  48.9191790  59.5836040  49.3530960  49.3173100
  64.7089950  57.5855260  20.6246180  64.6284000  56.6709870  20.3537890
  64.2954370  58.0822330  19.9185890  55.2665770  54.6355980  17.1673600
  54.3782470  54.9771950  17.0653480  55.5506960  54.4356300  16.2754430
  53.2298780  57.2361630  23.0513300  53.8014890  56.4683830  23.0516940
  53.2300320  57.5350390  22.1419910  54.4723650  52.6445990  24.8382230
  54.2926490  51.7471740  25.1184990  54.0703730  53.1917860  25.5129180
  63.3122150  54.8461850  22.7394540  63.6886970  53.9733730  22.6268210
  63.2141660  55.1820550  21.8484980  57.4427160  53.2187480  18.2011980
  57.5493910  54.1191210  18.5080740  56.5319520  53.1705450  17.9106630
  55.0910320  55.1406490  23.4464570  55.7720430  55.4044860  24.0651970
  54.7758370  54.3007360  23.7802580  59.2834890  56.1873850  22.5337160
  59.7913110  56.6854820  23.1742180  59.8148130  55.4109050  22.3576520
  57.5670990  50.8272410  26.8000580  57.5689430  51.3444800  25.9946480
  56.7375300  50.3502590  26.7770510  57.2486320  52.5382370  24.8071030
  57.5903130  53.3824420  24.5124900  56.3102130  52.6866110  24.9236370
  60.9314210  50.0264640  21.1315620  61.2389190  49.4711530  20.4151120
  60.0014910  50.1609100  20.9488610  63.3064050  54.3630470  14.8642900
  62.3667720  54.5244430  14.9495360  63.6247310  55.0816150  14.3178890
  58.9251610  58.6178210  20.6495470  58.5208610  57.9055460  20.1541370
  59.0114730  58.2731450  21.5383510  57.6380230  55.3921420  24.4294510
  58.1894820  55.5016760  23.6547760  58.1523740  55.7659020  25.1449740
  55.6256240  57.5123190  18.1502120  55.5053840  58.2385280  17.5383390
  55.3157130  56.7426100  17.6730030  58.0919900  50.8558260  21.5325790
  57.6488050  51.6367800  21.2010310  58.6504890  51.1788150  22.2396730
  62.3789710  53.7226780  27.1361110  61.9169080  53.9309800  27.9481050
  61.9767820  52.9086130  26.8331780  64.4743930  56.4437480  30.3656560
  64.7997340  55.6101230  30.0258790  65.2624260  56.9666000  30.5134890
  61.2078720  50.4768960  16.4131620  60.5832900  50.4728830  17.1384930
  61.1208840  49.6099920  16.0167590  60.1295800  51.4005590  23.3915390
  60.4268130  52.3068420  23.3107410  60.6781360  50.9124370  22.7774960
  57.8834120  55.9791830  19.2607040  57.6575040  55.7629000  20.1653660
  57.1026650  56.4120290  18.9153010  65.1131880  55.9855200  17.8597690
  64.5140770  56.7091000  17.6761310  65.6611490  55.9231980  17.0774140
  60.3233330  56.8777410  29.9267310  60.2276930  55.9372140  29.7767710
  61.1665310  57.0992480  29.5315380  63.7196750  54.6218740  19.8900970
  64.1126320  54.9390940  19.0769660  64.0813600  53.7430620  20.0045490
  55.4543870  53.2891080  28.0801090  55.0607260  54.1366290  28.2873870
  54.7662270  52.6517450  28.2709730  62.0288920  53.3726050  31.1497830
  61.3387240  53.1798250  31.7843920  62.7721220  53.6560690  31.6822130
  52.7560920  51.2119540  22.1131170  52.4673970  51.7822400  22.8256150
  53.5006680  50.7323990  22.4762400  52.9431150  55.1539660  13.3233890
  52.8605820  56.0970420  13.4648880  52.5914210  55.0114570  12.4446240
  64.3051890  57.2124490  23.9851750  63.5733010  57.7211300  24.3341850
  63.9076230  56.3954470  23.6840530  60.7429280  53.8878690  22.3904240
  60.7465340  53.4468640  21.5408780  61.6380400  54.2096020  22.4976060
  56.5931660  53.7705180  21.3498450  56.2531710  54.2480410  22.1065500
  55.8308980  53.3170300  20.9899550  60.8049430  54.8890770  15.3811000
  60.9262250  54.8477250  16.3296820  60.4197940  55.7514920  15.2257730
  64.7677800  52.6658170  23.3974690  64.7850540  53.1166820  24.2416540
  64.5193380  51.7663810  23.6108130  59.8170930  57.1991910  14.7794300
  59.2487830  56.7510160  14.1530210  60.5259930  57.5584690  14.2459450
  61.0437250  57.9480470  24.1369650  61.4107380  57.4739040  24.8830990
  60.8542310  58.8222040  24.4777990  53.9077740  52.6924160  20.2663120
  53.6224660  52.3279830  21.1041740  53.8456600  51.9604620  19.6526260
  58.8336620  56.9889110  26.4553860  58.5293690  57.8681090  26.6804220
  59.7883080  57.0488900  26.4911300  63.5816330  51.5853420  16.9876490
  62.7680940  51.0866590  16.9121800  63.3878280  52.4251670  16.5712840
  54.8900350  57.8291850  27.6025220  54.5315290  58.4945700  28.1898560
  54.5954910  56.9975400  27.9737840  58.0913470  58.2876090  30.4864770
  57.7913610  58.4333270  29.5892590  58.8624710  57.7281380  30.3938160
  53.4008400  57.8283110  14.2259820  54.2703250  58.1107910  14.5095740
  52.9098720  58.6418980  14.1108630  56.4654990  49.5593970  18.8190620
  56.3369620  49.5511870  19.7675540  55.6417010  49.8977060  18.4681630
  53.4648920  51.3185090  28.2797320  52.7507440  51.5182010  28.8849930
  53.8843960  50.5424660  28.6512120  64.9587700  53.8107400  26.0298770
  65.3268520  52.9902610  26.3578340  64.0985900  53.8709290  26.4454420
  60.2933760  55.0450290  18.2544210  59.5849910  55.5136630  18.6957820
  60.5778240  54.3872300  18.8889400  61.9189690  56.4646990  26.2536740
  62.4174940  56.9392810  26.9188590  62.0612640  55.5410510  26.4606770
  64.3249190  51.7700950  19.6940000  64.2016970  51.7887080  18.7449510
  65.2733750  51.8179890  19.8138400  58.4968780  53.3535370  15.6294920
  59.3459310  53.7905520  15.5635110  58.1300050  53.6655630  16.4566980
  56.0906960  57.0392800  14.7863340  56.1710550  56.0920310  14.8980740
  56.9826710  57.3699680  14.8924000  55.6500840  57.0037310  30.9169580
  55.6906180  56.7051180  31.8254810  56.5046340  57.4044920  30.7577100
  57.5906650  55.5829410  28.8844070  57.0603110  55.0920360  28.2567410
  58.2594720  56.0113610  28.3502000  58.0778950  52.5491780  28.9641360
  57.9835820  51.9312530  28.2392230  57.4976340  53.2758070  28.7371270
  60.8440390  51.1065020  25.9968750  60.3957690  51.1289280  25.1514300
  60.2105590  50.7084040  26.5939050  63.5863840  57.7335530  28.0019030
  63.7060050  57.1376670  28.7413870  64.4457840  57.7705220  27.5820330
  58.3238130  55.6766090  13.0231250  58.1227190  54.8133450  13.3844590
  58.1530180  55.5899450  12.0852850  60.3532610  54.2756880  29.2594850
  60.9432300  53.9672730  29.9472670  59.5352850  53.8036630  29.4154750
  65.1726040  53.8922690  29.4927870  64.4841560  53.2304230  29.4277860
  65.8932060  53.4460960  29.9376330  65.8026440  50.4874320  15.5518130
  66.0828730  49.6442220  15.9077550  65.0292170  50.7197430  16.0656880
  57.1220930  52.7766710  13.0109130  57.4246830  52.7834140  12.1028280
  57.8615520  52.4264570  13.5076790  60.3405860  51.7201330  13.9965330
  59.9927860  51.0425320  13.4167780  60.5418630  51.2590840  14.8108720
  53.6811500  58.2488980  20.3929700  53.0260340  57.9800620  19.7489400
  54.5189450  58.1393460  19.9431680  54.7187430  58.6341550  24.9333040
  55.0860470  58.5468950  25.8129060  54.1498250  57.8708100  24.8339900
  54.2703430  55.5450640  28.8391460  53.3759480  55.5117400  29.1785170
  54.8100980  55.7437430  29.6042710  52.8949580  55.4587910  16.3355030
  51.9913660  55.7218110  16.1606690  53.3790200  55.7299080  15.5554990
  55.4376790  54.5153450  14.2449410  56.1468490  54.0936670  13.7596690
  54.7216730  54.5828680  13.6132760  55.0850950  50.5692780  13.2852060
  55.8079080  51.1101720  13.6033280  55.3575470  50.2956200  12.4093600
  54.7743140  49.8198970  23.1874680  55.4219330  49.2696350  22.7469840
  55.1944980  50.0742120  24.0090490  54.5275140  49.9754640  25.9300000
  54.1789960  50.4318460  26.6958180  54.1962840  49.0811770  26.0122430
  62.0399960  51.1666520  29.4519420  61.9788850  51.7588350  30.2014830
  62.9800340  51.0592480  29.3069680  64.6774520  50.8236580  29.0911710
  65.2914930  51.1415870  28.4292790  65.2224080  50.3385170  29.7107570
  55.1995780  49.5030840  29.2050770  55.7478770  49.3218890  28.4416880
  55.2651090  48.7124950  29.7407080  65.4182560  49.3868720  25.4181000
  64.5442400  49.7203830  25.2153930  65.3093310  48.9141900  26.2432870
  63.1657380  50.3038560  24.3573910  62.3829170  50.7784060  24.6370670
  62.8720310  49.3993390  24.2487090  54.5097790  50.6086040  16.8787630
  55.2677150  50.7214920  16.3051660  54.0474960  51.4455240  16.8331060
  61.0511600  52.7225310  19.8689940  60.2386110  52.3482200  19.5285820
  61.5553240  51.9670390  20.1711130  65.5536580  49.3867760  21.1073010
  66.1565950  49.9587970  21.5821530  64.8129570  49.9507200  20.8846910
  56.8822940  51.1350090  15.4189600  57.4115700  50.3479890  15.2897550
  57.5151260  51.8141280  15.6525130  59.0760780  50.8725230  18.4734990
  58.4463520  50.1712540  18.6405120  58.5365920  51.6329360  18.2568150
  59.2016340  50.1509210  30.9087480  58.9200610  50.6542810  30.1448300
  59.5836040  49.3530960  30.5429610  53.2298780  57.2361630   4.2769810
  53.8014890  56.4683830   4.2773450  53.2300320  57.5350390   3.3676420
  54.4723650  52.6445990   6.0638740  54.2926490  51.7471740   6.3441500
  54.0703730  53.1917860   6.7385690  63.3122150  54.8461850   3.9651050
  63.6886970  53.9733730   3.8524720  63.2141660  55.1820550   3.0741490
  55.0910320  55.1406490   4.6721080  55.7720430  55.4044860   5.2908480
  54.7758370  54.3007360   5.0059090  59.2834890  56.1873850   3.7593670
  59.7913110  56.6854820   4.3998690  59.8148130  55.4109050   3.5833030
  57.5670990  50.8272410   8.0257090  57.5689430  51.3444800   7.2202990
  56.7375300  50.3502590   8.0027020  57.2486320  52.5382370   6.0327540
  57.5903130  53.3824420   5.7381410  56.3102130  52.6866110   6.1492880
  57.6380230  55.3921420   5.6551020  58.1894820  55.5016760   4.8804270
  58.1523740  55.7659020   6.3706250  58.0919900  50.8558260   2.7582300
  57.6488050  51.6367800   2.4266820  58.6504890  51.1788150   3.4653240
  62.3789710  53.7226780   8.3617620  61.9169080  53.9309800   9.1737560
  61.9767820  52.9086130   8.0588290  64.4743930  56.4437480  11.5913070
  64.7997340  55.6101230  11.2515300  65.2624260  56.9666000  11.7391400
  60.1295800  51.4005590   4.6171900  60.4268130  52.3068420   4.5363920
  60.6781360  50.9124370   4.0031470  60.3233330  56.8777410  11.1523820
  60.2276930  55.9372140  11.0024220  61.1665310  57.0992480  10.7571890
  55.4543870  53.2891080   9.3057600  55.0607260  54.1366290   9.5130380
  54.7662270  52.6517450   9.4966240  62.0288920  53.3726050  12.3754340
  61.3387240  53.1798250  13.0100430  62.7721220  53.6560690  12.9078640
  52.7560920  51.2119540   3.3387680  52.4673970  51.7822400   4.0512660
  53.5006680  50.7323990   3.7018910  64.3051890  57.2124490   5.2108260
  63.5733010  57.7211300   5.5598360  63.9076230  56.3954470   4.9097040
  60.7429280  53.8878690   3.6160750  60.7465340  53.4468640   2.7665290
  61.6380400  54.2096020   3.7232570  56.5931660  53.7705180   2.5754960
  56.2531710  54.2480410   3.3322010  55.8308980  53.3170300   2.2156060
  64.7677800  52.6658170   4.6231200  64.7850540  53.1166820   5.4673050
  64.5193380  51.7663810   4.8364640  61.0437250  57.9480470   5.3626160
  61.4107380  57.4739040   6.1087500  60.8542310  58.8222040   5.7034500
  58.8336620  56.9889110   7.6810370  58.5293690  57.8681090   7.9060730
  59.7883080  57.0488900   7.7167810  54.8900350  57.8291850   8.8281730
  54.5315290  58.4945700   9.4155070  54.5954910  56.9975400   9.1994350
  58.0913470  58.2876090  11.7121280  57.7913610  58.4333270  10.8149100
  58.8624710  57.7281380  11.6194670  53.4648920  51.3185090   9.5053830
  52.7507440  51.5182010  10.1106440  53.8843960  50.5424660   9.8768630
  64.9587700  53.8107400   7.2555280  65.3268520  52.9902610   7.5834850
  64.0985900  53.8709290   7.6710930  61.9189690  56.4646990   7.4793250
  62.4174940  56.9392810   8.1445100  62.0612640  55.5410510   7.6863280
  55.6500840  57.0037310  12.1426090  55.6906180  56.7051180  13.0511320
  56.5046340  57.4044920  11.9833610  57.5906650  55.5829410  10.1100580
  57.0603110  55.0920360   9.4823920  58.2594720  56.0113610   9.5758510
  58.0778950  52.5491780  10.1897870  57.9835820  51.9312530   9.4648740
  57.4976340  53.2758070   9.9627780  60.8440390  51.1065020   7.2225260
  60.3957690  51.1289280   6.3770810  60.2105590  50.7084040   7.8195560
  63.5863840  57.7335530   9.2275540  63.7060050  57.1376670   9.9670380
  64.4457840  57.7705220   8.8076840  60.3532610  54.2756880  10.4851360
  60.9432300  53.9672730  11.1729180  59.5352850  53.8036630  10.6411260
  65.1726040  53.8922690  10.7184380  64.4841560  53.2304230  10.6534370
  65.8932060  53.4460960  11.1632840  54.7187430  58.6341550   6.1589550
  55.0860470  58.5468950   7.0385570  54.1498250  57.8708100   6.0596410
  54.2703430  55.5450640  10.0647970  53.3759480  55.5117400  10.4041680
  54.8100980  55.7437430  10.8299220  54.7743140  49.8198970   4.4131190
  55.4219330  49.2696350   3.9726350  55.1944980  50.0742120   5.2347000
  54.5275140  49.9754640   7.1556510  54.1789960  50.4318460   7.9214690
  54.1962840  49.0811770   7.2378940  62.0399960  51.1666520  10.6775930
  61.9788850  51.7588350  11.4271340  62.9800340  51.0592480  10.5326190
  64.6774520  50.8236580  10.3168220  65.2914930  51.1415870   9.6549300
  65.2224080  50.3385170  10.9364080  55.1995780  49.5030840  10.4307280
  55.7478770  49.3218890   9.6673390  55.2651090  48.7124950  10.9663590
  65.4182560  49.3868720   6.6437510  64.5442400  49.7203830   6.4410440
  65.3093310  48.9141900   7.4689380  63.1657380  50.3038560   5.5830420
  62.3829170  50.7784060   5.8627180  62.8720310  49.3993390   5.4743600
  65.5536580  49.3867760   2.3329520  66.1565950  49.9587970   2.8078040
  64.8129570  49.9507200   2.1103420  59.2016340  50.1509210  12.1343990
  58.9200610  50.6542810  11.3704810  59.5836040  49.3530960  11.7686120
  64.7089950  38.8111770  58.1733160  64.6284000  37.8966380  57.9024870
  64.2954370  39.3078840  57.4672870  62.8407990  40.5890790  60.0542430
  62.0650090  40.1091230  60.3441000  63.4920920  39.9096440  59.8798590
  56.8375080  44.9350690  61.1276210  57.1403120  44.0448430  60.9486430
  57.5818670  45.4920910  60.8998460  55.2665770  35.8612490  54.7160580
  54.3782470  36.2028460  54.6140460  55.5506960  35.6612810  53.8241410
  53.2298780  38.4618140  60.6000280  53.8014890  37.6940340  60.6003920
  53.2300320  38.7606900  59.6906890  63.0878730  47.2808990  58.4545550
  62.4690170  47.7366490  57.8839990  63.9430510  47.4360450  58.0535250
  62.2816980  43.2647980  60.0612590  62.2125260  42.3237920  59.9001720
  63.0436840  43.3549390  60.6335160  63.3122150  36.0718360  60.2881520
  63.6886970  35.1990240  60.1755190  63.2141660  36.4077060  59.3971960
  57.4427160  34.4443990  55.7498960  57.5493910  35.3447720  56.0567720
  56.5319520  34.3961960  55.4593610  59.2834890  37.4130360  60.0824140
  59.7913110  37.9111330  60.7229160  59.8148130  36.6365560  59.9063500
  63.9542080  42.1648230  55.8477460  63.3359350  42.6297680  55.2840180
  64.4665330  42.8575710  56.2646970  53.3225280  42.8504760  53.2217090
  52.9453260  43.3391860  52.4901990  53.5798350  43.5230040  53.8523620
  60.9314210  31.2521150  58.6802600  61.2389190  30.6968040  57.9638100
  60.0014910  31.3865610  58.4975590  63.3194970  39.3169980  55.4162720
  62.3924250  39.2507360  55.6451190  63.4719790  40.2550110  55.3017960
  63.3064050  35.5886980  52.4129880  62.3667720  35.7500940  52.4982340
  63.6247310  36.3072660  51.8665870  58.9251610  39.8434720  58.1982450
  58.5208610  39.1311970  57.7028350  59.0114730  39.4987960  59.0870490
  59.3933310  43.5302280  60.3621660  59.0961600  42.9247750  59.6829440
  60.3433130  43.5679590  60.2511020  65.5256960  40.1177090  52.9270720
  65.9650240  39.2799520  52.7808540  66.2385380  40.7506490  53.0134860
  63.6352340  45.0573160  56.8951960  64.0748250  45.7997490  56.4807350
  63.5739230  45.2999730  57.8190920  55.6256240  38.7379700  55.6989100
  55.5053840  39.4641790  55.0870370  55.3157130  37.9682610  55.2217010
  54.5089240  43.6095030  57.9163920  54.1017320  43.7509620  57.0617520
  55.4002250  43.3255190  57.7135130  58.7810900  47.8240810  56.0286590
  58.6053380  46.9076350  55.8154390  57.9266640  48.1828100  56.2684390
  65.5698580  47.1792550  56.8861460  66.0255530  46.3981930  57.2000080
  65.9091100  47.8899370  57.4302640  58.0919900  32.0814770  59.0812770
  57.6488050  32.8624310  58.7497290  58.6504890  32.4044660  59.7883710
  61.2078720  31.7025470  53.9618600  60.5832900  31.6985340  54.6871910
  61.1208840  30.8356430  53.5654570  60.1295800  32.6262100  60.9402370
  60.4268130  33.5324930  60.8594390  60.6781360  32.1380880  60.3261940
  57.8834120  37.2048340  56.8094020  57.6575040  36.9885510  57.7140640
  57.1026650  37.6376800  56.4639990  65.1131880  37.2111710  55.4084670
  64.5140770  37.9347510  55.2248290  65.6611490  37.1488490  54.6261120
  63.7196750  35.8475250  57.4387950  64.1126320  36.1647450  56.6256640
  64.0813600  34.9687130  57.5532470  52.7560920  32.4376050  59.6618150
  52.4673970  33.0078910  60.3743130  53.5006680  31.9580500  60.0249380
  52.9431150  36.3796170  50.8720870  52.8605820  37.3226930  51.0135860
  52.5914210  36.2371080  49.9933220  60.7429280  35.1135200  59.9391220
  60.7465340  34.6725150  59.0895760  61.6380400  35.4352530  60.0463040
  56.5931660  34.9961690  58.8985430  56.2531710  35.4736920  59.6552480
  55.8308980  34.5426810  58.5386530  60.8049430  36.1147280  52.9297980
  60.9262250  36.0733760  53.8783800  60.4197940  36.9771430  52.7744710
  59.8170930  38.4248420  52.3281280  59.2487830  37.9766670  51.7017190
  60.5259930  38.7841200  51.7946430  53.9077740  33.9180670  57.8150100
  53.6224660  33.5536340  58.6528720  53.8456600  33.1861130  57.2013240
  57.3618410  42.4206610  54.6007690  56.5880670  41.8804230  54.4406410
  58.0913040  41.9013220  54.2625450  63.5816330  32.8109930  54.5363470
  62.7680940  32.3123100  54.4608780  63.3878280  33.6508180  54.1199820
  57.4055810  42.0886990  58.2386500  57.9234480  41.2855250  58.1843390
  56.9539830  42.0266130  59.0803330  62.2925310  43.3553270  53.5113800
  62.6341010  44.0995500  53.0157120  61.4638020  43.6684390  53.8738630
  65.1752720  42.6769110  58.8759310  65.5276540  42.0797240  58.2160680
  64.2915050  42.3513340  59.0467560  61.2616000  43.4366800  56.2829720
  61.9487130  43.9836010  56.6637310  60.4748420  43.9807530  56.3179330
  53.4008400  39.0539620  51.7746800  54.2703250  39.3364420  52.0582720
  52.9098720  39.8675490  51.6595610  60.5643210  40.4412830  55.8955080
  61.0205990  41.2518080  56.1215270  60.2131420  40.1235970  56.7273570
  56.4654990  30.7850480  56.3677600  56.3369620  30.7768380  57.3162520
  55.6417010  31.1233570  56.0168610  53.7679650  48.2667000  52.3408430
  54.1277290  48.8656340  51.6865700  53.6271990  48.8126890  53.1143460
  59.7848270  45.6498200  53.1582100  59.7758370  46.3827890  52.5426610
  58.8646630  45.4029780  53.2509060  55.3854910  40.8713090  53.9028860
  54.7782860  41.6111990  53.9124160  55.8604260  40.9612450  53.0767060
  62.7707870  45.7126440  51.8207290  62.8719850  45.5090430  50.8909270
  61.8709610  45.4584720  52.0255070  60.2933760  36.2706800  55.8031190
  59.5849910  36.7393140  56.2444800  60.5778240  35.6128810  56.4376380
  64.3249190  32.9957460  57.2426980  64.2016970  33.0143590  56.2936490
  65.2733750  33.0436400  57.3625380  61.4125980  48.2312760  56.5154960
  61.6667480  48.1934150  55.5934330  60.4638460  48.1046090  56.5083210
  58.4968780  34.5791880  53.1781900  59.3459310  35.0162030  53.1122090
  58.1300050  34.8912140  54.0053960  57.3960200  40.8324240  51.6517430
  58.1623470  40.7205600  52.2142860  57.4734890  40.1362210  50.9994200
  56.0906960  38.2649310  52.3350320  56.1710550  37.3176820  52.4467720
  56.9826710  38.5956190  52.4410980  56.8921670  48.4144700  59.4384860
  57.6284150  47.8660160  59.7093430  57.2762590  49.2800710  59.2990850
  53.7767150  44.4818270  55.3126370  52.8506930  44.7239410  55.3031780
  54.2423580  45.3092530  55.1911120  60.0023980  47.5875010  51.2610430
  60.7952590  47.8763840  50.8092220  59.4828330  47.1567180  50.5822910
  60.5201380  42.8078420  51.1252780  60.4152020  42.1930770  51.8514160
  60.3525600  42.2844310  50.3415790  63.7604110  41.8698450  51.7294770
  63.2114210  42.3167750  52.3737510  64.3823370  41.3647700  52.2532440
  59.4279230  40.8289370  53.6260070  59.8495650  40.6629240  54.4691460
  59.5530070  40.0189600  53.1315210  61.9406870  39.8526980  50.8737170
  62.4612530  39.1376000  50.5078320  62.5875270  40.4912850  51.1737680
  58.3238130  36.9022600  50.5718230  58.1227190  36.0389960  50.9331570
  58.1530180  36.8155960  49.6339830  65.8026440  31.7130830  53.1005110
  66.0828730  30.8698730  53.4564530  65.0292170  31.9453940  53.6143860
  57.1220930  34.0023220  50.5596110  57.4246830  34.0090650  49.6515260
  57.8615520  33.6521080  51.0563770  60.3405860  32.9457840  51.5452310
  59.9927860  32.2681830  50.9654760  60.5418630  32.4847350  52.3595700
  62.5054900  47.9338590  53.1638910  63.4005690  48.2723560  53.1857670
  62.5372530  47.2118000  52.5363190  56.1451060  43.3065640  51.3925910
  56.5825930  43.8495310  52.0483490  56.6298790  42.4812590  51.4022250
  53.3596860  46.0954670  58.8446170  53.6899870  45.2275730  58.6124810
  53.7887860  46.3013190  59.6751130  57.9558780  44.4263680  56.5048140
  57.6554320  44.3028650  57.4052050  57.8496270  43.5672270  56.0963870
  53.6811500  39.4745490  57.9416680  53.0260340  39.2057130  57.2976380
  54.5189450  39.3649970  57.4918660  52.8949580  36.6844420  53.8842010
  51.9913660  36.9474620  53.7093670  53.3790200  36.9555590  53.1041970
  55.4376790  35.7409960  51.7936390  56.1468490  35.3193180  51.3083670
  54.7216730  35.8085190  51.1619740  55.0850950  31.7949290  50.8339040
  55.8079080  32.3358230  51.1520260  55.3575470  31.5212710  49.9580580
  59.2084870  46.8996380  60.4995400  59.7249890  46.2883740  59.9743660
  59.8582250  47.4025160  60.9906410  53.8869770  48.0025770  56.9242750
  53.7191810  47.3696450  57.6224640  53.0204280  48.2085170  56.5736940
  54.5097790  31.8342550  54.4274610  55.2677150  31.9471430  53.8538640
  54.0474960  32.6711750  54.3818040  61.0511600  33.9481820  57.4176920
  60.2386110  33.5738710  57.0772800  61.5553240  33.1926900  57.7198110
  65.5536580  30.6124270  58.6559990  66.1565950  31.1844480  59.1308510
  64.8129570  31.1763710  58.4333890  55.4932470  46.6959000  54.3692890
  54.9680090  47.0767030  53.6654850  55.4177050  47.3209770  55.0902600
  56.8822940  32.3606600  52.9676580  57.4115700  31.5736400  52.8384530
  57.5151260  33.0397790  53.2012110  59.0760780  32.0981740  56.0221970
  58.4463520  31.3969050  56.1892100  58.5365920  32.8585870  55.8055130
  58.0925440  48.6441380  53.2442140  58.8244260  48.3600660  52.6966030
  58.3519110  48.4054660  54.1341520  57.2540230  44.7606110  53.2488470
  56.6249110  45.2291210  53.7974300  57.3688060  43.9155330  53.6834660
  64.7089950  38.8111770  39.3989670  64.6284000  37.8966380  39.1281380
  64.2954370  39.3078840  38.6929380  62.8407990  40.5890790  41.2798940
  62.0650090  40.1091230  41.5697510  63.4920920  39.9096440  41.1055100
  56.8573820  40.9010600  42.1574700  56.0258700  40.6459310  42.5571210
  57.4654800  40.9721370  42.8932620  56.8375080  44.9350690  42.3532720
  57.1403120  44.0448430  42.1742940  57.5818670  45.4920910  42.1254970
  55.2665770  35.8612490  35.9417090  54.3782470  36.2028460  35.8396970
  55.5506960  35.6612810  35.0497920  53.2298780  38.4618140  41.8256790
  53.8014890  37.6940340  41.8260430  53.2300320  38.7606900  40.9163400
  63.0878730  47.2808990  39.6802060  62.4690170  47.7366490  39.1096500
  63.9430510  47.4360450  39.2791760  62.2816980  43.2647980  41.2869100
  62.2125260  42.3237920  41.1258230  63.0436840  43.3549390  41.8591670
  54.4723650  33.8702500  43.6125720  54.2926490  32.9728250  43.8928480
  54.0703730  34.4174370  44.2872670  63.3122150  36.0718360  41.5138030
  63.6886970  35.1990240  41.4011700  63.2141660  36.4077060  40.6228470
  57.4427160  34.4443990  36.9755470  57.5493910  35.3447720  37.2824230
  56.5319520  34.3961960  36.6850120  55.0910320  36.3663000  42.2208060
  55.7720430  36.6301370  42.8395460  54.7758370  35.5263870  42.5546070
  59.2834890  37.4130360  41.3080650  59.7913110  37.9111330  41.9485670
  59.8148130  36.6365560  41.1320010  57.5670990  32.0528920  45.5744070
  57.5689430  32.5701310  44.7689970  56.7375300  31.5759100  45.5514000
  63.9542080  42.1648230  37.0733970  63.3359350  42.6297680  36.5096690
  64.4665330  42.8575710  37.4903480  58.8173840  41.6924100  43.7517570
  58.4843220  42.3193020  44.3938640  58.9940520  42.2185980  42.9719240
  57.2486320  33.7638880  43.5814520  57.5903130  34.6080930  43.2868390
  56.3102130  33.9122620  43.6979860  58.0292940  43.6604900  45.5666750
  58.6466940  44.3355980  45.2851200  57.1686060  44.0692880  45.4754250
  53.3225280  42.8504760  34.4473600  52.9453260  43.3391860  33.7158500
  53.5798350  43.5230040  35.0780130  60.9314210  31.2521150  39.9059110
  61.2389190  30.6968040  39.1894610  60.0014910  31.3865610  39.7232100
  63.3194970  39.3169980  36.6419230  62.3924250  39.2507360  36.8707700
  63.4719790  40.2550110  36.5274470  63.3064050  35.5886980  33.6386390
  62.3667720  35.7500940  33.7238850  63.6247310  36.3072660  33.0922380
  58.9251610  39.8434720  39.4238960  58.5208610  39.1311970  38.9284860
  59.0114730  39.4987960  40.3127000  59.3933310  43.5302280  41.5878170
  59.0961600  42.9247750  40.9085950  60.3433130  43.5679590  41.4767530
  57.6380230  36.6177930  43.2038000  58.1894820  36.7273270  42.4291250
  58.1523740  36.9915530  43.9193230  58.4851740  43.2683970  48.2385970
  57.5880270  43.4923940  48.4859370  58.5104610  43.3918910  47.2897370
  65.5256960  40.1177090  34.1527230  65.9650240  39.2799520  34.0065050
  66.2385380  40.7506490  34.2391370  57.3122960  40.1397290  46.8143340
  57.1730730  41.0120090  47.1830740  56.4304320  39.7970100  46.6691280
  63.6352340  45.0573160  38.1208470  64.0748250  45.7997490  37.7063860
  63.5739230  45.2999730  39.0447430  59.1103310  46.0818990  49.0228490
  59.0818740  46.4861940  48.1556920  58.9468280  45.1529350  48.8600090
  55.6256240  38.7379700  36.9245610  55.5053840  39.4641790  36.3126880
  55.3157130  37.9682610  36.4473520  53.2641610  41.9094840  42.7314250
  53.3422030  42.0443610  41.7869970  53.8783290  41.2010730  42.9242370
  54.5089240  43.6095030  39.1420430  54.1017320  43.7509620  38.2874030
  55.4002250  43.3255190  38.9391640  64.3268120  47.7586940  46.0487480
  64.8412790  47.6694950  46.8509910  63.4837200  48.1046640  46.3415390
  58.7810900  47.8240810  37.2543100  58.6053380  46.9076350  37.0410900
  57.9266640  48.1828100  37.4940900  65.5698580  47.1792550  38.1117970
  66.0255530  46.3981930  38.4256590  65.9091100  47.8899370  38.6559150
  53.3201130  42.9509010  45.2708710  53.4832170  42.4814370  44.4528080
  53.7853580  42.4432570  45.9357550  58.0919900  32.0814770  40.3069280
  57.6488050  32.8624310  39.9753800  58.6504890  32.4044660  41.0140220
  62.3789710  34.9483290  45.9104600  61.9169080  35.1566310  46.7224540
  61.9767820  34.1342640  45.6075270  64.4743930  37.6693990  49.1400050
  64.7997340  36.8357740  48.8002280  65.2624260  38.1922510  49.2878380
  61.2078720  31.7025470  35.1875110  60.5832900  31.6985340  35.9128420
  61.1208840  30.8356430  34.7911080  60.1295800  32.6262100  42.1658880
  60.4268130  33.5324930  42.0850900  60.6781360  32.1380880  41.5518450
  57.8834120  37.2048340  38.0350530  57.6575040  36.9885510  38.9397150
  57.1026650  37.6376800  37.6896500  65.1131880  37.2111710  36.6341180
  64.5140770  37.9347510  36.4504800  65.6611490  37.1488490  35.8517630
  60.3233330  38.1033920  48.7010800  60.2276930  37.1628650  48.5511200
  61.1665310  38.3248990  48.3058870  63.7196750  35.8475250  38.6644460
  64.1126320  36.1647450  37.8513150  64.0813600  34.9687130  38.7788980
  55.4543870  34.5147590  46.8544580  55.0607260  35.3622800  47.0617360
  54.7662270  33.8773960  47.0453220  62.0288920  34.5982560  49.9241320
  61.3387240  34.4054760  50.5587410  62.7721220  34.8817200  50.4565620
  52.7560920  32.4376050  40.8874660  52.4673970  33.0078910  41.5999640
  53.5006680  31.9580500  41.2505890  52.9431150  36.3796170  32.0977380
  52.8605820  37.3226930  32.2392370  52.5914210  36.2371080  31.2189730
  64.3051890  38.4381000  42.7595240  63.5733010  38.9467810  43.1085340
  63.9076230  37.6210980  42.4584020  60.7429280  35.1135200  41.1647730
  60.7465340  34.6725150  40.3152270  61.6380400  35.4352530  41.2719550
  56.5931660  34.9961690  40.1241940  56.2531710  35.4736920  40.8808990
  55.8308980  34.5426810  39.7643040  60.8049430  36.1147280  34.1554490
  60.9262250  36.0733760  35.1040310  60.4197940  36.9771430  34.0001220
  64.7677800  33.8914680  42.1718180  64.7850540  34.3423330  43.0160030
  64.5193380  32.9920320  42.3851620  59.8170930  38.4248420  33.5537790
  59.2487830  37.9766670  32.9273700  60.5259930  38.7841200  33.0202940
  54.8940110  42.3260440  47.4304520  54.5094900  41.6854110  48.0287480
  55.2052300  43.0296560  47.9999250  61.0437250  39.1736980  42.9113140
  61.4107380  38.6995550  43.6574480  60.8542310  40.0478550  43.2521480
  53.9077740  33.9180670  39.0406610  53.6224660  33.5536340  39.8785230
  53.8456600  33.1861130  38.4269750  58.8336620  38.2145620  45.2297350
  58.5293690  39.0937600  45.4547710  59.7883080  38.2745410  45.2654790
  57.3618410  42.4206610  35.8264200  56.5880670  41.8804230  35.6662920
  58.0913040  41.9013220  35.4881960  63.5816330  32.8109930  35.7619980
  62.7680940  32.3123100  35.6865290  63.3878280  33.6508180  35.3456330
  63.5025190  41.4881030  47.5059590  63.4362500  40.5676700  47.2517180
  62.8730330  41.5856470  48.2204230  57.4055810  42.0886990  39.4643010
  57.9234480  41.2855250  39.4099900  56.9539830  42.0266130  40.3059840
  62.2925310  43.3553270  34.7370310  62.6341010  44.0995500  34.2413630
  61.4638020  43.6684390  35.0995140  54.8900350  39.0548360  46.3768710
  54.5315290  39.7202210  46.9642050  54.5954910  38.2231910  46.7481330
  58.0913470  39.5132600  49.2608260  57.7913610  39.6589780  48.3636080
  58.8624710  38.9537890  49.1681650  63.4341920  44.3101600  47.2563390
  63.4486460  43.3782560  47.0382300  62.7267020  44.3961360  47.8953160
  65.1752720  42.6769110  40.1015820  65.5276540  42.0797240  39.4417190
  64.2915050  42.3513340  40.2724070  61.2616000  43.4366800  37.5086230
  61.9487130  43.9836010  37.8893820  60.4748420  43.9807530  37.5435840
  53.4008400  39.0539620  33.0003310  54.2703250  39.3364420  33.2839230
  52.9098720  39.8675490  32.8852120  60.5643210  40.4412830  37.1211590
  61.0205990  41.2518080  37.3471780  60.2131420  40.1235970  37.9530080
  62.8675820  45.9519170  44.3503890  63.5118040  46.1578550  45.0277310
  63.2305260  45.1907570  43.8974740  56.4654990  30.7850480  37.5934110
  56.3369620  30.7768380  38.5419030  55.6417010  31.1233570  37.2425120
  64.1407900  43.9551520  43.0681340  64.7830130  43.2544680  43.1813510
  64.6657250  44.7349960  42.8878230  65.9145520  44.7546420  46.2717400
  66.2501760  45.3413110  46.9495320  64.9945860  44.6239130  46.5015190
  53.7679650  48.2667000  33.5664940  54.1277290  48.8656340  32.9122210
  53.6271990  48.8126890  34.3399970  53.4648920  32.5441600  47.0540810
  52.7507440  32.7438520  47.6593420  53.8843960  31.7681170  47.4255610
  53.7521510  46.5321860  48.0407340  53.8612630  45.5916600  47.9002730
  53.1002070  46.7976610  47.3921070  61.7434100  44.8037750  49.4405460
  61.4230970  44.0846990  49.9851150  61.0692460  45.4792820  49.5141520
  59.7848270  45.6498200  34.3838610  59.7758370  46.3827890  33.7683120
  58.8646630  45.4029780  34.4765570  55.3854910  40.8713090  35.1285370
  54.7782860  41.6111990  35.1380670  55.8604260  40.9612450  34.3023570
  64.9587700  35.0363910  44.8042260  65.3268520  34.2159120  45.1321830
  64.0985900  35.0965800  45.2197910  62.7707870  45.7126440  33.0463800
  62.8719850  45.5090430  32.1165780  61.8709610  45.4584720  33.2511580
  60.2933760  36.2706800  37.0287700  59.5849910  36.7393140  37.4701310
  60.5778240  35.6128810  37.6632890  61.9189690  37.6903500  45.0280230
  62.4174940  38.1649320  45.6932080  62.0612640  36.7667020  45.2350260
  64.3249190  32.9957460  38.4683490  64.2016970  33.0143590  37.5193000
  65.2733750  33.0436400  38.5881890  61.4125980  48.2312760  37.7411470
  61.6667480  48.1934150  36.8190840  60.4638460  48.1046090  37.7339720
  58.4968780  34.5791880  34.4038410  59.3459310  35.0162030  34.3378600
  58.1300050  34.8912140  35.2310470  57.3960200  40.8324240  32.8773940
  58.1623470  40.7205600  33.4399370  57.4734890  40.1362210  32.2250710
  56.0906960  38.2649310  33.5606830  56.1710550  37.3176820  33.6724230
  56.9826710  38.5956190  33.6667490  56.8921670  48.4144700  40.6641370
  57.6284150  47.8660160  40.9349940  57.2762590  49.2800710  40.5247360
  53.7767150  44.4818270  36.5382880  52.8506930  44.7239410  36.5288290
  54.2423580  45.3092530  36.4167630  55.8979950  47.5990770  49.8526950
  56.6992680  47.9202820  50.2662350  55.3831770  47.2386350  50.5746860
  60.0023980  47.5875010  32.4866940  60.7952590  47.8763840  32.0348730
  59.4828330  47.1567180  31.8079420  64.7344580  43.7070640  49.8002360
  64.1282740  43.7302240  49.0598110  64.4298690  42.9753680  50.3369610
  53.6177760  40.0864230  48.7963000  54.1216780  39.5071510  49.3679230
  52.8785180  40.3704460  49.3339370  60.5201380  42.8078420  32.3509290
  60.4152020  42.1930770  33.0770670  60.3525600  42.2844310  31.5672300
  60.6715700  41.4935220  48.3298520  59.9061370  42.0620220  48.2453190
  60.8531660  41.2011430  47.4366750  63.7604110  41.8698450  32.9551280
  63.2114210  42.3167750  33.5994020  64.3823370  41.3647700  33.4788950
  55.6500840  38.2293820  49.6913070  55.6906180  37.9307690  50.5998300
  56.5046340  38.6301430  49.5320590  59.4279230  40.8289370  34.8516580
  59.8495650  40.6629240  35.6947970  59.5530070  40.0189600  34.3571720
  57.5906650  36.8085920  47.6587560  57.0603110  36.3176870  47.0310900
  58.2594720  37.2370120  47.1245490  61.9406870  39.8526980  32.0993680
  62.4612530  39.1376000  31.7334830  62.5875270  40.4912850  32.3994190
  58.0778950  33.7748290  47.7384850  57.9835820  33.1569040  47.0135720
  57.4976340  34.5014580  47.5114760  60.8440390  32.3321530  44.7712240
  60.3957690  32.3545790  43.9257790  60.2105590  31.9340550  45.3682540
  61.2499940  41.2275860  45.3924680  61.6688050  42.0708590  45.2200920
  60.3308570  41.3647900  45.1631460  63.5863840  38.9592040  46.7762520
  63.7060050  38.3633180  47.5157360  64.4457840  38.9961730  46.3563820
  58.3238130  36.9022600  31.7974740  58.1227190  36.0389960  32.1588080
  58.1530180  36.8155960  30.8596340  59.1007360  47.5328870  46.5082410
  58.5628450  48.2574930  46.1891110  59.3541320  47.0559210  45.7179750
  60.3532610  35.5013390  48.0338340  60.9432300  35.1929240  48.7216160
  59.5352850  35.0293140  48.1898240  65.1726040  35.1179200  48.2671360
  64.4841560  34.4560740  48.2021350  65.8932060  34.6717470  48.7119820
  65.8026440  31.7130830  34.3261620  66.0828730  30.8698730  34.6821040
  65.0292170  31.9453940  34.8400370  57.1220930  34.0023220  31.7852620
  57.4246830  34.0090650  30.8771770  57.8615520  33.6521080  32.2820280
  61.9569570  48.7680080  46.7669060  61.8828270  49.6715220  47.0741430
  61.0548410  48.4491980  46.7391130  60.3405860  32.9457840  32.7708820
  59.9927860  32.2681830  32.1911270  60.5418630  32.4847350  33.5852210
  62.5054900  47.9338590  34.3895420  63.4005690  48.2723560  34.4114180
  62.5372530  47.2118000  33.7619700  56.1451060  43.3065640  32.6182420
  56.5825930  43.8495310  33.2740000  56.6298790  42.4812590  32.6278760
  53.3596860  46.0954670  40.0702680  53.6899870  45.2275730  39.8381320
  53.7887860  46.3013190  40.9007640  57.9558780  44.4263680  37.7304650
  57.6554320  44.3028650  38.6308560  57.8496270  43.5672270  37.3220380
  53.8487070  46.9625260  42.8084310  53.4118060  47.1426060  43.6408460
  54.4164750  47.7199880  42.6666030  53.6811500  39.4745490  39.1673190
  53.0260340  39.2057130  38.5232890  54.5189450  39.3649970  38.7175170
  54.7187430  39.8598060  43.7076530  55.0860470  39.7725460  44.5872550
  54.1498250  39.0964610  43.6083390  54.2703430  36.7707150  47.6134950
  53.3759480  36.7373910  47.9528660  54.8100980  36.9693940  48.3786200
  55.4376790  35.7409960  33.0192900  56.1468490  35.3193180  32.5340180
  54.7216730  35.8085190  32.3876250  55.0850950  31.7949290  32.0595550
  55.8079080  32.3358230  32.3776770  55.3575470  31.5212710  31.1837090
  54.7743140  31.0455480  41.9618170  55.4219330  30.4952860  41.5213330
  55.1944980  31.2998630  42.7833980  54.5275140  31.2011150  44.7043490
  54.1789960  31.6574970  45.4701670  54.1962840  30.3068280  44.7865920
  56.1339510  44.3730750  48.8696680  56.0909140  44.0023660  49.7511140
  56.2650520  45.3108320  49.0098500  59.8345540  45.9290340  44.4706400
  59.5936900  46.1964900  43.5836920  60.7748180  46.0996070  44.5257260
  62.0399960  32.3923030  48.2262910  61.9788850  32.9844860  48.9758320
  62.9800340  32.2848990  48.0813170  64.6774520  32.0493090  47.8655200
  65.2914930  32.3672380  47.2036280  65.2224080  31.5641680  48.4851060
  55.1995780  30.7287350  47.9794260  55.7478770  30.5475400  47.2160370
  55.2651090  29.9381460  48.5150570  55.9727540  47.3193000  45.9894460
  55.3787860  47.1877700  46.7284500  55.9651380  46.4831140  45.5236560
  65.4182560  30.6125230  44.1924490  64.5442400  30.9460340  43.9897420
  65.3093310  30.1398410  45.0176360  55.6039770  44.6851380  44.9402500
  54.8773830  44.0656670  44.8728450  55.6648920  45.0791990  44.0700580
  59.2084870  46.8996380  41.7251910  59.7249890  46.2883740  41.2000170
  59.8582250  47.4025160  42.2162920  61.9480370  47.7904870  42.5520890
  62.2358180  47.5359170  41.6753900  62.4603590  47.2382230  43.1426460
  63.1657380  31.5295070  43.1317400  62.3829170  32.0040570  43.4114160
  62.8720310  30.6249900  43.0230580  53.8869770  48.0025770  38.1499260
  53.7191810  47.3696450  38.8481150  53.0204280  48.2085170  37.7993450
  54.5097790  31.8342550  35.6531120  55.2677150  31.9471430  35.0795150
  54.0474960  32.6711750  35.6074550  61.0511600  33.9481820  38.6433430
  60.2386110  33.5738710  38.3029310  61.5553240  33.1926900  38.9454620
  65.5536580  30.6124270  39.8816500  66.1565950  31.1844480  40.3565020
  64.8129570  31.1763710  39.6590400  55.4932470  46.6959000  35.5949400
  54.9680090  47.0767030  34.8911360  55.4177050  47.3209770  36.3159110
  56.8822940  32.3606600  34.1933090  57.4115700  31.5736400  34.0641040
  57.5151260  33.0397790  34.4268620  59.0760780  32.0981740  37.2478480
  58.4463520  31.3969050  37.4148610  58.5365920  32.8585870  37.0311640
  62.0152730  48.7120970  49.9189090  62.9420040  48.4765240  49.9625050
  62.0003160  49.5392970  49.4375120  59.2016340  31.3765720  49.6830970
  58.9200610  31.8799320  48.9191790  59.5836040  30.5787470  49.3173100
  58.0925440  48.6441380  34.4698650  58.8244260  48.3600660  33.9222540
  58.3519110  48.4054660  35.3598030  57.2540230  44.7606110  34.4744980
  56.6249110  45.2291210  35.0230810  57.3688060  43.9155330  34.9091170
  64.7089950  38.8111770  20.6246180  64.6284000  37.8966380  20.3537890
  64.2954370  39.3078840  19.9185890  62.8407990  40.5890790  22.5055450
  62.0650090  40.1091230  22.7954020  63.4920920  39.9096440  22.3311610
  56.8573820  40.9010600  23.3831210  56.0258700  40.6459310  23.7827720
  57.4654800  40.9721370  24.1189130  56.8375080  44.9350690  23.5789230
  57.1403120  44.0448430  23.3999450  57.5818670  45.4920910  23.3511480
  55.2665770  35.8612490  17.1673600  54.3782470  36.2028460  17.0653480
  55.5506960  35.6612810  16.2754430  53.2298780  38.4618140  23.0513300
  53.8014890  37.6940340  23.0516940  53.2300320  38.7606900  22.1419910
  63.0878730  47.2808990  20.9058570  62.4690170  47.7366490  20.3353010
  63.9430510  47.4360450  20.5048270  62.2816980  43.2647980  22.5125610
  62.2125260  42.3237920  22.3514740  63.0436840  43.3549390  23.0848180
  54.4723650  33.8702500  24.8382230  54.2926490  32.9728250  25.1184990
  54.0703730  34.4174370  25.5129180  63.3122150  36.0718360  22.7394540
  63.6886970  35.1990240  22.6268210  63.2141660  36.4077060  21.8484980
  57.4427160  34.4443990  18.2011980  57.5493910  35.3447720  18.5080740
  56.5319520  34.3961960  17.9106630  55.0910320  36.3663000  23.4464570
  55.7720430  36.6301370  24.0651970  54.7758370  35.5263870  23.7802580
  59.2834890  37.4130360  22.5337160  59.7913110  37.9111330  23.1742180
  59.8148130  36.6365560  22.3576520  57.5670990  32.0528920  26.8000580
  57.5689430  32.5701310  25.9946480  56.7375300  31.5759100  26.7770510
  63.9542080  42.1648230  18.2990480  63.3359350  42.6297680  17.7353200
  64.4665330  42.8575710  18.7159990  58.8173840  41.6924100  24.9774080
  58.4843220  42.3193020  25.6195150  58.9940520  42.2185980  24.1975750
  57.2486320  33.7638880  24.8071030  57.5903130  34.6080930  24.5124900
  56.3102130  33.9122620  24.9236370  58.0292940  43.6604900  26.7923260
  58.6466940  44.3355980  26.5107710  57.1686060  44.0692880  26.7010760
  53.3225280  42.8504760  15.6730110  52.9453260  43.3391860  14.9415010
  53.5798350  43.5230040  16.3036640  60.9314210  31.2521150  21.1315620
  61.2389190  30.6968040  20.4151120  60.0014910  31.3865610  20.9488610
  63.3194970  39.3169980  17.8675740  62.3924250  39.2507360  18.0964210
  63.4719790  40.2550110  17.7530980  63.3064050  35.5886980  14.8642900
  62.3667720  35.7500940  14.9495360  63.6247310  36.3072660  14.3178890
  58.9251610  39.8434720  20.6495470  58.5208610  39.1311970  20.1541370
  59.0114730  39.4987960  21.5383510  59.3933310  43.5302280  22.8134680
  59.0961600  42.9247750  22.1342460  60.3433130  43.5679590  22.7024040
  57.6380230  36.6177930  24.4294510  58.1894820  36.7273270  23.6547760
  58.1523740  36.9915530  25.1449740  58.4851740  43.2683970  29.4642480
  57.5880270  43.4923940  29.7115880  58.5104610  43.3918910  28.5153880
  65.5256960  40.1177090  15.3783740  65.9650240  39.2799520  15.2321560
  66.2385380  40.7506490  15.4647880  57.3122960  40.1397290  28.0399850
  57.1730730  41.0120090  28.4087250  56.4304320  39.7970100  27.8947790
  63.6352340  45.0573160  19.3464980  64.0748250  45.7997490  18.9320370
  63.5739230  45.2999730  20.2703940  59.1103310  46.0818990  30.2485000
  59.0818740  46.4861940  29.3813430  58.9468280  45.1529350  30.0856600
  55.6256240  38.7379700  18.1502120  55.5053840  39.4641790  17.5383390
  55.3157130  37.9682610  17.6730030  53.2641610  41.9094840  23.9570760
  53.3422030  42.0443610  23.0126480  53.8783290  41.2010730  24.1498880
  54.5089240  43.6095030  20.3676940  54.1017320  43.7509620  19.5130540
  55.4002250  43.3255190  20.1648150  64.3268120  47.7586940  27.2743990
  64.8412790  47.6694950  28.0766420  63.4837200  48.1046640  27.5671900
  58.7810900  47.8240810  18.4799610  58.6053380  46.9076350  18.2667410
  57.9266640  48.1828100  18.7197410  65.5698580  47.1792550  19.3374480
  66.0255530  46.3981930  19.6513100  65.9091100  47.8899370  19.8815660
  53.3201130  42.9509010  26.4965220  53.4832170  42.4814370  25.6784590
  53.7853580  42.4432570  27.1614060  58.0919900  32.0814770  21.5325790
  57.6488050  32.8624310  21.2010310  58.6504890  32.4044660  22.2396730
  62.3789710  34.9483290  27.1361110  61.9169080  35.1566310  27.9481050
  61.9767820  34.1342640  26.8331780  64.4743930  37.6693990  30.3656560
  64.7997340  36.8357740  30.0258790  65.2624260  38.1922510  30.5134890
  61.2078720  31.7025470  16.4131620  60.5832900  31.6985340  17.1384930
  61.1208840  30.8356430  16.0167590  60.1295800  32.6262100  23.3915390
  60.4268130  33.5324930  23.3107410  60.6781360  32.1380880  22.7774960
  57.8834120  37.2048340  19.2607040  57.6575040  36.9885510  20.1653660
  57.1026650  37.6376800  18.9153010  65.1131880  37.2111710  17.8597690
  64.5140770  37.9347510  17.6761310  65.6611490  37.1488490  17.0774140
  60.3233330  38.1033920  29.9267310  60.2276930  37.1628650  29.7767710
  61.1665310  38.3248990  29.5315380  63.7196750  35.8475250  19.8900970
  64.1126320  36.1647450  19.0769660  64.0813600  34.9687130  20.0045490
  55.4543870  34.5147590  28.0801090  55.0607260  35.3622800  28.2873870
  54.7662270  33.8773960  28.2709730  62.0288920  34.5982560  31.1497830
  61.3387240  34.4054760  31.7843920  62.7721220  34.8817200  31.6822130
  52.7560920  32.4376050  22.1131170  52.4673970  33.0078910  22.8256150
  53.5006680  31.9580500  22.4762400  52.9431150  36.3796170  13.3233890
  52.8605820  37.3226930  13.4648880  52.5914210  36.2371080  12.4446240
  64.3051890  38.4381000  23.9851750  63.5733010  38.9467810  24.3341850
  63.9076230  37.6210980  23.6840530  60.7429280  35.1135200  22.3904240
  60.7465340  34.6725150  21.5408780  61.6380400  35.4352530  22.4976060
  56.5931660  34.9961690  21.3498450  56.2531710  35.4736920  22.1065500
  55.8308980  34.5426810  20.9899550  60.8049430  36.1147280  15.3811000
  60.9262250  36.0733760  16.3296820  60.4197940  36.9771430  15.2257730
  64.7677800  33.8914680  23.3974690  64.7850540  34.3423330  24.2416540
  64.5193380  32.9920320  23.6108130  59.8170930  38.4248420  14.7794300
  59.2487830  37.9766670  14.1530210  60.5259930  38.7841200  14.2459450
  54.8940110  42.3260440  28.6561030  54.5094900  41.6854110  29.2543990
  55.2052300  43.0296560  29.2255760  61.0437250  39.1736980  24.1369650
  61.4107380  38.6995550  24.8830990  60.8542310  40.0478550  24.4777990
  53.9077740  33.9180670  20.2663120  53.6224660  33.5536340  21.1041740
  53.8456600  33.1861130  19.6526260  58.8336620  38.2145620  26.4553860
  58.5293690  39.0937600  26.6804220  59.7883080  38.2745410  26.4911300
  57.3618410  42.4206610  17.0520710  56.5880670  41.8804230  16.8919430
  58.0913040  41.9013220  16.7138470  63.5816330  32.8109930  16.9876490
  62.7680940  32.3123100  16.9121800  63.3878280  33.6508180  16.5712840
  63.5025190  41.4881030  28.7316100  63.4362500  40.5676700  28.4773690
  62.8730330  41.5856470  29.4460740  57.4055810  42.0886990  20.6899520
  57.9234480  41.2855250  20.6356410  56.9539830  42.0266130  21.5316350
  62.2925310  43.3553270  15.9626820  62.6341010  44.0995500  15.4670140
  61.4638020  43.6684390  16.3251650  54.8900350  39.0548360  27.6025220
  54.5315290  39.7202210  28.1898560  54.5954910  38.2231910  27.9737840
  58.0913470  39.5132600  30.4864770  57.7913610  39.6589780  29.5892590
  58.8624710  38.9537890  30.3938160  63.4341920  44.3101600  28.4819900
  63.4486460  43.3782560  28.2638810  62.7267020  44.3961360  29.1209670
  65.1752720  42.6769110  21.3272330  65.5276540  42.0797240  20.6673700
  64.2915050  42.3513340  21.4980580  61.2616000  43.4366800  18.7342740
  61.9487130  43.9836010  19.1150330  60.4748420  43.9807530  18.7692350
  53.4008400  39.0539620  14.2259820  54.2703250  39.3364420  14.5095740
  52.9098720  39.8675490  14.1108630  60.5643210  40.4412830  18.3468100
  61.0205990  41.2518080  18.5728290  60.2131420  40.1235970  19.1786590
  62.8675820  45.9519170  25.5760400  63.5118040  46.1578550  26.2533820
  63.2305260  45.1907570  25.1231250  56.4654990  30.7850480  18.8190620
  56.3369620  30.7768380  19.7675540  55.6417010  31.1233570  18.4681630
  64.1407900  43.9551520  24.2937850  64.7830130  43.2544680  24.4070020
  64.6657250  44.7349960  24.1134740  65.9145520  44.7546420  27.4973910
  66.2501760  45.3413110  28.1751830  64.9945860  44.6239130  27.7271700
  53.7679650  48.2667000  14.7921450  54.1277290  48.8656340  14.1378720
  53.6271990  48.8126890  15.5656480  53.4648920  32.5441600  28.2797320
  52.7507440  32.7438520  28.8849930  53.8843960  31.7681170  28.6512120
  53.7521510  46.5321860  29.2663850  53.8612630  45.5916600  29.1259240
  53.1002070  46.7976610  28.6177580  61.7434100  44.8037750  30.6661970
  61.4230970  44.0846990  31.2107660  61.0692460  45.4792820  30.7398030
  59.7848270  45.6498200  15.6095120  59.7758370  46.3827890  14.9939630
  58.8646630  45.4029780  15.7022080  55.3854910  40.8713090  16.3541880
  54.7782860  41.6111990  16.3637180  55.8604260  40.9612450  15.5280080
  64.9587700  35.0363910  26.0298770  65.3268520  34.2159120  26.3578340
  64.0985900  35.0965800  26.4454420  62.7707870  45.7126440  14.2720310
  62.8719850  45.5090430  13.3422290  61.8709610  45.4584720  14.4768090
  60.2933760  36.2706800  18.2544210  59.5849910  36.7393140  18.6957820
  60.5778240  35.6128810  18.8889400  61.9189690  37.6903500  26.2536740
  62.4174940  38.1649320  26.9188590  62.0612640  36.7667020  26.4606770
  64.3249190  32.9957460  19.6940000  64.2016970  33.0143590  18.7449510
  65.2733750  33.0436400  19.8138400  61.4125980  48.2312760  18.9667980
  61.6667480  48.1934150  18.0447350  60.4638460  48.1046090  18.9596230
  58.4968780  34.5791880  15.6294920  59.3459310  35.0162030  15.5635110
  58.1300050  34.8912140  16.4566980  57.3960200  40.8324240  14.1030450
  58.1623470  40.7205600  14.6655880  57.4734890  40.1362210  13.4507220
  56.0906960  38.2649310  14.7863340  56.1710550  37.3176820  14.8980740
  56.9826710  38.5956190  14.8924000  56.8921670  48.4144700  21.8897880
  57.6284150  47.8660160  22.1606450  57.2762590  49.2800710  21.7503870
  53.7767150  44.4818270  17.7639390  52.8506930  44.7239410  17.7544800
  54.2423580  45.3092530  17.6424140  55.8979950  47.5990770  31.0783460
  56.6992680  47.9202820  31.4918860  55.3831770  47.2386350  31.8003370
  60.0023980  47.5875010  13.7123450  60.7952590  47.8763840  13.2605240
  59.4828330  47.1567180  13.0335930  64.7344580  43.7070640  31.0258870
  64.1282740  43.7302240  30.2854620  64.4298690  42.9753680  31.5626120
  53.6177760  40.0864230  30.0219510  54.1216780  39.5071510  30.5935740
  52.8785180  40.3704460  30.5595880  60.5201380  42.8078420  13.5765800
  60.4152020  42.1930770  14.3027180  60.3525600  42.2844310  12.7928810
  60.6715700  41.4935220  29.5555030  59.9061370  42.0620220  29.4709700
  60.8531660  41.2011430  28.6623260  63.7604110  41.8698450  14.1807790
  63.2114210  42.3167750  14.8250530  64.3823370  41.3647700  14.7045460
  55.6500840  38.2293820  30.9169580  55.6906180  37.9307690  31.8254810
  56.5046340  38.6301430  30.7577100  59.4279230  40.8289370  16.0773090
  59.8495650  40.6629240  16.9204480  59.5530070  40.0189600  15.5828230
  57.5906650  36.8085920  28.8844070  57.0603110  36.3176870  28.2567410
  58.2594720  37.2370120  28.3502000  61.9406870  39.8526980  13.3250190
  62.4612530  39.1376000  12.9591340  62.5875270  40.4912850  13.6250700
  58.0778950  33.7748290  28.9641360  57.9835820  33.1569040  28.2392230
  57.4976340  34.5014580  28.7371270  60.8440390  32.3321530  25.9968750
  60.3957690  32.3545790  25.1514300  60.2105590  31.9340550  26.5939050
  61.2499940  41.2275860  26.6181190  61.6688050  42.0708590  26.4457430
  60.3308570  41.3647900  26.3887970  63.5863840  38.9592040  28.0019030
  63.7060050  38.3633180  28.7413870  64.4457840  38.9961730  27.5820330
  58.3238130  36.9022600  13.0231250  58.1227190  36.0389960  13.3844590
  58.1530180  36.8155960  12.0852850  59.1007360  47.5328870  27.7338920
  58.5628450  48.2574930  27.4147620  59.3541320  47.0559210  26.9436260
  60.3532610  35.5013390  29.2594850  60.9432300  35.1929240  29.9472670
  59.5352850  35.0293140  29.4154750  65.1726040  35.1179200  29.4927870
  64.4841560  34.4560740  29.4277860  65.8932060  34.6717470  29.9376330
  65.8026440  31.7130830  15.5518130  66.0828730  30.8698730  15.9077550
  65.0292170  31.9453940  16.0656880  57.1220930  34.0023220  13.0109130
  57.4246830  34.0090650  12.1028280  57.8615520  33.6521080  13.5076790
  61.9569570  48.7680080  27.9925570  61.8828270  49.6715220  28.2997940
  61.0548410  48.4491980  27.9647640  60.3405860  32.9457840  13.9965330
  59.9927860  32.2681830  13.4167780  60.5418630  32.4847350  14.8108720
  62.5054900  47.9338590  15.6151930  63.4005690  48.2723560  15.6370690
  62.5372530  47.2118000  14.9876210  56.1451060  43.3065640  13.8438930
  56.5825930  43.8495310  14.4996510  56.6298790  42.4812590  13.8535270
  53.3596860  46.0954670  21.2959190  53.6899870  45.2275730  21.0637830
  53.7887860  46.3013190  22.1264150  57.9558780  44.4263680  18.9561160
  57.6554320  44.3028650  19.8565070  57.8496270  43.5672270  18.5476890
  53.8487070  46.9625260  24.0340820  53.4118060  47.1426060  24.8664970
  54.4164750  47.7199880  23.8922540  53.6811500  39.4745490  20.3929700
  53.0260340  39.2057130  19.7489400  54.5189450  39.3649970  19.9431680
  54.7187430  39.8598060  24.9333040  55.0860470  39.7725460  25.8129060
  54.1498250  39.0964610  24.8339900  54.2703430  36.7707150  28.8391460
  53.3759480  36.7373910  29.1785170  54.8100980  36.9693940  29.6042710
  52.8949580  36.6844420  16.3355030  51.9913660  36.9474620  16.1606690
  53.3790200  36.9555590  15.5554990  55.4376790  35.7409960  14.2449410
  56.1468490  35.3193180  13.7596690  54.7216730  35.8085190  13.6132760
  55.0850950  31.7949290  13.2852060  55.8079080  32.3358230  13.6033280
  55.3575470  31.5212710  12.4093600  54.7743140  31.0455480  23.1874680
  55.4219330  30.4952860  22.7469840  55.1944980  31.2998630  24.0090490
  54.5275140  31.2011150  25.9300000  54.1789960  31.6574970  26.6958180
  54.1962840  30.3068280  26.0122430  56.1339510  44.3730750  30.0953190
  56.0909140  44.0023660  30.9767650  56.2650520  45.3108320  30.2355010
  59.8345540  45.9290340  25.6962910  59.5936900  46.1964900  24.8093430
  60.7748180  46.0996070  25.7513770  62.0399960  32.3923030  29.4519420
  61.9788850  32.9844860  30.2014830  62.9800340  32.2848990  29.3069680
  64.6774520  32.0493090  29.0911710  65.2914930  32.3672380  28.4292790
  65.2224080  31.5641680  29.7107570  55.1995780  30.7287350  29.2050770
  55.7478770  30.5475400  28.4416880  55.2651090  29.9381460  29.7407080
  55.9727540  47.3193000  27.2150970  55.3787860  47.1877700  27.9541010
  55.9651380  46.4831140  26.7493070  65.4182560  30.6125230  25.4181000
  64.5442400  30.9460340  25.2153930  65.3093310  30.1398410  26.2432870
  55.6039770  44.6851380  26.1659010  54.8773830  44.0656670  26.0984960
  55.6648920  45.0791990  25.2957090  59.2084870  46.8996380  22.9508420
  59.7249890  46.2883740  22.4256680  59.8582250  47.4025160  23.4419430
  61.9480370  47.7904870  23.7777400  62.2358180  47.5359170  22.9010410
  62.4603590  47.2382230  24.3682970  63.1657380  31.5295070  24.3573910
  62.3829170  32.0040570  24.6370670  62.8720310  30.6249900  24.2487090
  53.8869770  48.0025770  19.3755770  53.7191810  47.3696450  20.0737660
  53.0204280  48.2085170  19.0249960  54.5097790  31.8342550  16.8787630
  55.2677150  31.9471430  16.3051660  54.0474960  32.6711750  16.8331060
  61.0511600  33.9481820  19.8689940  60.2386110  33.5738710  19.5285820
  61.5553240  33.1926900  20.1711130  65.5536580  30.6124270  21.1073010
  66.1565950  31.1844480  21.5821530  64.8129570  31.1763710  20.8846910
  55.4932470  46.6959000  16.8205910  54.9680090  47.0767030  16.1167870
  55.4177050  47.3209770  17.5415620  56.8822940  32.3606600  15.4189600
  57.4115700  31.5736400  15.2897550  57.5151260  33.0397790  15.6525130
  59.0760780  32.0981740  18.4734990  58.4463520  31.3969050  18.6405120
  58.5365920  32.8585870  18.2568150  62.0152730  48.7120970  31.1445600
  62.9420040  48.4765240  31.1881560  62.0003160  49.5392970  30.6631630
  59.2016340  31.3765720  30.9087480  58.9200610  31.8799320  30.1448300
  59.5836040  30.5787470  30.5429610  58.0925440  48.6441380  15.6955160
  58.8244260  48.3600660  15.1479050  58.3519110  48.4054660  16.5854540
  57.2540230  44.7606110  15.7001490  56.6249110  45.2291210  16.2487320
  57.3688060  43.9155330  16.1347680  62.8407990  40.5890790   3.7311960
  62.0650090  40.1091230   4.0210530  63.4920920  39.9096440   3.5568120
  56.8573820  40.9010600   4.6087720  56.0258700  40.6459310   5.0084230
  57.4654800  40.9721370   5.3445640  56.8375080  44.9350690   4.8045740
  57.1403120  44.0448430   4.6255960  57.5818670  45.4920910   4.5767990
  53.2298780  38.4618140   4.2769810  53.8014890  37.6940340   4.2773450
  53.2300320  38.7606900   3.3676420  62.2816980  43.2647980   3.7382120
  62.2125260  42.3237920   3.5771250  63.0436840  43.3549390   4.3104690
  54.4723650  33.8702500   6.0638740  54.2926490  32.9728250   6.3441500
  54.0703730  34.4174370   6.7385690  63.3122150  36.0718360   3.9651050
  63.6886970  35.1990240   3.8524720  63.2141660  36.4077060   3.0741490
  55.0910320  36.3663000   4.6721080  55.7720430  36.6301370   5.2908480
  54.7758370  35.5263870   5.0059090  59.2834890  37.4130360   3.7593670
  59.7913110  37.9111330   4.3998690  59.8148130  36.6365560   3.5833030
  57.5670990  32.0528920   8.0257090  57.5689430  32.5701310   7.2202990
  56.7375300  31.5759100   8.0027020  58.8173840  41.6924100   6.2030590
  58.4843220  42.3193020   6.8451660  58.9940520  42.2185980   5.4232260
  57.2486320  33.7638880   6.0327540  57.5903130  34.6080930   5.7381410
  56.3102130  33.9122620   6.1492880  58.0292940  43.6604900   8.0179770
  58.6466940  44.3355980   7.7364220  57.1686060  44.0692880   7.9267270
  59.3933310  43.5302280   4.0391190  59.0961600  42.9247750   3.3598970
  60.3433130  43.5679590   3.9280550  57.6380230  36.6177930   5.6551020
  58.1894820  36.7273270   4.8804270  58.1523740  36.9915530   6.3706250
  58.4851740  43.2683970  10.6898990  57.5880270  43.4923940  10.9372390
  58.5104610  43.3918910   9.7410390  57.3122960  40.1397290   9.2656360
  57.1730730  41.0120090   9.6343760  56.4304320  39.7970100   9.1204300
  59.1103310  46.0818990  11.4741510  59.0818740  46.4861940  10.6069940
  58.9468280  45.1529350  11.3113110  53.2641610  41.9094840   5.1827270
  53.3422030  42.0443610   4.2382990  53.8783290  41.2010730   5.3755390
  64.3268120  47.7586940   8.5000500  64.8412790  47.6694950   9.3022930
  63.4837200  48.1046640   8.7928410  53.3201130  42.9509010   7.7221730
  53.4832170  42.4814370   6.9041100  53.7853580  42.4432570   8.3870570
  58.0919900  32.0814770   2.7582300  57.6488050  32.8624310   2.4266820
  58.6504890  32.4044660   3.4653240  62.3789710  34.9483290   8.3617620
  61.9169080  35.1566310   9.1737560  61.9767820  34.1342640   8.0588290
  64.4743930  37.6693990  11.5913070  64.7997340  36.8357740  11.2515300
  65.2624260  38.1922510  11.7391400  60.1295800  32.6262100   4.6171900
  60.4268130  33.5324930   4.5363920  60.6781360  32.1380880   4.0031470
  60.3233330  38.1033920  11.1523820  60.2276930  37.1628650  11.0024220
  61.1665310  38.3248990  10.7571890  55.4543870  34.5147590   9.3057600
  55.0607260  35.3622800   9.5130380  54.7662270  33.8773960   9.4966240
  62.0288920  34.5982560  12.3754340  61.3387240  34.4054760  13.0100430
  62.7721220  34.8817200  12.9078640  52.7560920  32.4376050   3.3387680
  52.4673970  33.0078910   4.0512660  53.5006680  31.9580500   3.7018910
  64.3051890  38.4381000   5.2108260  63.5733010  38.9467810   5.5598360
  63.9076230  37.6210980   4.9097040  60.7429280  35.1135200   3.6160750
  60.7465340  34.6725150   2.7665290  61.6380400  35.4352530   3.7232570
  56.5931660  34.9961690   2.5754960  56.2531710  35.4736920   3.3322010
  55.8308980  34.5426810   2.2156060  64.7677800  33.8914680   4.6231200
  64.7850540  34.3423330   5.4673050  64.5193380  32.9920320   4.8364640
  54.8940110  42.3260440   9.8817540  54.5094900  41.6854110  10.4800500
  55.2052300  43.0296560  10.4512270  61.0437250  39.1736980   5.3626160
  61.4107380  38.6995550   6.1087500  60.8542310  40.0478550   5.7034500
  58.8336620  38.2145620   7.6810370  58.5293690  39.0937600   7.9060730
  59.7883080  38.2745410   7.7167810  63.5025190  41.4881030   9.9572610
  63.4362500  40.5676700   9.7030200  62.8730330  41.5856470  10.6717250
  57.4055810  42.0886990   1.9156030  57.9234480  41.2855250   1.8612920
  56.9539830  42.0266130   2.7572860  54.8900350  39.0548360   8.8281730
  54.5315290  39.7202210   9.4155070  54.5954910  38.2231910   9.1994350
  58.0913470  39.5132600  11.7121280  57.7913610  39.6589780  10.8149100
  58.8624710  38.9537890  11.6194670  63.4341920  44.3101600   9.7076410
  63.4486460  43.3782560   9.4895320  62.7267020  44.3961360  10.3466180
  65.1752720  42.6769110   2.5528840  65.5276540  42.0797240   1.8930210
  64.2915050  42.3513340   2.7237090  62.8675820  45.9519170   6.8016910
  63.5118040  46.1578550   7.4790330  63.2305260  45.1907570   6.3487760
  64.1407900  43.9551520   5.5194360  64.7830130  43.2544680   5.6326530
  64.6657250  44.7349960   5.3391250  65.9145520  44.7546420   8.7230420
  66.2501760  45.3413110   9.4008340  64.9945860  44.6239130   8.9528210
  53.4648920  32.5441600   9.5053830  52.7507440  32.7438520  10.1106440
  53.8843960  31.7681170   9.8768630  53.7521510  46.5321860  10.4920360
  53.8612630  45.5916600  10.3515750  53.1002070  46.7976610   9.8434090
  61.7434100  44.8037750  11.8918480  61.4230970  44.0846990  12.4364170
  61.0692460  45.4792820  11.9654540  64.9587700  35.0363910   7.2555280
  65.3268520  34.2159120   7.5834850  64.0985900  35.0965800   7.6710930
  61.9189690  37.6903500   7.4793250  62.4174940  38.1649320   8.1445100
  62.0612640  36.7667020   7.6863280  56.8921670  48.4144700   3.1154390
  57.6284150  47.8660160   3.3862960  57.2762590  49.2800710   2.9760380
  55.8979950  47.5990770  12.3039970  56.6992680  47.9202820  12.7175370
  55.3831770  47.2386350  13.0259880  64.7344580  43.7070640  12.2515380
  64.1282740  43.7302240  11.5111130  64.4298690  42.9753680  12.7882630
  53.6177760  40.0864230  11.2476020  54.1216780  39.5071510  11.8192250
  52.8785180  40.3704460  11.7852390  60.6715700  41.4935220  10.7811540
  59.9061370  42.0620220  10.6966210  60.8531660  41.2011430   9.8879770
  55.6500840  38.2293820  12.1426090  55.6906180  37.9307690  13.0511320
  56.5046340  38.6301430  11.9833610  57.5906650  36.8085920  10.1100580
  57.0603110  36.3176870   9.4823920  58.2594720  37.2370120   9.5758510
  58.0778950  33.7748290  10.1897870  57.9835820  33.1569040   9.4648740
  57.4976340  34.5014580   9.9627780  60.8440390  32.3321530   7.2225260
  60.3957690  32.3545790   6.3770810  60.2105590  31.9340550   7.8195560
  61.2499940  41.2275860   7.8437700  61.6688050  42.0708590   7.6713940
  60.3308570  41.3647900   7.6144480  63.5863840  38.9592040   9.2275540
  63.7060050  38.3633180   9.9670380  64.4457840  38.9961730   8.8076840
  59.1007360  47.5328870   8.9595430  58.5628450  48.2574930   8.6404130
  59.3541320  47.0559210   8.1692770  60.3532610  35.5013390  10.4851360
  60.9432300  35.1929240  11.1729180  59.5352850  35.0293140  10.6411260
  65.1726040  35.1179200  10.7184380  64.4841560  34.4560740  10.6534370
  65.8932060  34.6717470  11.1632840  61.9569570  48.7680080   9.2182080
  61.8828270  49.6715220   9.5254450  61.0548410  48.4491980   9.1904150
  53.3596860  46.0954670   2.5215700  53.6899870  45.2275730   2.2894340
  53.7887860  46.3013190   3.3520660  53.8487070  46.9625260   5.2597330
  53.4118060  47.1426060   6.0921480  54.4164750  47.7199880   5.1179050
  54.7187430  39.8598060   6.1589550  55.0860470  39.7725460   7.0385570
  54.1498250  39.0964610   6.0596410  54.2703430  36.7707150  10.0647970
  53.3759480  36.7373910  10.4041680  54.8100980  36.9693940  10.8299220
  54.7743140  31.0455480   4.4131190  55.4219330  30.4952860   3.9726350
  55.1944980  31.2998630   5.2347000  54.5275140  31.2011150   7.1556510
  54.1789960  31.6574970   7.9214690  54.1962840  30.3068280   7.2378940
  56.1339510  44.3730750  11.3209700  56.0909140  44.0023660  12.2024160
  56.2650520  45.3108320  11.4611520  59.8345540  45.9290340   6.9219420
  59.5936900  46.1964900   6.0349940  60.7748180  46.0996070   6.9770280
  62.0399960  32.3923030  10.6775930  61.9788850  32.9844860  11.4271340
  62.9800340  32.2848990  10.5326190  64.6774520  32.0493090  10.3168220
  65.2914930  32.3672380   9.6549300  65.2224080  31.5641680  10.9364080
  55.1995780  30.7287350  10.4307280  55.7478770  30.5475400   9.6673390
  55.2651090  29.9381460  10.9663590  55.9727540  47.3193000   8.4407480
  55.3787860  47.1877700   9.1797520  55.9651380  46.4831140   7.9749580
  65.4182560  30.6125230   6.6437510  64.5442400  30.9460340   6.4410440
  65.3093310  30.1398410   7.4689380  55.6039770  44.6851380   7.3915520
  54.8773830  44.0656670   7.3241470  55.6648920  45.0791990   6.5213600
  59.2084870  46.8996380   4.1764930  59.7249890  46.2883740   3.6513190
  59.8582250  47.4025160   4.6675940  61.9480370  47.7904870   5.0033910
  62.2358180  47.5359170   4.1266920  62.4603590  47.2382230   5.5939480
  63.1657380  31.5295070   5.5830420  62.3829170  32.0040570   5.8627180
  62.8720310  30.6249900   5.4743600  65.5536580  30.6124270   2.3329520
  66.1565950  31.1844480   2.8078040  64.8129570  31.1763710   2.1103420
  62.0152730  48.7120970  12.3702110  62.9420040  48.4765240  12.4138070
  62.0003160  49.5392970  11.8888140  59.2016340  31.3765720  12.1343990
  58.9200610  31.8799320  11.3704810  59.5836040  30.5787470  11.7686120
  64.7089950  20.0368280  58.1733160  64.6284000  19.1222890  57.9024870
  64.2954370  20.5335350  57.4672870  62.8407990  21.8147300  60.0542430
  62.0650090  21.3347740  60.3441000  63.4920920  21.1352950  59.8798590
  56.8375080  26.1607200  61.1276210  57.1403120  25.2704940  60.9486430
  57.5818670  26.7177420  60.8998460  55.2665770  17.0869000  54.7160580
  54.3782470  17.4284970  54.6140460  55.5506960  16.8869320  53.8241410
  53.2298780  19.6874650  60.6000280  53.8014890  18.9196850  60.6003920
  53.2300320  19.9863410  59.6906890  63.0878730  28.5065500  58.4545550
  62.4690170  28.9623000  57.8839990  63.9430510  28.6616960  58.0535250
  62.2816980  24.4904490  60.0612590  62.2125260  23.5494430  59.9001720
  63.0436840  24.5805900  60.6335160  63.3122150  17.2974870  60.2881520
  63.6886970  16.4246750  60.1755190  63.2141660  17.6333570  59.3971960
  57.4427160  15.6700500  55.7498960  57.5493910  16.5704230  56.0567720
  56.5319520  15.6218470  55.4593610  59.2834890  18.6386870  60.0824140
  59.7913110  19.1367840  60.7229160  59.8148130  17.8622070  59.9063500
  63.9542080  23.3904740  55.8477460  63.3359350  23.8554190  55.2840180
  64.4665330  24.0832220  56.2646970  53.3225280  24.0761270  53.2217090
  52.9453260  24.5648370  52.4901990  53.5798350  24.7486550  53.8523620
  60.9314210  12.4777660  58.6802600  61.2389190  11.9224550  57.9638100
  60.0014910  12.6122120  58.4975590  63.3194970  20.5426490  55.4162720
  62.3924250  20.4763870  55.6451190  63.4719790  21.4806620  55.3017960
  63.3064050  16.8143490  52.4129880  62.3667720  16.9757450  52.4982340
  63.6247310  17.5329170  51.8665870  58.9251610  21.0691230  58.1982450
  58.5208610  20.3568480  57.7028350  59.0114730  20.7244470  59.0870490
  59.3933310  24.7558790  60.3621660  59.0961600  24.1504260  59.6829440
  60.3433130  24.7936100  60.2511020  65.5256960  21.3433600  52.9270720
  65.9650240  20.5056030  52.7808540  66.2385380  21.9763000  53.0134860
  63.6352340  26.2829670  56.8951960  64.0748250  27.0254000  56.4807350
  63.5739230  26.5256240  57.8190920  55.6256240  19.9636210  55.6989100
  55.5053840  20.6898300  55.0870370  55.3157130  19.1939120  55.2217010
  54.5089240  24.8351540  57.9163920  54.1017320  24.9766130  57.0617520
  55.4002250  24.5511700  57.7135130  58.7810900  29.0497320  56.0286590
  58.6053380  28.1332860  55.8154390  57.9266640  29.4084610  56.2684390
  65.5698580  28.4049060  56.8861460  66.0255530  27.6238440  57.2000080
  65.9091100  29.1155880  57.4302640  58.0919900  13.3071280  59.0812770
  57.6488050  14.0880820  58.7497290  58.6504890  13.6301170  59.7883710
  61.2078720  12.9281980  53.9618600  60.5832900  12.9241850  54.6871910
  61.1208840  12.0612940  53.5654570  60.1295800  13.8518610  60.9402370
  60.4268130  14.7581440  60.8594390  60.6781360  13.3637390  60.3261940
  57.8834120  18.4304850  56.8094020  57.6575040  18.2142020  57.7140640
  57.1026650  18.8633310  56.4639990  65.1131880  18.4368220  55.4084670
  64.5140770  19.1604020  55.2248290  65.6611490  18.3745000  54.6261120
  63.7196750  17.0731760  57.4387950  64.1126320  17.3903960  56.6256640
  64.0813600  16.1943640  57.5532470  52.7560920  13.6632560  59.6618150
  52.4673970  14.2335420  60.3743130  53.5006680  13.1837010  60.0249380
  52.9431150  17.6052680  50.8720870  52.8605820  18.5483440  51.0135860
  52.5914210  17.4627590  49.9933220  60.7429280  16.3391710  59.9391220
  60.7465340  15.8981660  59.0895760  61.6380400  16.6609040  60.0463040
  56.5931660  16.2218200  58.8985430  56.2531710  16.6993430  59.6552480
  55.8308980  15.7683320  58.5386530  60.8049430  17.3403790  52.9297980
  60.9262250  17.2990270  53.8783800  60.4197940  18.2027940  52.7744710
  59.8170930  19.6504930  52.3281280  59.2487830  19.2023180  51.7017190
  60.5259930  20.0097710  51.7946430  53.9077740  15.1437180  57.8150100
  53.6224660  14.7792850  58.6528720  53.8456600  14.4117640  57.2013240
  57.3618410  23.6463120  54.6007690  56.5880670  23.1060740  54.4406410
  58.0913040  23.1269730  54.2625450  63.5816330  14.0366440  54.5363470
  62.7680940  13.5379610  54.4608780  63.3878280  14.8764690  54.1199820
  57.4055810  23.3143500  58.2386500  57.9234480  22.5111760  58.1843390
  56.9539830  23.2522640  59.0803330  62.2925310  24.5809780  53.5113800
  62.6341010  25.3252010  53.0157120  61.4638020  24.8940900  53.8738630
  65.1752720  23.9025620  58.8759310  65.5276540  23.3053750  58.2160680
  64.2915050  23.5769850  59.0467560  61.2616000  24.6623310  56.2829720
  61.9487130  25.2092520  56.6637310  60.4748420  25.2064040  56.3179330
  53.4008400  20.2796130  51.7746800  54.2703250  20.5620930  52.0582720
  52.9098720  21.0932000  51.6595610  60.5643210  21.6669340  55.8955080
  61.0205990  22.4774590  56.1215270  60.2131420  21.3492480  56.7273570
  56.4654990  12.0106990  56.3677600  56.3369620  12.0024890  57.3162520
  55.6417010  12.3490080  56.0168610  53.7679650  29.4923510  52.3408430
  54.1277290  30.0912850  51.6865700  53.6271990  30.0383400  53.1143460
  59.7848270  26.8754710  53.1582100  59.7758370  27.6084400  52.5426610
  58.8646630  26.6286290  53.2509060  55.3854910  22.0969600  53.9028860
  54.7782860  22.8368500  53.9124160  55.8604260  22.1868960  53.0767060
  62.7707870  26.9382950  51.8207290  62.8719850  26.7346940  50.8909270
  61.8709610  26.6841230  52.0255070  60.2933760  17.4963310  55.8031190
  59.5849910  17.9649650  56.2444800  60.5778240  16.8385320  56.4376380
  64.3249190  14.2213970  57.2426980  64.2016970  14.2400100  56.2936490
  65.2733750  14.2692910  57.3625380  61.4125980  29.4569270  56.5154960
  61.6667480  29.4190660  55.5934330  60.4638460  29.3302600  56.5083210
  58.4968780  15.8048390  53.1781900  59.3459310  16.2418540  53.1122090
  58.1300050  16.1168650  54.0053960  57.3960200  22.0580750  51.6517430
  58.1623470  21.9462110  52.2142860  57.4734890  21.3618720  50.9994200
  56.0906960  19.4905820  52.3350320  56.1710550  18.5433330  52.4467720
  56.9826710  19.8212700  52.4410980  56.8921670  29.6401210  59.4384860
  57.6284150  29.0916670  59.7093430  57.2762590  30.5057220  59.2990850
  53.7767150  25.7074780  55.3126370  52.8506930  25.9495920  55.3031780
  54.2423580  26.5349040  55.1911120  60.0023980  28.8131520  51.2610430
  60.7952590  29.1020350  50.8092220  59.4828330  28.3823690  50.5822910
  60.5201380  24.0334930  51.1252780  60.4152020  23.4187280  51.8514160
  60.3525600  23.5100820  50.3415790  63.7604110  23.0954960  51.7294770
  63.2114210  23.5424260  52.3737510  64.3823370  22.5904210  52.2532440
  59.4279230  22.0545880  53.6260070  59.8495650  21.8885750  54.4691460
  59.5530070  21.2446110  53.1315210  61.9406870  21.0783490  50.8737170
  62.4612530  20.3632510  50.5078320  62.5875270  21.7169360  51.1737680
  58.3238130  18.1279110  50.5718230  58.1227190  17.2646470  50.9331570
  58.1530180  18.0412470  49.6339830  65.8026440  12.9387340  53.1005110
  66.0828730  12.0955240  53.4564530  65.0292170  13.1710450  53.6143860
  57.1220930  15.2279730  50.5596110  57.4246830  15.2347160  49.6515260
  57.8615520  14.8777590  51.0563770  60.3405860  14.1714350  51.5452310
  59.9927860  13.4938340  50.9654760  60.5418630  13.7103860  52.3595700
  62.5054900  29.1595100  53.1638910  63.4005690  29.4980070  53.1857670
  62.5372530  28.4374510  52.5363190  56.1451060  24.5322150  51.3925910
  56.5825930  25.0751820  52.0483490  56.6298790  23.7069100  51.4022250
  53.3596860  27.3211180  58.8446170  53.6899870  26.4532240  58.6124810
  53.7887860  27.5269700  59.6751130  57.9558780  25.6520190  56.5048140
  57.6554320  25.5285160  57.4052050  57.8496270  24.7928780  56.0963870
  53.6811500  20.7002000  57.9416680  53.0260340  20.4313640  57.2976380
  54.5189450  20.5906480  57.4918660  52.8949580  17.9100930  53.8842010
  51.9913660  18.1731130  53.7093670  53.3790200  18.1812100  53.1041970
  55.4376790  16.9666470  51.7936390  56.1468490  16.5449690  51.3083670
  54.7216730  17.0341700  51.1619740  55.0850950  13.0205800  50.8339040
  55.8079080  13.5614740  51.1520260  55.3575470  12.7469220  49.9580580
  59.2084870  28.1252890  60.4995400  59.7249890  27.5140250  59.9743660
  59.8582250  28.6281670  60.9906410  53.8869770  29.2282280  56.9242750
  53.7191810  28.5952960  57.6224640  53.0204280  29.4341680  56.5736940
  54.5097790  13.0599060  54.4274610  55.2677150  13.1727940  53.8538640
  54.0474960  13.8968260  54.3818040  61.0511600  15.1738330  57.4176920
  60.2386110  14.7995220  57.0772800  61.5553240  14.4183410  57.7198110
  65.5536580  11.8380780  58.6559990  66.1565950  12.4100990  59.1308510
  64.8129570  12.4020220  58.4333890  55.4932470  27.9215510  54.3692890
  54.9680090  28.3023540  53.6654850  55.4177050  28.5466280  55.0902600
  56.8822940  13.5863110  52.9676580  57.4115700  12.7992910  52.8384530
  57.5151260  14.2654300  53.2012110  59.0760780  13.3238250  56.0221970
  58.4463520  12.6225560  56.1892100  58.5365920  14.0842380  55.8055130
  58.0925440  29.8697890  53.2442140  58.8244260  29.5857170  52.6966030
  58.3519110  29.6311170  54.1341520  57.2540230  25.9862620  53.2488470
  56.6249110  26.4547720  53.7974300  57.3688060  25.1411840  53.6834660
  64.7089950  20.0368280  39.3989670  64.6284000  19.1222890  39.1281380
  64.2954370  20.5335350  38.6929380  62.8407990  21.8147300  41.2798940
  62.0650090  21.3347740  41.5697510  63.4920920  21.1352950  41.1055100
  56.8573820  22.1267110  42.1574700  56.0258700  21.8715820  42.5571210
  57.4654800  22.1977880  42.8932620  56.8375080  26.1607200  42.3532720
  57.1403120  25.2704940  42.1742940  57.5818670  26.7177420  42.1254970
  55.2665770  17.0869000  35.9417090  54.3782470  17.4284970  35.8396970
  55.5506960  16.8869320  35.0497920  53.2298780  19.6874650  41.8256790
  53.8014890  18.9196850  41.8260430  53.2300320  19.9863410  40.9163400
  63.0878730  28.5065500  39.6802060  62.4690170  28.9623000  39.1096500
  63.9430510  28.6616960  39.2791760  62.2816980  24.4904490  41.2869100
  62.2125260  23.5494430  41.1258230  63.0436840  24.5805900  41.8591670
  54.4723650  15.0959010  43.6125720  54.2926490  14.1984760  43.8928480
  54.0703730  15.6430880  44.2872670  63.3122150  17.2974870  41.5138030
  63.6886970  16.4246750  41.4011700  63.2141660  17.6333570  40.6228470
  57.4427160  15.6700500  36.9755470  57.5493910  16.5704230  37.2824230
  56.5319520  15.6218470  36.6850120  55.0910320  17.5919510  42.2208060
  55.7720430  17.8557880  42.8395460  54.7758370  16.7520380  42.5546070
  59.2834890  18.6386870  41.3080650  59.7913110  19.1367840  41.9485670
  59.8148130  17.8622070  41.1320010  57.5670990  13.2785430  45.5744070
  57.5689430  13.7957820  44.7689970  56.7375300  12.8015610  45.5514000
  63.9542080  23.3904740  37.0733970  63.3359350  23.8554190  36.5096690
  64.4665330  24.0832220  37.4903480  58.8173840  22.9180610  43.7517570
  58.4843220  23.5449530  44.3938640  58.9940520  23.4442490  42.9719240
  57.2486320  14.9895390  43.5814520  57.5903130  15.8337440  43.2868390
  56.3102130  15.1379130  43.6979860  58.0292940  24.8861410  45.5666750
  58.6466940  25.5612490  45.2851200  57.1686060  25.2949390  45.4754250
  53.3225280  24.0761270  34.4473600  52.9453260  24.5648370  33.7158500
  53.5798350  24.7486550  35.0780130  60.9314210  12.4777660  39.9059110
  61.2389190  11.9224550  39.1894610  60.0014910  12.6122120  39.7232100
  63.3194970  20.5426490  36.6419230  62.3924250  20.4763870  36.8707700
  63.4719790  21.4806620  36.5274470  63.3064050  16.8143490  33.6386390
  62.3667720  16.9757450  33.7238850  63.6247310  17.5329170  33.0922380
  58.9251610  21.0691230  39.4238960  58.5208610  20.3568480  38.9284860
  59.0114730  20.7244470  40.3127000  59.3933310  24.7558790  41.5878170
  59.0961600  24.1504260  40.9085950  60.3433130  24.7936100  41.4767530
  57.6380230  17.8434440  43.2038000  58.1894820  17.9529780  42.4291250
  58.1523740  18.2172040  43.9193230  58.4851740  24.4940480  48.2385970
  57.5880270  24.7180450  48.4859370  58.5104610  24.6175420  47.2897370
  65.5256960  21.3433600  34.1527230  65.9650240  20.5056030  34.0065050
  66.2385380  21.9763000  34.2391370  57.3122960  21.3653800  46.8143340
  57.1730730  22.2376600  47.1830740  56.4304320  21.0226610  46.6691280
  63.6352340  26.2829670  38.1208470  64.0748250  27.0254000  37.7063860
  63.5739230  26.5256240  39.0447430  59.1103310  27.3075500  49.0228490
  59.0818740  27.7118450  48.1556920  58.9468280  26.3785860  48.8600090
  55.6256240  19.9636210  36.9245610  55.5053840  20.6898300  36.3126880
  55.3157130  19.1939120  36.4473520  53.2641610  23.1351350  42.7314250
  53.3422030  23.2700120  41.7869970  53.8783290  22.4267240  42.9242370
  54.5089240  24.8351540  39.1420430  54.1017320  24.9766130  38.2874030
  55.4002250  24.5511700  38.9391640  64.3268120  28.9843450  46.0487480
  64.8412790  28.8951460  46.8509910  63.4837200  29.3303150  46.3415390
  58.7810900  29.0497320  37.2543100  58.6053380  28.1332860  37.0410900
  57.9266640  29.4084610  37.4940900  65.5698580  28.4049060  38.1117970
  66.0255530  27.6238440  38.4256590  65.9091100  29.1155880  38.6559150
  53.3201130  24.1765520  45.2708710  53.4832170  23.7070880  44.4528080
  53.7853580  23.6689080  45.9357550  58.0919900  13.3071280  40.3069280
  57.6488050  14.0880820  39.9753800  58.6504890  13.6301170  41.0140220
  62.3789710  16.1739800  45.9104600  61.9169080  16.3822820  46.7224540
  61.9767820  15.3599150  45.6075270  64.4743930  18.8950500  49.1400050
  64.7997340  18.0614250  48.8002280  65.2624260  19.4179020  49.2878380
  61.2078720  12.9281980  35.1875110  60.5832900  12.9241850  35.9128420
  61.1208840  12.0612940  34.7911080  60.1295800  13.8518610  42.1658880
  60.4268130  14.7581440  42.0850900  60.6781360  13.3637390  41.5518450
  57.8834120  18.4304850  38.0350530  57.6575040  18.2142020  38.9397150
  57.1026650  18.8633310  37.6896500  65.1131880  18.4368220  36.6341180
  64.5140770  19.1604020  36.4504800  65.6611490  18.3745000  35.8517630
  60.3233330  19.3290430  48.7010800  60.2276930  18.3885160  48.5511200
  61.1665310  19.5505500  48.3058870  63.7196750  17.0731760  38.6644460
  64.1126320  17.3903960  37.8513150  64.0813600  16.1943640  38.7788980
  55.4543870  15.7404100  46.8544580  55.0607260  16.5879310  47.0617360
  54.7662270  15.1030470  47.0453220  62.0288920  15.8239070  49.9241320
  61.3387240  15.6311270  50.5587410  62.7721220  16.1073710  50.4565620
  52.7560920  13.6632560  40.8874660  52.4673970  14.2335420  41.5999640
  53.5006680  13.1837010  41.2505890  52.9431150  17.6052680  32.0977380
  52.8605820  18.5483440  32.2392370  52.5914210  17.4627590  31.2189730
  64.3051890  19.6637510  42.7595240  63.5733010  20.1724320  43.1085340
  63.9076230  18.8467490  42.4584020  60.7429280  16.3391710  41.1647730
  60.7465340  15.8981660  40.3152270  61.6380400  16.6609040  41.2719550
  56.5931660  16.2218200  40.1241940  56.2531710  16.6993430  40.8808990
  55.8308980  15.7683320  39.7643040  60.8049430  17.3403790  34.1554490
  60.9262250  17.2990270  35.1040310  60.4197940  18.2027940  34.0001220
  64.7677800  15.1171190  42.1718180  64.7850540  15.5679840  43.0160030
  64.5193380  14.2176830  42.3851620  59.8170930  19.6504930  33.5537790
  59.2487830  19.2023180  32.9273700  60.5259930  20.0097710  33.0202940
  54.8940110  23.5516950  47.4304520  54.5094900  22.9110620  48.0287480
  55.2052300  24.2553070  47.9999250  61.0437250  20.3993490  42.9113140
  61.4107380  19.9252060  43.6574480  60.8542310  21.2735060  43.2521480
  53.9077740  15.1437180  39.0406610  53.6224660  14.7792850  39.8785230
  53.8456600  14.4117640  38.4269750  58.8336620  19.4402130  45.2297350
  58.5293690  20.3194110  45.4547710  59.7883080  19.5001920  45.2654790
  57.3618410  23.6463120  35.8264200  56.5880670  23.1060740  35.6662920
  58.0913040  23.1269730  35.4881960  63.5816330  14.0366440  35.7619980
  62.7680940  13.5379610  35.6865290  63.3878280  14.8764690  35.3456330
  63.5025190  22.7137540  47.5059590  63.4362500  21.7933210  47.2517180
  62.8730330  22.8112980  48.2204230  57.4055810  23.3143500  39.4643010
  57.9234480  22.5111760  39.4099900  56.9539830  23.2522640  40.3059840
  62.2925310  24.5809780  34.7370310  62.6341010  25.3252010  34.2413630
  61.4638020  24.8940900  35.0995140  54.8900350  20.2804870  46.3768710
  54.5315290  20.9458720  46.9642050  54.5954910  19.4488420  46.7481330
  58.0913470  20.7389110  49.2608260  57.7913610  20.8846290  48.3636080
  58.8624710  20.1794400  49.1681650  63.4341920  25.5358110  47.2563390
  63.4486460  24.6039070  47.0382300  62.7267020  25.6217870  47.8953160
  65.1752720  23.9025620  40.1015820  65.5276540  23.3053750  39.4417190
  64.2915050  23.5769850  40.2724070  61.2616000  24.6623310  37.5086230
  61.9487130  25.2092520  37.8893820  60.4748420  25.2064040  37.5435840
  53.4008400  20.2796130  33.0003310  54.2703250  20.5620930  33.2839230
  52.9098720  21.0932000  32.8852120  60.5643210  21.6669340  37.1211590
  61.0205990  22.4774590  37.3471780  60.2131420  21.3492480  37.9530080
  62.8675820  27.1775680  44.3503890  63.5118040  27.3835060  45.0277310
  63.2305260  26.4164080  43.8974740  56.4654990  12.0106990  37.5934110
  56.3369620  12.0024890  38.5419030  55.6417010  12.3490080  37.2425120
  64.1407900  25.1808030  43.0681340  64.7830130  24.4801190  43.1813510
  64.6657250  25.9606470  42.8878230  65.9145520  25.9802930  46.2717400
  66.2501760  26.5669620  46.9495320  64.9945860  25.8495640  46.5015190
  53.7679650  29.4923510  33.5664940  54.1277290  30.0912850  32.9122210
  53.6271990  30.0383400  34.3399970  53.4648920  13.7698110  47.0540810
  52.7507440  13.9695030  47.6593420  53.8843960  12.9937680  47.4255610
  53.7521510  27.7578370  48.0407340  53.8612630  26.8173110  47.9002730
  53.1002070  28.0233120  47.3921070  61.7434100  26.0294260  49.4405460
  61.4230970  25.3103500  49.9851150  61.0692460  26.7049330  49.5141520
  59.7848270  26.8754710  34.3838610  59.7758370  27.6084400  33.7683120
  58.8646630  26.6286290  34.4765570  55.3854910  22.0969600  35.1285370
  54.7782860  22.8368500  35.1380670  55.8604260  22.1868960  34.3023570
  64.9587700  16.2620420  44.8042260  65.3268520  15.4415630  45.1321830
  64.0985900  16.3222310  45.2197910  62.7707870  26.9382950  33.0463800
  62.8719850  26.7346940  32.1165780  61.8709610  26.6841230  33.2511580
  60.2933760  17.4963310  37.0287700  59.5849910  17.9649650  37.4701310
  60.5778240  16.8385320  37.6632890  61.9189690  18.9160010  45.0280230
  62.4174940  19.3905830  45.6932080  62.0612640  17.9923530  45.2350260
  64.3249190  14.2213970  38.4683490  64.2016970  14.2400100  37.5193000
  65.2733750  14.2692910  38.5881890  61.4125980  29.4569270  37.7411470
  61.6667480  29.4190660  36.8190840  60.4638460  29.3302600  37.7339720
  58.4968780  15.8048390  34.4038410  59.3459310  16.2418540  34.3378600
  58.1300050  16.1168650  35.2310470  57.3960200  22.0580750  32.8773940
  58.1623470  21.9462110  33.4399370  57.4734890  21.3618720  32.2250710
  56.0906960  19.4905820  33.5606830  56.1710550  18.5433330  33.6724230
  56.9826710  19.8212700  33.6667490  56.8921670  29.6401210  40.6641370
  57.6284150  29.0916670  40.9349940  57.2762590  30.5057220  40.5247360
  53.7767150  25.7074780  36.5382880  52.8506930  25.9495920  36.5288290
  54.2423580  26.5349040  36.4167630  55.8979950  28.8247280  49.8526950
  56.6992680  29.1459330  50.2662350  55.3831770  28.4642860  50.5746860
  60.0023980  28.8131520  32.4866940  60.7952590  29.1020350  32.0348730
  59.4828330  28.3823690  31.8079420  64.7344580  24.9327150  49.8002360
  64.1282740  24.9558750  49.0598110  64.4298690  24.2010190  50.3369610
  53.6177760  21.3120740  48.7963000  54.1216780  20.7328020  49.3679230
  52.8785180  21.5960970  49.3339370  60.5201380  24.0334930  32.3509290
  60.4152020  23.4187280  33.0770670  60.3525600  23.5100820  31.5672300
  60.6715700  22.7191730  48.3298520  59.9061370  23.2876730  48.2453190
  60.8531660  22.4267940  47.4366750  63.7604110  23.0954960  32.9551280
  63.2114210  23.5424260  33.5994020  64.3823370  22.5904210  33.4788950
  55.6500840  19.4550330  49.6913070  55.6906180  19.1564200  50.5998300
  56.5046340  19.8557940  49.5320590  59.4279230  22.0545880  34.8516580
  59.8495650  21.8885750  35.6947970  59.5530070  21.2446110  34.3571720
  57.5906650  18.0342430  47.6587560  57.0603110  17.5433380  47.0310900
  58.2594720  18.4626630  47.1245490  61.9406870  21.0783490  32.0993680
  62.4612530  20.3632510  31.7334830  62.5875270  21.7169360  32.3994190
  58.0778950  15.0004800  47.7384850  57.9835820  14.3825550  47.0135720
  57.4976340  15.7271090  47.5114760  60.8440390  13.5578040  44.7712240
  60.3957690  13.5802300  43.9257790  60.2105590  13.1597060  45.3682540
  61.2499940  22.4532370  45.3924680  61.6688050  23.2965100  45.2200920
  60.3308570  22.5904410  45.1631460  63.5863840  20.1848550  46.7762520
  63.7060050  19.5889690  47.5157360  64.4457840  20.2218240  46.3563820
  58.3238130  18.1279110  31.7974740  58.1227190  17.2646470  32.1588080
  58.1530180  18.0412470  30.8596340  59.1007360  28.7585380  46.5082410
  58.5628450  29.4831440  46.1891110  59.3541320  28.2815720  45.7179750
  60.3532610  16.7269900  48.0338340  60.9432300  16.4185750  48.7216160
  59.5352850  16.2549650  48.1898240  65.1726040  16.3435710  48.2671360
  64.4841560  15.6817250  48.2021350  65.8932060  15.8973980  48.7119820
  65.8026440  12.9387340  34.3261620  66.0828730  12.0955240  34.6821040
  65.0292170  13.1710450  34.8400370  57.1220930  15.2279730  31.7852620
  57.4246830  15.2347160  30.8771770  57.8615520  14.8777590  32.2820280
  61.9569570  29.9936590  46.7669060  61.8828270  30.8971730  47.0741430
  61.0548410  29.6748490  46.7391130  60.3405860  14.1714350  32.7708820
  59.9927860  13.4938340  32.1911270  60.5418630  13.7103860  33.5852210
  62.5054900  29.1595100  34.3895420  63.4005690  29.4980070  34.4114180
  62.5372530  28.4374510  33.7619700  56.1451060  24.5322150  32.6182420
  56.5825930  25.0751820  33.2740000  56.6298790  23.7069100  32.6278760
  53.3596860  27.3211180  40.0702680  53.6899870  26.4532240  39.8381320
  53.7887860  27.5269700  40.9007640  57.9558780  25.6520190  37.7304650
  57.6554320  25.5285160  38.6308560  57.8496270  24.7928780  37.3220380
  53.8487070  28.1881770  42.8084310  53.4118060  28.3682570  43.6408460
  54.4164750  28.9456390  42.6666030  53.6811500  20.7002000  39.1673190
  53.0260340  20.4313640  38.5232890  54.5189450  20.5906480  38.7175170
  54.7187430  21.0854570  43.7076530  55.0860470  20.9981970  44.5872550
  54.1498250  20.3221120  43.6083390  54.2703430  17.9963660  47.6134950
  53.3759480  17.9630420  47.9528660  54.8100980  18.1950450  48.3786200
  52.8949580  17.9100930  35.1098520  51.9913660  18.1731130  34.9350180
  53.3790200  18.1812100  34.3298480  55.4376790  16.9666470  33.0192900
  56.1468490  16.5449690  32.5340180  54.7216730  17.0341700  32.3876250
  55.0850950  13.0205800  32.0595550  55.8079080  13.5614740  32.3776770
  55.3575470  12.7469220  31.1837090  54.7743140  12.2711990  41.9618170
  55.4219330  11.7209370  41.5213330  55.1944980  12.5255140  42.7833980
  54.5275140  12.4267660  44.7043490  54.1789960  12.8831480  45.4701670
  54.1962840  11.5324790  44.7865920  56.1339510  25.5987260  48.8696680
  56.0909140  25.2280170  49.7511140  56.2650520  26.5364830  49.0098500
  59.8345540  27.1546850  44.4706400  59.5936900  27.4221410  43.5836920
  60.7748180  27.3252580  44.5257260  62.0399960  13.6179540  48.2262910
  61.9788850  14.2101370  48.9758320  62.9800340  13.5105500  48.0813170
  64.6774520  13.2749600  47.8655200  65.2914930  13.5928890  47.2036280
  65.2224080  12.7898190  48.4851060  55.1995780  11.9543860  47.9794260
  55.7478770  11.7731910  47.2160370  55.2651090  11.1637970  48.5150570
  55.9727540  28.5449510  45.9894460  55.3787860  28.4134210  46.7284500
  55.9651380  27.7087650  45.5236560  65.4182560  11.8381740  44.1924490
  64.5442400  12.1716850  43.9897420  65.3093310  11.3654920  45.0176360
  55.6039770  25.9107890  44.9402500  54.8773830  25.2913180  44.8728450
  55.6648920  26.3048500  44.0700580  59.2084870  28.1252890  41.7251910
  59.7249890  27.5140250  41.2000170  59.8582250  28.6281670  42.2162920
  61.9480370  29.0161380  42.5520890  62.2358180  28.7615680  41.6753900
  62.4603590  28.4638740  43.1426460  63.1657380  12.7551580  43.1317400
  62.3829170  13.2297080  43.4114160  62.8720310  11.8506410  43.0230580
  53.8869770  29.2282280  38.1499260  53.7191810  28.5952960  38.8481150
  53.0204280  29.4341680  37.7993450  54.5097790  13.0599060  35.6531120
  55.2677150  13.1727940  35.0795150  54.0474960  13.8968260  35.6074550
  61.0511600  15.1738330  38.6433430  60.2386110  14.7995220  38.3029310
  61.5553240  14.4183410  38.9454620  65.5536580  11.8380780  39.8816500
  66.1565950  12.4100990  40.3565020  64.8129570  12.4020220  39.6590400
  55.4932470  27.9215510  35.5949400  54.9680090  28.3023540  34.8911360
  55.4177050  28.5466280  36.3159110  56.8822940  13.5863110  34.1933090
  57.4115700  12.7992910  34.0641040  57.5151260  14.2654300  34.4268620
  59.0760780  13.3238250  37.2478480  58.4463520  12.6225560  37.4148610
  58.5365920  14.0842380  37.0311640  62.0152730  29.9377480  49.9189090
  62.9420040  29.7021750  49.9625050  62.0003160  30.7649480  49.4375120
  59.2016340  12.6022230  49.6830970  58.9200610  13.1055830  48.9191790
  59.5836040  11.8043980  49.3173100  58.0925440  29.8697890  34.4698650
  58.8244260  29.5857170  33.9222540  58.3519110  29.6311170  35.3598030
  57.2540230  25.9862620  34.4744980  56.6249110  26.4547720  35.0230810
  57.3688060  25.1411840  34.9091170  64.7089950  20.0368280  20.6246180
  64.6284000  19.1222890  20.3537890  64.2954370  20.5335350  19.9185890
  62.8407990  21.8147300  22.5055450  62.0650090  21.3347740  22.7954020
  63.4920920  21.1352950  22.3311610  56.8573820  22.1267110  23.3831210
  56.0258700  21.8715820  23.7827720  57.4654800  22.1977880  24.1189130
  56.8375080  26.1607200  23.5789230  57.1403120  25.2704940  23.3999450
  57.5818670  26.7177420  23.3511480  55.2665770  17.0869000  17.1673600
  54.3782470  17.4284970  17.0653480  55.5506960  16.8869320  16.2754430
  53.2298780  19.6874650  23.0513300  53.8014890  18.9196850  23.0516940
  53.2300320  19.9863410  22.1419910  63.0878730  28.5065500  20.9058570
  62.4690170  28.9623000  20.3353010  63.9430510  28.6616960  20.5048270
  62.2816980  24.4904490  22.5125610  62.2125260  23.5494430  22.3514740
  63.0436840  24.5805900  23.0848180  54.4723650  15.0959010  24.8382230
  54.2926490  14.1984760  25.1184990  54.0703730  15.6430880  25.5129180
  63.3122150  17.2974870  22.7394540  63.6886970  16.4246750  22.6268210
  63.2141660  17.6333570  21.8484980  57.4427160  15.6700500  18.2011980
  57.5493910  16.5704230  18.5080740  56.5319520  15.6218470  17.9106630
  55.0910320  17.5919510  23.4464570  55.7720430  17.8557880  24.0651970
  54.7758370  16.7520380  23.7802580  59.2834890  18.6386870  22.5337160
  59.7913110  19.1367840  23.1742180  59.8148130  17.8622070  22.3576520
  57.5670990  13.2785430  26.8000580  57.5689430  13.7957820  25.9946480
  56.7375300  12.8015610  26.7770510  63.9542080  23.3904740  18.2990480
  63.3359350  23.8554190  17.7353200  64.4665330  24.0832220  18.7159990
  58.8173840  22.9180610  24.9774080  58.4843220  23.5449530  25.6195150
  58.9940520  23.4442490  24.1975750  57.2486320  14.9895390  24.8071030
  57.5903130  15.8337440  24.5124900  56.3102130  15.1379130  24.9236370
  58.0292940  24.8861410  26.7923260  58.6466940  25.5612490  26.5107710
  57.1686060  25.2949390  26.7010760  53.3225280  24.0761270  15.6730110
  52.9453260  24.5648370  14.9415010  53.5798350  24.7486550  16.3036640
  60.9314210  12.4777660  21.1315620  61.2389190  11.9224550  20.4151120
  60.0014910  12.6122120  20.9488610  63.3194970  20.5426490  17.8675740
  62.3924250  20.4763870  18.0964210  63.4719790  21.4806620  17.7530980
  63.3064050  16.8143490  14.8642900  62.3667720  16.9757450  14.9495360
  63.6247310  17.5329170  14.3178890  58.9251610  21.0691230  20.6495470
  58.5208610  20.3568480  20.1541370  59.0114730  20.7244470  21.5383510
  59.3933310  24.7558790  22.8134680  59.0961600  24.1504260  22.1342460
  60.3433130  24.7936100  22.7024040  57.6380230  17.8434440  24.4294510
  58.1894820  17.9529780  23.6547760  58.1523740  18.2172040  25.1449740
  58.4851740  24.4940480  29.4642480  57.5880270  24.7180450  29.7115880
  58.5104610  24.6175420  28.5153880  65.5256960  21.3433600  15.3783740
  65.9650240  20.5056030  15.2321560  66.2385380  21.9763000  15.4647880
  57.3122960  21.3653800  28.0399850  57.1730730  22.2376600  28.4087250
  56.4304320  21.0226610  27.8947790  63.6352340  26.2829670  19.3464980
  64.0748250  27.0254000  18.9320370  63.5739230  26.5256240  20.2703940
  59.1103310  27.3075500  30.2485000  59.0818740  27.7118450  29.3813430
  58.9468280  26.3785860  30.0856600  55.6256240  19.9636210  18.1502120
  55.5053840  20.6898300  17.5383390  55.3157130  19.1939120  17.6730030
  53.2641610  23.1351350  23.9570760  53.3422030  23.2700120  23.0126480
  53.8783290  22.4267240  24.1498880  54.5089240  24.8351540  20.3676940
  54.1017320  24.9766130  19.5130540  55.4002250  24.5511700  20.1648150
  64.3268120  28.9843450  27.2743990  64.8412790  28.8951460  28.0766420
  63.4837200  29.3303150  27.5671900  58.7810900  29.0497320  18.4799610
  58.6053380  28.1332860  18.2667410  57.9266640  29.4084610  18.7197410
  65.5698580  28.4049060  19.3374480  66.0255530  27.6238440  19.6513100
  65.9091100  29.1155880  19.8815660  53.3201130  24.1765520  26.4965220
  53.4832170  23.7070880  25.6784590  53.7853580  23.6689080  27.1614060
  58.0919900  13.3071280  21.5325790  57.6488050  14.0880820  21.2010310
  58.6504890  13.6301170  22.2396730  62.3789710  16.1739800  27.1361110
  61.9169080  16.3822820  27.9481050  61.9767820  15.3599150  26.8331780
  64.4743930  18.8950500  30.3656560  64.7997340  18.0614250  30.0258790
  65.2624260  19.4179020  30.5134890  61.2078720  12.9281980  16.4131620
  60.5832900  12.9241850  17.1384930  61.1208840  12.0612940  16.0167590
  60.1295800  13.8518610  23.3915390  60.4268130  14.7581440  23.3107410
  60.6781360  13.3637390  22.7774960  57.8834120  18.4304850  19.2607040
  57.6575040  18.2142020  20.1653660  57.1026650  18.8633310  18.9153010
  65.1131880  18.4368220  17.8597690  64.5140770  19.1604020  17.6761310
  65.6611490  18.3745000  17.0774140  60.3233330  19.3290430  29.9267310
  60.2276930  18.3885160  29.7767710  61.1665310  19.5505500  29.5315380
  63.7196750  17.0731760  19.8900970  64.1126320  17.3903960  19.0769660
  64.0813600  16.1943640  20.0045490  55.4543870  15.7404100  28.0801090
  55.0607260  16.5879310  28.2873870  54.7662270  15.1030470  28.2709730
  62.0288920  15.8239070  31.1497830  61.3387240  15.6311270  31.7843920
  62.7721220  16.1073710  31.6822130  52.7560920  13.6632560  22.1131170
  52.4673970  14.2335420  22.8256150  53.5006680  13.1837010  22.4762400
  52.9431150  17.6052680  13.3233890  52.8605820  18.5483440  13.4648880
  52.5914210  17.4627590  12.4446240  64.3051890  19.6637510  23.9851750
  63.5733010  20.1724320  24.3341850  63.9076230  18.8467490  23.6840530
  60.7429280  16.3391710  22.3904240  60.7465340  15.8981660  21.5408780
  61.6380400  16.6609040  22.4976060  56.5931660  16.2218200  21.3498450
  56.2531710  16.6993430  22.1065500  55.8308980  15.7683320  20.9899550
  60.8049430  17.3403790  15.3811000  60.9262250  17.2990270  16.3296820
  60.4197940  18.2027940  15.2257730  64.7677800  15.1171190  23.3974690
  64.7850540  15.5679840  24.2416540  64.5193380  14.2176830  23.6108130
  59.8170930  19.6504930  14.7794300  59.2487830  19.2023180  14.1530210
  60.5259930  20.0097710  14.2459450  54.8940110  23.5516950  28.6561030
  54.5094900  22.9110620  29.2543990  55.2052300  24.2553070  29.2255760
  61.0437250  20.3993490  24.1369650  61.4107380  19.9252060  24.8830990
  60.8542310  21.2735060  24.4777990  53.9077740  15.1437180  20.2663120
  53.6224660  14.7792850  21.1041740  53.8456600  14.4117640  19.6526260
  58.8336620  19.4402130  26.4553860  58.5293690  20.3194110  26.6804220
  59.7883080  19.5001920  26.4911300  57.3618410  23.6463120  17.0520710
  56.5880670  23.1060740  16.8919430  58.0913040  23.1269730  16.7138470
  63.5816330  14.0366440  16.9876490  62.7680940  13.5379610  16.9121800
  63.3878280  14.8764690  16.5712840  63.5025190  22.7137540  28.7316100
  63.4362500  21.7933210  28.4773690  62.8730330  22.8112980  29.4460740
  57.4055810  23.3143500  20.6899520  57.9234480  22.5111760  20.6356410
  56.9539830  23.2522640  21.5316350  62.2925310  24.5809780  15.9626820
  62.6341010  25.3252010  15.4670140  61.4638020  24.8940900  16.3251650
  54.8900350  20.2804870  27.6025220  54.5315290  20.9458720  28.1898560
  54.5954910  19.4488420  27.9737840  58.0913470  20.7389110  30.4864770
  57.7913610  20.8846290  29.5892590  58.8624710  20.1794400  30.3938160
  63.4341920  25.5358110  28.4819900  63.4486460  24.6039070  28.2638810
  62.7267020  25.6217870  29.1209670  65.1752720  23.9025620  21.3272330
  65.5276540  23.3053750  20.6673700  64.2915050  23.5769850  21.4980580
  61.2616000  24.6623310  18.7342740  61.9487130  25.2092520  19.1150330
  60.4748420  25.2064040  18.7692350  53.4008400  20.2796130  14.2259820
  54.2703250  20.5620930  14.5095740  52.9098720  21.0932000  14.1108630
  60.5643210  21.6669340  18.3468100  61.0205990  22.4774590  18.5728290
  60.2131420  21.3492480  19.1786590  62.8675820  27.1775680  25.5760400
  63.5118040  27.3835060  26.2533820  63.2305260  26.4164080  25.1231250
  56.4654990  12.0106990  18.8190620  56.3369620  12.0024890  19.7675540
  55.6417010  12.3490080  18.4681630  64.1407900  25.1808030  24.2937850
  64.7830130  24.4801190  24.4070020  64.6657250  25.9606470  24.1134740
  65.9145520  25.9802930  27.4973910  66.2501760  26.5669620  28.1751830
  64.9945860  25.8495640  27.7271700  53.7679650  29.4923510  14.7921450
  54.1277290  30.0912850  14.1378720  53.6271990  30.0383400  15.5656480
  53.4648920  13.7698110  28.2797320  52.7507440  13.9695030  28.8849930
  53.8843960  12.9937680  28.6512120  53.7521510  27.7578370  29.2663850
  53.8612630  26.8173110  29.1259240  53.1002070  28.0233120  28.6177580
  61.7434100  26.0294260  30.6661970  61.4230970  25.3103500  31.2107660
  61.0692460  26.7049330  30.7398030  59.7848270  26.8754710  15.6095120
  59.7758370  27.6084400  14.9939630  58.8646630  26.6286290  15.7022080
  55.3854910  22.0969600  16.3541880  54.7782860  22.8368500  16.3637180
  55.8604260  22.1868960  15.5280080  64.9587700  16.2620420  26.0298770
  65.3268520  15.4415630  26.3578340  64.0985900  16.3222310  26.4454420
  62.7707870  26.9382950  14.2720310  62.8719850  26.7346940  13.3422290
  61.8709610  26.6841230  14.4768090  60.2933760  17.4963310  18.2544210
  59.5849910  17.9649650  18.6957820  60.5778240  16.8385320  18.8889400
  61.9189690  18.9160010  26.2536740  62.4174940  19.3905830  26.9188590
  62.0612640  17.9923530  26.4606770  64.3249190  14.2213970  19.6940000
  64.2016970  14.2400100  18.7449510  65.2733750  14.2692910  19.8138400
  61.4125980  29.4569270  18.9667980  61.6667480  29.4190660  18.0447350
  60.4638460  29.3302600  18.9596230  58.4968780  15.8048390  15.6294920
  59.3459310  16.2418540  15.5635110  58.1300050  16.1168650  16.4566980
  57.3960200  22.0580750  14.1030450  58.1623470  21.9462110  14.6655880
  57.4734890  21.3618720  13.4507220  56.0906960  19.4905820  14.7863340
  56.1710550  18.5433330  14.8980740  56.9826710  19.8212700  14.8924000
  56.8921670  29.6401210  21.8897880  57.6284150  29.0916670  22.1606450
  57.2762590  30.5057220  21.7503870  53.7767150  25.7074780  17.7639390
  52.8506930  25.9495920  17.7544800  54.2423580  26.5349040  17.6424140
  55.8979950  28.8247280  31.0783460  56.6992680  29.1459330  31.4918860
  55.3831770  28.4642860  31.8003370  60.0023980  28.8131520  13.7123450
  60.7952590  29.1020350  13.2605240  59.4828330  28.3823690  13.0335930
  64.7344580  24.9327150  31.0258870  64.1282740  24.9558750  30.2854620
  64.4298690  24.2010190  31.5626120  53.6177760  21.3120740  30.0219510
  54.1216780  20.7328020  30.5935740  52.8785180  21.5960970  30.5595880
  60.5201380  24.0334930  13.5765800  60.4152020  23.4187280  14.3027180
  60.3525600  23.5100820  12.7928810  60.6715700  22.7191730  29.5555030
  59.9061370  23.2876730  29.4709700  60.8531660  22.4267940  28.6623260
  63.7604110  23.0954960  14.1807790  63.2114210  23.5424260  14.8250530
  64.3823370  22.5904210  14.7045460  55.6500840  19.4550330  30.9169580
  55.6906180  19.1564200  31.8254810  56.5046340  19.8557940  30.7577100
  59.4279230  22.0545880  16.0773090  59.8495650  21.8885750  16.9204480
  59.5530070  21.2446110  15.5828230  57.5906650  18.0342430  28.8844070
  57.0603110  17.5433380  28.2567410  58.2594720  18.4626630  28.3502000
  61.9406870  21.0783490  13.3250190  62.4612530  20.3632510  12.9591340
  62.5875270  21.7169360  13.6250700  58.0778950  15.0004800  28.9641360
  57.9835820  14.3825550  28.2392230  57.4976340  15.7271090  28.7371270
  60.8440390  13.5578040  25.9968750  60.3957690  13.5802300  25.1514300
  60.2105590  13.1597060  26.5939050  61.2499940  22.4532370  26.6181190
  61.6688050  23.2965100  26.4457430  60.3308570  22.5904410  26.3887970
  63.5863840  20.1848550  28.0019030  63.7060050  19.5889690  28.7413870
  64.4457840  20.2218240  27.5820330  58.3238130  18.1279110  13.0231250
  58.1227190  17.2646470  13.3844590  58.1530180  18.0412470  12.0852850
  59.1007360  28.7585380  27.7338920  58.5628450  29.4831440  27.4147620
  59.3541320  28.2815720  26.9436260  60.3532610  16.7269900  29.2594850
  60.9432300  16.4185750  29.9472670  59.5352850  16.2549650  29.4154750
  65.1726040  16.3435710  29.4927870  64.4841560  15.6817250  29.4277860
  65.8932060  15.8973980  29.9376330  65.8026440  12.9387340  15.5518130
  66.0828730  12.0955240  15.9077550  65.0292170  13.1710450  16.0656880
  57.1220930  15.2279730  13.0109130  57.4246830  15.2347160  12.1028280
  57.8615520  14.8777590  13.5076790  61.9569570  29.9936590  27.9925570
  61.8828270  30.8971730  28.2997940  61.0548410  29.6748490  27.9647640
  60.3405860  14.1714350  13.9965330  59.9927860  13.4938340  13.4167780
  60.5418630  13.7103860  14.8108720  62.5054900  29.1595100  15.6151930
  63.4005690  29.4980070  15.6370690  62.5372530  28.4374510  14.9876210
  56.1451060  24.5322150  13.8438930  56.5825930  25.0751820  14.4996510
  56.6298790  23.7069100  13.8535270  53.3596860  27.3211180  21.2959190
  53.6899870  26.4532240  21.0637830  53.7887860  27.5269700  22.1264150
  57.9558780  25.6520190  18.9561160  57.6554320  25.5285160  19.8565070
  57.8496270  24.7928780  18.5476890  53.8487070  28.1881770  24.0340820
  53.4118060  28.3682570  24.8664970  54.4164750  28.9456390  23.8922540
  53.6811500  20.7002000  20.3929700  53.0260340  20.4313640  19.7489400
  54.5189450  20.5906480  19.9431680  54.7187430  21.0854570  24.9333040
  55.0860470  20.9981970  25.8129060  54.1498250  20.3221120  24.8339900
  54.2703430  17.9963660  28.8391460  53.3759480  17.9630420  29.1785170
  54.8100980  18.1950450  29.6042710  52.8949580  17.9100930  16.3355030
  51.9913660  18.1731130  16.1606690  53.3790200  18.1812100  15.5554990
  55.4376790  16.9666470  14.2449410  56.1468490  16.5449690  13.7596690
  54.7216730  17.0341700  13.6132760  55.0850950  13.0205800  13.2852060
  55.8079080  13.5614740  13.6033280  55.3575470  12.7469220  12.4093600
  54.7743140  12.2711990  23.1874680  55.4219330  11.7209370  22.7469840
  55.1944980  12.5255140  24.0090490  54.5275140  12.4267660  25.9300000
  54.1789960  12.8831480  26.6958180  54.1962840  11.5324790  26.0122430
  56.1339510  25.5987260  30.0953190  56.0909140  25.2280170  30.9767650
  56.2650520  26.5364830  30.2355010  59.8345540  27.1546850  25.6962910
  59.5936900  27.4221410  24.8093430  60.7748180  27.3252580  25.7513770
  62.0399960  13.6179540  29.4519420  61.9788850  14.2101370  30.2014830
  62.9800340  13.5105500  29.3069680  64.6774520  13.2749600  29.0911710
  65.2914930  13.5928890  28.4292790  65.2224080  12.7898190  29.7107570
  55.1995780  11.9543860  29.2050770  55.7478770  11.7731910  28.4416880
  55.2651090  11.1637970  29.7407080  55.9727540  28.5449510  27.2150970
  55.3787860  28.4134210  27.9541010  55.9651380  27.7087650  26.7493070
  65.4182560  11.8381740  25.4181000  64.5442400  12.1716850  25.2153930
  65.3093310  11.3654920  26.2432870  55.6039770  25.9107890  26.1659010
  54.8773830  25.2913180  26.0984960  55.6648920  26.3048500  25.2957090
  59.2084870  28.1252890  22.9508420  59.7249890  27.5140250  22.4256680
  59.8582250  28.6281670  23.4419430  61.9480370  29.0161380  23.7777400
  62.2358180  28.7615680  22.9010410  62.4603590  28.4638740  24.3682970
  63.1657380  12.7551580  24.3573910  62.3829170  13.2297080  24.6370670
  62.8720310  11.8506410  24.2487090  53.8869770  29.2282280  19.3755770
  53.7191810  28.5952960  20.0737660  53.0204280  29.4341680  19.0249960
  54.5097790  13.0599060  16.8787630  55.2677150  13.1727940  16.3051660
  54.0474960  13.8968260  16.8331060  61.0511600  15.1738330  19.8689940
  60.2386110  14.7995220  19.5285820  61.5553240  14.4183410  20.1711130
  65.5536580  11.8380780  21.1073010  66.1565950  12.4100990  21.5821530
  64.8129570  12.4020220  20.8846910  55.4932470  27.9215510  16.8205910
  54.9680090  28.3023540  16.1167870  55.4177050  28.5466280  17.5415620
  56.8822940  13.5863110  15.4189600  57.4115700  12.7992910  15.2897550
  57.5151260  14.2654300  15.6525130  59.0760780  13.3238250  18.4734990
  58.4463520  12.6225560  18.6405120  58.5365920  14.0842380  18.2568150
  62.0152730  29.9377480  31.1445600  62.9420040  29.7021750  31.1881560
  62.0003160  30.7649480  30.6631630  59.2016340  12.6022230  30.9087480
  58.9200610  13.1055830  30.1448300  59.5836040  11.8043980  30.5429610
  58.0925440  29.8697890  15.6955160  58.8244260  29.5857170  15.1479050
  58.3519110  29.6311170  16.5854540  57.2540230  25.9862620  15.7001490
  56.6249110  26.4547720  16.2487320  57.3688060  25.1411840  16.1347680
  62.8407990  21.8147300   3.7311960  62.0650090  21.3347740   4.0210530
  63.4920920  21.1352950   3.5568120  56.8573820  22.1267110   4.6087720
  56.0258700  21.8715820   5.0084230  57.4654800  22.1977880   5.3445640
  56.8375080  26.1607200   4.8045740  57.1403120  25.2704940   4.6255960
  57.5818670  26.7177420   4.5767990  53.2298780  19.6874650   4.2769810
  53.8014890  18.9196850   4.2773450  53.2300320  19.9863410   3.3676420
  62.2816980  24.4904490   3.7382120  62.2125260  23.5494430   3.5771250
  63.0436840  24.5805900   4.3104690  54.4723650  15.0959010   6.0638740
  54.2926490  14.1984760   6.3441500  54.0703730  15.6430880   6.7385690
  63.3122150  17.2974870   3.9651050  63.6886970  16.4246750   3.8524720
  63.2141660  17.6333570   3.0741490  55.0910320  17.5919510   4.6721080
  55.7720430  17.8557880   5.2908480  54.7758370  16.7520380   5.0059090
  59.2834890  18.6386870   3.7593670  59.7913110  19.1367840   4.3998690
  59.8148130  17.8622070   3.5833030  57.5670990  13.2785430   8.0257090
  57.5689430  13.7957820   7.2202990  56.7375300  12.8015610   8.0027020
  58.8173840  22.9180610   6.2030590  58.4843220  23.5449530   6.8451660
  58.9940520  23.4442490   5.4232260  57.2486320  14.9895390   6.0327540
  57.5903130  15.8337440   5.7381410  56.3102130  15.1379130   6.1492880
  58.0292940  24.8861410   8.0179770  58.6466940  25.5612490   7.7364220
  57.1686060  25.2949390   7.9267270  59.3933310  24.7558790   4.0391190
  59.0961600  24.1504260   3.3598970  60.3433130  24.7936100   3.9280550
  57.6380230  17.8434440   5.6551020  58.1894820  17.9529780   4.8804270
  58.1523740  18.2172040   6.3706250  58.4851740  24.4940480  10.6898990
  57.5880270  24.7180450  10.9372390  58.5104610  24.6175420   9.7410390
  57.3122960  21.3653800   9.2656360  57.1730730  22.2376600   9.6343760
  56.4304320  21.0226610   9.1204300  59.1103310  27.3075500  11.4741510
  59.0818740  27.7118450  10.6069940  58.9468280  26.3785860  11.3113110
  53.2641610  23.1351350   5.1827270  53.3422030  23.2700120   4.2382990
  53.8783290  22.4267240   5.3755390  64.3268120  28.9843450   8.5000500
  64.8412790  28.8951460   9.3022930  63.4837200  29.3303150   8.7928410
  53.3201130  24.1765520   7.7221730  53.4832170  23.7070880   6.9041100
  53.7853580  23.6689080   8.3870570  58.0919900  13.3071280   2.7582300
  57.6488050  14.0880820   2.4266820  58.6504890  13.6301170   3.4653240
  62.3789710  16.1739800   8.3617620  61.9169080  16.3822820   9.1737560
  61.9767820  15.3599150   8.0588290  64.4743930  18.8950500  11.5913070
  64.7997340  18.0614250  11.2515300  65.2624260  19.4179020  11.7391400
  60.1295800  13.8518610   4.6171900  60.4268130  14.7581440   4.5363920
  60.6781360  13.3637390   4.0031470  60.3233330  19.3290430  11.1523820
  60.2276930  18.3885160  11.0024220  61.1665310  19.5505500  10.7571890
  55.4543870  15.7404100   9.3057600  55.0607260  16.5879310   9.5130380
  54.7662270  15.1030470   9.4966240  62.0288920  15.8239070  12.3754340
  61.3387240  15.6311270  13.0100430  62.7721220  16.1073710  12.9078640
  52.7560920  13.6632560   3.3387680  52.4673970  14.2335420   4.0512660
  53.5006680  13.1837010   3.7018910  64.3051890  19.6637510   5.2108260
  63.5733010  20.1724320   5.5598360  63.9076230  18.8467490   4.9097040
  60.7429280  16.3391710   3.6160750  60.7465340  15.8981660   2.7665290
  61.6380400  16.6609040   3.7232570  56.5931660  16.2218200   2.5754960
  56.2531710  16.6993430   3.3322010  55.8308980  15.7683320   2.2156060
  64.7677800  15.1171190   4.6231200  64.7850540  15.5679840   5.4673050
  64.5193380  14.2176830   4.8364640  54.8940110  23.5516950   9.8817540
  54.5094900  22.9110620  10.4800500  55.2052300  24.2553070  10.4512270
  61.0437250  20.3993490   5.3626160  61.4107380  19.9252060   6.1087500
  60.8542310  21.2735060   5.7034500  58.8336620  19.4402130   7.6810370
  58.5293690  20.3194110   7.9060730  59.7883080  19.5001920   7.7167810
  63.5025190  22.7137540   9.9572610  63.4362500  21.7933210   9.7030200
  62.8730330  22.8112980  10.6717250  57.4055810  23.3143500   1.9156030
  57.9234480  22.5111760   1.8612920  56.9539830  23.2522640   2.7572860
  54.8900350  20.2804870   8.8281730  54.5315290  20.9458720   9.4155070
  54.5954910  19.4488420   9.1994350  58.0913470  20.7389110  11.7121280
  57.7913610  20.8846290  10.8149100  58.8624710  20.1794400  11.6194670
  63.4341920  25.5358110   9.7076410  63.4486460  24.6039070   9.4895320
  62.7267020  25.6217870  10.3466180  65.1752720  23.9025620   2.5528840
  65.5276540  23.3053750   1.8930210  64.2915050  23.5769850   2.7237090
  62.8675820  27.1775680   6.8016910  63.5118040  27.3835060   7.4790330
  63.2305260  26.4164080   6.3487760  64.1407900  25.1808030   5.5194360
  64.7830130  24.4801190   5.6326530  64.6657250  25.9606470   5.3391250
  65.9145520  25.9802930   8.7230420  66.2501760  26.5669620   9.4008340
  64.9945860  25.8495640   8.9528210  53.4648920  13.7698110   9.5053830
  52.7507440  13.9695030  10.1106440  53.8843960  12.9937680   9.8768630
  53.7521510  27.7578370  10.4920360  53.8612630  26.8173110  10.3515750
  53.1002070  28.0233120   9.8434090  61.7434100  26.0294260  11.8918480
  61.4230970  25.3103500  12.4364170  61.0692460  26.7049330  11.9654540
  64.9587700  16.2620420   7.2555280  65.3268520  15.4415630   7.5834850
  64.0985900  16.3222310   7.6710930  61.9189690  18.9160010   7.4793250
  62.4174940  19.3905830   8.1445100  62.0612640  17.9923530   7.6863280
  56.8921670  29.6401210   3.1154390  57.6284150  29.0916670   3.3862960
  57.2762590  30.5057220   2.9760380  55.8979950  28.8247280  12.3039970
  56.6992680  29.1459330  12.7175370  55.3831770  28.4642860  13.0259880
  64.7344580  24.9327150  12.2515380  64.1282740  24.9558750  11.5111130
  64.4298690  24.2010190  12.7882630  53.6177760  21.3120740  11.2476020
  54.1216780  20.7328020  11.8192250  52.8785180  21.5960970  11.7852390
  60.6715700  22.7191730  10.7811540  59.9061370  23.2876730  10.6966210
  60.8531660  22.4267940   9.8879770  55.6500840  19.4550330  12.1426090
  55.6906180  19.1564200  13.0511320  56.5046340  19.8557940  11.9833610
  57.5906650  18.0342430  10.1100580  57.0603110  17.5433380   9.4823920
  58.2594720  18.4626630   9.5758510  58.0778950  15.0004800  10.1897870
  57.9835820  14.3825550   9.4648740  57.4976340  15.7271090   9.9627780
  60.8440390  13.5578040   7.2225260  60.3957690  13.5802300   6.3770810
  60.2105590  13.1597060   7.8195560  61.2499940  22.4532370   7.8437700
  61.6688050  23.2965100   7.6713940  60.3308570  22.5904410   7.6144480
  63.5863840  20.1848550   9.2275540  63.7060050  19.5889690   9.9670380
  64.4457840  20.2218240   8.8076840  59.1007360  28.7585380   8.9595430
  58.5628450  29.4831440   8.6404130  59.3541320  28.2815720   8.1692770
  60.3532610  16.7269900  10.4851360  60.9432300  16.4185750  11.1729180
  59.5352850  16.2549650  10.6411260  65.1726040  16.3435710  10.7184380
  64.4841560  15.6817250  10.6534370  65.8932060  15.8973980  11.1632840
  61.9569570  29.9936590   9.2182080  61.8828270  30.8971730   9.5254450
  61.0548410  29.6748490   9.1904150  53.3596860  27.3211180   2.5215700
  53.6899870  26.4532240   2.2894340  53.7887860  27.5269700   3.3520660
  53.8487070  28.1881770   5.2597330  53.4118060  28.3682570   6.0921480
  54.4164750  28.9456390   5.1179050  54.7187430  21.0854570   6.1589550
  55.0860470  20.9981970   7.0385570  54.1498250  20.3221120   6.0596410
  54.2703430  17.9963660  10.0647970  53.3759480  17.9630420  10.4041680
  54.8100980  18.1950450  10.8299220  54.7743140  12.2711990   4.4131190
  55.4219330  11.7209370   3.9726350  55.1944980  12.5255140   5.2347000
  54.5275140  12.4267660   7.1556510  54.1789960  12.8831480   7.9214690
  54.1962840  11.5324790   7.2378940  56.1339510  25.5987260  11.3209700
  56.0909140  25.2280170  12.2024160  56.2650520  26.5364830  11.4611520
  59.8345540  27.1546850   6.9219420  59.5936900  27.4221410   6.0349940
  60.7748180  27.3252580   6.9770280  62.0399960  13.6179540  10.6775930
  61.9788850  14.2101370  11.4271340  62.9800340  13.5105500  10.5326190
  64.6774520  13.2749600  10.3168220  65.2914930  13.5928890   9.6549300
  65.2224080  12.7898190  10.9364080  55.1995780  11.9543860  10.4307280
  55.7478770  11.7731910   9.6673390  55.2651090  11.1637970  10.9663590
  55.9727540  28.5449510   8.4407480  55.3787860  28.4134210   9.1797520
  55.9651380  27.7087650   7.9749580  65.4182560  11.8381740   6.6437510
  64.5442400  12.1716850   6.4410440  65.3093310  11.3654920   7.4689380
  55.6039770  25.9107890   7.3915520  54.8773830  25.2913180   7.3241470
  55.6648920  26.3048500   6.5213600  59.2084870  28.1252890   4.1764930
  59.7249890  27.5140250   3.6513190  59.8582250  28.6281670   4.6675940
  61.9480370  29.0161380   5.0033910  62.2358180  28.7615680   4.1266920
  62.4603590  28.4638740   5.5939480  63.1657380  12.7551580   5.5830420
  62.3829170  13.2297080   5.8627180  62.8720310  11.8506410   5.4743600
  65.5536580  11.8380780   2.3329520  66.1565950  12.4100990   2.8078040
  64.8129570  12.4020220   2.1103420  62.0152730  29.9377480  12.3702110
  62.9420040  29.7021750  12.4138070  62.0003160  30.7649480  11.8888140
  59.2016340  12.6022230  12.1343990  58.9200610  13.1055830  11.3704810
  59.5836040  11.8043980  11.7686120  62.8407990   3.0403810  60.0542430
  62.0650090   2.5604250  60.3441000  63.4920920   2.3609460  59.8798590
  56.8375080   7.3863710  61.1276210  57.1403120   6.4961450  60.9486430
  57.5818670   7.9433930  60.8998460  63.0878730   9.7322010  58.4545550
  62.4690170  10.1879510  57.8839990  63.9430510   9.8873470  58.0535250
  62.2816980   5.7161000  60.0612590  62.2125260   4.7750940  59.9001720
  63.0436840   5.8062410  60.6335160  63.9542080   4.6161250  55.8477460
  63.3359350   5.0810700  55.2840180  64.4665330   5.3088730  56.2646970
  53.3225280   5.3017780  53.2217090  52.9453260   5.7904880  52.4901990
  53.5798350   5.9743060  53.8523620  63.3194970   1.7683000  55.4162720
  62.3924250   1.7020380  55.6451190  63.4719790   2.7063130  55.3017960
  58.9251610   2.2947740  58.1982450  58.5208610   1.5824990  57.7028350
  59.0114730   1.9500980  59.0870490  59.3933310   5.9815300  60.3621660
  59.0961600   5.3760770  59.6829440  60.3433130   6.0192610  60.2511020
  65.5256960   2.5690110  52.9270720  65.9650240   1.7312540  52.7808540
  66.2385380   3.2019510  53.0134860  63.6352340   7.5086180  56.8951960
  64.0748250   8.2510510  56.4807350  63.5739230   7.7512750  57.8190920
  54.5089240   6.0608050  57.9163920  54.1017320   6.2022640  57.0617520
  55.4002250   5.7768210  57.7135130  58.7810900  10.2753830  56.0286590
  58.6053380   9.3589370  55.8154390  57.9266640  10.6341120  56.2684390
  65.5698580   9.6305570  56.8861460  66.0255530   8.8494950  57.2000080
  65.9091100  10.3412390  57.4302640  57.3618410   4.8719630  54.6007690
  56.5880670   4.3317250  54.4406410  58.0913040   4.3526240  54.2625450
  57.4055810   4.5400010  58.2386500  57.9234480   3.7368270  58.1843390
  56.9539830   4.4779150  59.0803330  62.2925310   5.8066290  53.5113800
  62.6341010   6.5508520  53.0157120  61.4638020   6.1197410  53.8738630
  65.1752720   5.1282130  58.8759310  65.5276540   4.5310260  58.2160680
  64.2915050   4.8026360  59.0467560  61.2616000   5.8879820  56.2829720
  61.9487130   6.4349030  56.6637310  60.4748420   6.4320550  56.3179330
  60.5643210   2.8925850  55.8955080  61.0205990   3.7031100  56.1215270
  60.2131420   2.5748990  56.7273570  53.7679650  10.7180020  52.3408430
  54.1277290  11.3169360  51.6865700  53.6271990  11.2639910  53.1143460
  59.7848270   8.1011220  53.1582100  59.7758370   8.8340910  52.5426610
  58.8646630   7.8542800  53.2509060  55.3854910   3.3226110  53.9028860
  54.7782860   4.0625010  53.9124160  55.8604260   3.4125470  53.0767060
  62.7707870   8.1639460  51.8207290  62.8719850   7.9603450  50.8909270
  61.8709610   7.9097740  52.0255070  61.4125980  10.6825780  56.5154960
  61.6667480  10.6447170  55.5934330  60.4638460  10.5559110  56.5083210
  57.3960200   3.2837260  51.6517430  58.1623470   3.1718620  52.2142860
  57.4734890   2.5875230  50.9994200  56.8921670  10.8657720  59.4384860
  57.6284150  10.3173180  59.7093430  57.2762590  11.7313730  59.2990850
  53.7767150   6.9331290  55.3126370  52.8506930   7.1752430  55.3031780
  54.2423580   7.7605550  55.1911120  60.0023980  10.0388030  51.2610430
  60.7952590  10.3276860  50.8092220  59.4828330   9.6080200  50.5822910
  60.5201380   5.2591440  51.1252780  60.4152020   4.6443790  51.8514160
  60.3525600   4.7357330  50.3415790  63.7604110   4.3211470  51.7294770
  63.2114210   4.7680770  52.3737510  64.3823370   3.8160720  52.2532440
  59.4279230   3.2802390  53.6260070  59.8495650   3.1142260  54.4691460
  59.5530070   2.4702620  53.1315210  61.9406870   2.3040000  50.8737170
  62.4612530   1.5889020  50.5078320  62.5875270   2.9425870  51.1737680
  62.5054900  10.3851610  53.1638910  63.4005690  10.7236580  53.1857670
  62.5372530   9.6631020  52.5363190  56.1451060   5.7578660  51.3925910
  56.5825930   6.3008330  52.0483490  56.6298790   4.9325610  51.4022250
  53.3596860   8.5467690  58.8446170  53.6899870   7.6788750  58.6124810
  53.7887860   8.7526210  59.6751130  57.9558780   6.8776700  56.5048140
  57.6554320   6.7541670  57.4052050  57.8496270   6.0185290  56.0963870
  53.6811500   1.9258510  57.9416680  53.0260340   1.6570150  57.2976380
  54.5189450   1.8162990  57.4918660  59.2084870   9.3509400  60.4995400
  59.7249890   8.7396760  59.9743660  59.8582250   9.8538180  60.9906410
  53.8869770  10.4538790  56.9242750  53.7191810   9.8209470  57.6224640
  53.0204280  10.6598190  56.5736940  55.4932470   9.1472020  54.3692890
  54.9680090   9.5280050  53.6654850  55.4177050   9.7722790  55.0902600
  58.0925440  11.0954400  53.2442140  58.8244260  10.8113680  52.6966030
  58.3519110  10.8567680  54.1341520  57.2540230   7.2119130  53.2488470
  56.6249110   7.6804230  53.7974300  57.3688060   6.3668350  53.6834660
  62.8407990   3.0403810  41.2798940  62.0650090   2.5604250  41.5697510
  63.4920920   2.3609460  41.1055100  56.8573820   3.3523620  42.1574700
  56.0258700   3.0972330  42.5571210  57.4654800   3.4234390  42.8932620
  56.8375080   7.3863710  42.3532720  57.1403120   6.4961450  42.1742940
  57.5818670   7.9433930  42.1254970  63.0878730   9.7322010  39.6802060
  62.4690170  10.1879510  39.1096500  63.9430510   9.8873470  39.2791760
  62.2816980   5.7161000  41.2869100  62.2125260   4.7750940  41.1258230
  63.0436840   5.8062410  41.8591670  63.9542080   4.6161250  37.0733970
  63.3359350   5.0810700  36.5096690  64.4665330   5.3088730  37.4903480
  58.8173840   4.1437120  43.7517570  58.4843220   4.7706040  44.3938640
  58.9940520   4.6699000  42.9719240  58.0292940   6.1117920  45.5666750
  58.6466940   6.7869000  45.2851200  57.1686060   6.5205900  45.4754250
  53.3225280   5.3017780  34.4473600  52.9453260   5.7904880  33.7158500
  53.5798350   5.9743060  35.0780130  63.3194970   1.7683000  36.6419230
  62.3924250   1.7020380  36.8707700  63.4719790   2.7063130  36.5274470
  58.9251610   2.2947740  39.4238960  58.5208610   1.5824990  38.9284860
  59.0114730   1.9500980  40.3127000  59.3933310   5.9815300  41.5878170
  59.0961600   5.3760770  40.9085950  60.3433130   6.0192610  41.4767530
  58.4851740   5.7196990  48.2385970  57.5880270   5.9436960  48.4859370
  58.5104610   5.8431930  47.2897370  65.5256960   2.5690110  34.1527230
  65.9650240   1.7312540  34.0065050  66.2385380   3.2019510  34.2391370
  57.3122960   2.5910310  46.8143340  57.1730730   3.4633110  47.1830740
  56.4304320   2.2483120  46.6691280  63.6352340   7.5086180  38.1208470
  64.0748250   8.2510510  37.7063860  63.5739230   7.7512750  39.0447430
  59.1103310   8.5332010  49.0228490  59.0818740   8.9374960  48.1556920
  58.9468280   7.6042370  48.8600090  53.2641610   4.3607860  42.7314250
  53.3422030   4.4956630  41.7869970  53.8783290   3.6523750  42.9242370
  54.5089240   6.0608050  39.1420430  54.1017320   6.2022640  38.2874030
  55.4002250   5.7768210  38.9391640  64.3268120  10.2099960  46.0487480
  64.8412790  10.1207970  46.8509910  63.4837200  10.5559660  46.3415390
  58.7810900  10.2753830  37.2543100  58.6053380   9.3589370  37.0410900
  57.9266640  10.6341120  37.4940900  65.5698580   9.6305570  38.1117970
  66.0255530   8.8494950  38.4256590  65.9091100  10.3412390  38.6559150
  53.3201130   5.4022030  45.2708710  53.4832170   4.9327390  44.4528080
  53.7853580   4.8945590  45.9357550  54.8940110   4.7773460  47.4304520
  54.5094900   4.1367130  48.0287480  55.2052300   5.4809580  47.9999250
  57.3618410   4.8719630  35.8264200  56.5880670   4.3317250  35.6662920
  58.0913040   4.3526240  35.4881960  63.5025190   3.9394050  47.5059590
  63.4362500   3.0189720  47.2517180  62.8730330   4.0369490  48.2204230
  57.4055810   4.5400010  39.4643010  57.9234480   3.7368270  39.4099900
  56.9539830   4.4779150  40.3059840  62.2925310   5.8066290  34.7370310
  62.6341010   6.5508520  34.2413630  61.4638020   6.1197410  35.0995140
  63.4341920   6.7614620  47.2563390  63.4486460   5.8295580  47.0382300
  62.7267020   6.8474380  47.8953160  65.1752720   5.1282130  40.1015820
  65.5276540   4.5310260  39.4417190  64.2915050   4.8026360  40.2724070
  61.2616000   5.8879820  37.5086230  61.9487130   6.4349030  37.8893820
  60.4748420   6.4320550  37.5435840  60.5643210   2.8925850  37.1211590
  61.0205990   3.7031100  37.3471780  60.2131420   2.5748990  37.9530080
  62.8675820   8.4032190  44.3503890  63.5118040   8.6091570  45.0277310
  63.2305260   7.6420590  43.8974740  64.1407900   6.4064540  43.0681340
  64.7830130   5.7057700  43.1813510  64.6657250   7.1862980  42.8878230
  65.9145520   7.2059440  46.2717400  66.2501760   7.7926130  46.9495320
  64.9945860   7.0752150  46.5015190  53.7679650  10.7180020  33.5664940
  54.1277290  11.3169360  32.9122210  53.6271990  11.2639910  34.3399970
  53.7521510   8.9834880  48.0407340  53.8612630   8.0429620  47.9002730
  53.1002070   9.2489630  47.3921070  61.7434100   7.2550770  49.4405460
  61.4230970   6.5360010  49.9851150  61.0692460   7.9305840  49.5141520
  59.7848270   8.1011220  34.3838610  59.7758370   8.8340910  33.7683120
  58.8646630   7.8542800  34.4765570  55.3854910   3.3226110  35.1285370
  54.7782860   4.0625010  35.1380670  55.8604260   3.4125470  34.3023570
  62.7707870   8.1639460  33.0463800  62.8719850   7.9603450  32.1165780
  61.8709610   7.9097740  33.2511580  61.4125980  10.6825780  37.7411470
  61.6667480  10.6447170  36.8190840  60.4638460  10.5559110  37.7339720
  57.3960200   3.2837260  32.8773940  58.1623470   3.1718620  33.4399370
  57.4734890   2.5875230  32.2250710  56.8921670  10.8657720  40.6641370
  57.6284150  10.3173180  40.9349940  57.2762590  11.7313730  40.5247360
  53.7767150   6.9331290  36.5382880  52.8506930   7.1752430  36.5288290
  54.2423580   7.7605550  36.4167630  55.8979950  10.0503790  49.8526950
  56.6992680  10.3715840  50.2662350  55.3831770   9.6899370  50.5746860
  60.0023980  10.0388030  32.4866940  60.7952590  10.3276860  32.0348730
  59.4828330   9.6080200  31.8079420  64.7344580   6.1583660  49.8002360
  64.1282740   6.1815260  49.0598110  64.4298690   5.4266700  50.3369610
  53.6177760   2.5377250  48.7963000  54.1216780   1.9584530  49.3679230
  52.8785180   2.8217480  49.3339370  60.5201380   5.2591440  32.3509290
  60.4152020   4.6443790  33.0770670  60.3525600   4.7357330  31.5672300
  60.6715700   3.9448240  48.3298520  59.9061370   4.5133240  48.2453190
  60.8531660   3.6524450  47.4366750  63.7604110   4.3211470  32.9551280
  63.2114210   4.7680770  33.5994020  64.3823370   3.8160720  33.4788950
  59.4279230   3.2802390  34.8516580  59.8495650   3.1142260  35.6947970
  59.5530070   2.4702620  34.3571720  61.9406870   2.3040000  32.0993680
  62.4612530   1.5889020  31.7334830  62.5875270   2.9425870  32.3994190
  61.2499940   3.6788880  45.3924680  61.6688050   4.5221610  45.2200920
  60.3308570   3.8160920  45.1631460  59.1007360   9.9841890  46.5082410
  58.5628450  10.7087950  46.1891110  59.3541320   9.5072230  45.7179750
  61.9569570  11.2193100  46.7669060  61.8828270  12.1228240  47.0741430
  61.0548410  10.9005000  46.7391130  62.5054900  10.3851610  34.3895420
  63.4005690  10.7236580  34.4114180  62.5372530   9.6631020  33.7619700
  56.1451060   5.7578660  32.6182420  56.5825930   6.3008330  33.2740000
  56.6298790   4.9325610  32.6278760  53.3596860   8.5467690  40.0702680
  53.6899870   7.6788750  39.8381320  53.7887860   8.7526210  40.9007640
  57.9558780   6.8776700  37.7304650  57.6554320   6.7541670  38.6308560
  57.8496270   6.0185290  37.3220380  53.8487070   9.4138280  42.8084310
  53.4118060   9.5939080  43.6408460  54.4164750  10.1712900  42.6666030
  53.6811500   1.9258510  39.1673190  53.0260340   1.6570150  38.5232890
  54.5189450   1.8162990  38.7175170  56.1339510   6.8243770  48.8696680
  56.0909140   6.4536680  49.7511140  56.2650520   7.7621340  49.0098500
  59.8345540   8.3803360  44.4706400  59.5936900   8.6477920  43.5836920
  60.7748180   8.5509090  44.5257260  55.9727540   9.7706020  45.9894460
  55.3787860   9.6390720  46.7284500  55.9651380   8.9344160  45.5236560
  55.6039770   7.1364400  44.9402500  54.8773830   6.5169690  44.8728450
  55.6648920   7.5305010  44.0700580  59.2084870   9.3509400  41.7251910
  59.7249890   8.7396760  41.2000170  59.8582250   9.8538180  42.2162920
  61.9480370  10.2417890  42.5520890  62.2358180   9.9872190  41.6753900
  62.4603590   9.6895250  43.1426460  53.8869770  10.4538790  38.1499260
  53.7191810   9.8209470  38.8481150  53.0204280  10.6598190  37.7993450
  55.4932470   9.1472020  35.5949400  54.9680090   9.5280050  34.8911360
  55.4177050   9.7722790  36.3159110  62.0152730  11.1633990  49.9189090
  62.9420040  10.9278260  49.9625050  62.0003160  11.9905990  49.4375120
  58.0925440  11.0954400  34.4698650  58.8244260  10.8113680  33.9222540
  58.3519110  10.8567680  35.3598030  57.2540230   7.2119130  34.4744980
  56.6249110   7.6804230  35.0230810  57.3688060   6.3668350  34.9091170
  62.8407990   3.0403810  22.5055450  62.0650090   2.5604250  22.7954020
  63.4920920   2.3609460  22.3311610  56.8573820   3.3523620  23.3831210
  56.0258700   3.0972330  23.7827720  57.4654800   3.4234390  24.1189130
  56.8375080   7.3863710  23.5789230  57.1403120   6.4961450  23.3999450
  57.5818670   7.9433930  23.3511480  63.0878730   9.7322010  20.9058570
  62.4690170  10.1879510  20.3353010  63.9430510   9.8873470  20.5048270
  62.2816980   5.7161000  22.5125610  62.2125260   4.7750940  22.3514740
  63.0436840   5.8062410  23.0848180  63.9542080   4.6161250  18.2990480
  63.3359350   5.0810700  17.7353200  64.4665330   5.3088730  18.7159990
  58.8173840   4.1437120  24.9774080  58.4843220   4.7706040  25.6195150
  58.9940520   4.6699000  24.1975750  58.0292940   6.1117920  26.7923260
  58.6466940   6.7869000  26.5107710  57.1686060   6.5205900  26.7010760
  53.3225280   5.3017780  15.6730110  52.9453260   5.7904880  14.9415010
  53.5798350   5.9743060  16.3036640  63.3194970   1.7683000  17.8675740
  62.3924250   1.7020380  18.0964210  63.4719790   2.7063130  17.7530980
  58.9251610   2.2947740  20.6495470  58.5208610   1.5824990  20.1541370
  59.0114730   1.9500980  21.5383510  59.3933310   5.9815300  22.8134680
  59.0961600   5.3760770  22.1342460  60.3433130   6.0192610  22.7024040
  58.4851740   5.7196990  29.4642480  57.5880270   5.9436960  29.7115880
  58.5104610   5.8431930  28.5153880  65.5256960   2.5690110  15.3783740
  65.9650240   1.7312540  15.2321560  66.2385380   3.2019510  15.4647880
  57.3122960   2.5910310  28.0399850  57.1730730   3.4633110  28.4087250
  56.4304320   2.2483120  27.8947790  63.6352340   7.5086180  19.3464980
  64.0748250   8.2510510  18.9320370  63.5739230   7.7512750  20.2703940
  59.1103310   8.5332010  30.2485000  59.0818740   8.9374960  29.3813430
  58.9468280   7.6042370  30.0856600  53.2641610   4.3607860  23.9570760
  53.3422030   4.4956630  23.0126480  53.8783290   3.6523750  24.1498880
  54.5089240   6.0608050  20.3676940  54.1017320   6.2022640  19.5130540
  55.4002250   5.7768210  20.1648150  64.3268120  10.2099960  27.2743990
  64.8412790  10.1207970  28.0766420  63.4837200  10.5559660  27.5671900
  58.7810900  10.2753830  18.4799610  58.6053380   9.3589370  18.2667410
  57.9266640  10.6341120  18.7197410  65.5698580   9.6305570  19.3374480
  66.0255530   8.8494950  19.6513100  65.9091100  10.3412390  19.8815660
  53.3201130   5.4022030  26.4965220  53.4832170   4.9327390  25.6784590
  53.7853580   4.8945590  27.1614060  54.8940110   4.7773460  28.6561030
  54.5094900   4.1367130  29.2543990  55.2052300   5.4809580  29.2255760
  57.3618410   4.8719630  17.0520710  56.5880670   4.3317250  16.8919430
  58.0913040   4.3526240  16.7138470  63.5025190   3.9394050  28.7316100
  63.4362500   3.0189720  28.4773690  62.8730330   4.0369490  29.4460740
  57.4055810   4.5400010  20.6899520  57.9234480   3.7368270  20.6356410
  56.9539830   4.4779150  21.5316350  62.2925310   5.8066290  15.9626820
  62.6341010   6.5508520  15.4670140  61.4638020   6.1197410  16.3251650
  63.4341920   6.7614620  28.4819900  63.4486460   5.8295580  28.2638810
  62.7267020   6.8474380  29.1209670  65.1752720   5.1282130  21.3272330
  65.5276540   4.5310260  20.6673700  64.2915050   4.8026360  21.4980580
  61.2616000   5.8879820  18.7342740  61.9487130   6.4349030  19.1150330
  60.4748420   6.4320550  18.7692350  60.5643210   2.8925850  18.3468100
  61.0205990   3.7031100  18.5728290  60.2131420   2.5748990  19.1786590
  62.8675820   8.4032190  25.5760400  63.5118040   8.6091570  26.2533820
  63.2305260   7.6420590  25.1231250  64.1407900   6.4064540  24.2937850
  64.7830130   5.7057700  24.4070020  64.6657250   7.1862980  24.1134740
  65.9145520   7.2059440  27.4973910  66.2501760   7.7926130  28.1751830
  64.9945860   7.0752150  27.7271700  53.7679650  10.7180020  14.7921450
  54.1277290  11.3169360  14.1378720  53.6271990  11.2639910  15.5656480
  53.7521510   8.9834880  29.2663850  53.8612630   8.0429620  29.1259240
  53.1002070   9.2489630  28.6177580  61.7434100   7.2550770  30.6661970
  61.4230970   6.5360010  31.2107660  61.0692460   7.9305840  30.7398030
  59.7848270   8.1011220  15.6095120  59.7758370   8.8340910  14.9939630
  58.8646630   7.8542800  15.7022080  55.3854910   3.3226110  16.3541880
  54.7782860   4.0625010  16.3637180  55.8604260   3.4125470  15.5280080
  62.7707870   8.1639460  14.2720310  62.8719850   7.9603450  13.3422290
  61.8709610   7.9097740  14.4768090  61.4125980  10.6825780  18.9667980
  61.6667480  10.6447170  18.0447350  60.4638460  10.5559110  18.9596230
  57.3960200   3.2837260  14.1030450  58.1623470   3.1718620  14.6655880
  57.4734890   2.5875230  13.4507220  56.8921670  10.8657720  21.8897880
  57.6284150  10.3173180  22.1606450  57.2762590  11.7313730  21.7503870
  53.7767150   6.9331290  17.7639390  52.8506930   7.1752430  17.7544800
  54.2423580   7.7605550  17.6424140  55.8979950  10.0503790  31.0783460
  56.6992680  10.3715840  31.4918860  55.3831770   9.6899370  31.8003370
  60.0023980  10.0388030  13.7123450  60.7952590  10.3276860  13.2605240
  59.4828330   9.6080200  13.0335930  64.7344580   6.1583660  31.0258870
  64.1282740   6.1815260  30.2854620  64.4298690   5.4266700  31.5626120
  53.6177760   2.5377250  30.0219510  54.1216780   1.9584530  30.5935740
  52.8785180   2.8217480  30.5595880  60.5201380   5.2591440  13.5765800
  60.4152020   4.6443790  14.3027180  60.3525600   4.7357330  12.7928810
  60.6715700   3.9448240  29.5555030  59.9061370   4.5133240  29.4709700
  60.8531660   3.6524450  28.6623260  63.7604110   4.3211470  14.1807790
  63.2114210   4.7680770  14.8250530  64.3823370   3.8160720  14.7045460
  59.4279230   3.2802390  16.0773090  59.8495650   3.1142260  16.9204480
  59.5530070   2.4702620  15.5828230  61.9406870   2.3040000  13.3250190
  62.4612530   1.5889020  12.9591340  62.5875270   2.9425870  13.6250700
  61.2499940   3.6788880  26.6181190  61.6688050   4.5221610  26.4457430
  60.3308570   3.8160920  26.3887970  59.1007360   9.9841890  27.7338920
  58.5628450  10.7087950  27.4147620  59.3541320   9.5072230  26.9436260
  61.9569570  11.2193100  27.9925570  61.8828270  12.1228240  28.2997940
  61.0548410  10.9005000  27.9647640  62.5054900  10.3851610  15.6151930
  63.4005690  10.7236580  15.6370690  62.5372530   9.6631020  14.9876210
  56.1451060   5.7578660  13.8438930  56.5825930   6.3008330  14.4996510
  56.6298790   4.9325610  13.8535270  53.3596860   8.5467690  21.2959190
  53.6899870   7.6788750  21.0637830  53.7887860   8.7526210  22.1264150
  57.9558780   6.8776700  18.9561160  57.6554320   6.7541670  19.8565070
  57.8496270   6.0185290  18.5476890  53.8487070   9.4138280  24.0340820
  53.4118060   9.5939080  24.8664970  54.4164750  10.1712900  23.8922540
  53.6811500   1.9258510  20.3929700  53.0260340   1.6570150  19.7489400
  54.5189450   1.8162990  19.9431680  56.1339510   6.8243770  30.0953190
  56.0909140   6.4536680  30.9767650  56.2650520   7.7621340  30.2355010
  59.8345540   8.3803360  25.6962910  59.5936900   8.6477920  24.8093430
  60.7748180   8.5509090  25.7513770  55.9727540   9.7706020  27.2150970
  55.3787860   9.6390720  27.9541010  55.9651380   8.9344160  26.7493070
  55.6039770   7.1364400  26.1659010  54.8773830   6.5169690  26.0984960
  55.6648920   7.5305010  25.2957090  59.2084870   9.3509400  22.9508420
  59.7249890   8.7396760  22.4256680  59.8582250   9.8538180  23.4419430
  61.9480370  10.2417890  23.7777400  62.2358180   9.9872190  22.9010410
  62.4603590   9.6895250  24.3682970  53.8869770  10.4538790  19.3755770
  53.7191810   9.8209470  20.0737660  53.0204280  10.6598190  19.0249960
  55.4932470   9.1472020  16.8205910  54.9680090   9.5280050  16.1167870
  55.4177050   9.7722790  17.5415620  62.0152730  11.1633990  31.1445600
  62.9420040  10.9278260  31.1881560  62.0003160  11.9905990  30.6631630
  58.0925440  11.0954400  15.6955160  58.8244260  10.8113680  15.1479050
  58.3519110  10.8567680  16.5854540  57.2540230   7.2119130  15.7001490
  56.6249110   7.6804230  16.2487320  57.3688060   6.3668350  16.1347680
  62.8407990   3.0403810   3.7311960  62.0650090   2.5604250   4.0210530
  63.4920920   2.3609460   3.5568120  56.8573820   3.3523620   4.6087720
  56.0258700   3.0972330   5.0084230  57.4654800   3.4234390   5.3445640
  56.8375080   7.3863710   4.8045740  57.1403120   6.4961450   4.6255960
  57.5818670   7.9433930   4.5767990  62.2816980   5.7161000   3.7382120
  62.2125260   4.7750940   3.5771250  63.0436840   5.8062410   4.3104690
  58.8173840   4.1437120   6.2030590  58.4843220   4.7706040   6.8451660
  58.9940520   4.6699000   5.4232260  58.0292940   6.1117920   8.0179770
  58.6466940   6.7869000   7.7364220  57.1686060   6.5205900   7.9267270
  59.3933310   5.9815300   4.0391190  59.0961600   5.3760770   3.3598970
  60.3433130   6.0192610   3.9280550  58.4851740   5.7196990  10.6898990
  57.5880270   5.9436960  10.9372390  58.5104610   5.8431930   9.7410390
  57.3122960   2.5910310   9.2656360  57.1730730   3.4633110   9.6343760
  56.4304320   2.2483120   9.1204300  59.1103310   8.5332010  11.4741510
  59.0818740   8.9374960  10.6069940  58.9468280   7.6042370  11.3113110
  53.2641610   4.3607860   5.1827270  53.3422030   4.4956630   4.2382990
  53.8783290   3.6523750   5.3755390  64.3268120  10.2099960   8.5000500
  64.8412790  10.1207970   9.3022930  63.4837200  10.5559660   8.7928410
  53.3201130   5.4022030   7.7221730  53.4832170   4.9327390   6.9041100
  53.7853580   4.8945590   8.3870570  54.8940110   4.7773460   9.8817540
  54.5094900   4.1367130  10.4800500  55.2052300   5.4809580  10.4512270
  63.5025190   3.9394050   9.9572610  63.4362500   3.0189720   9.7030200
  62.8730330   4.0369490  10.6717250  57.4055810   4.5400010   1.9156030
  57.9234480   3.7368270   1.8612920  56.9539830   4.4779150   2.7572860
  63.4341920   6.7614620   9.7076410  63.4486460   5.8295580   9.4895320
  62.7267020   6.8474380  10.3466180  65.1752720   5.1282130   2.5528840
  65.5276540   4.5310260   1.8930210  64.2915050   4.8026360   2.7237090
  62.8675820   8.4032190   6.8016910  63.5118040   8.6091570   7.4790330
  63.2305260   7.6420590   6.3487760  64.1407900   6.4064540   5.5194360
  64.7830130   5.7057700   5.6326530  64.6657250   7.1862980   5.3391250
  65.9145520   7.2059440   8.7230420  66.2501760   7.7926130   9.4008340
  64.9945860   7.0752150   8.9528210  53.7521510   8.9834880  10.4920360
  53.8612630   8.0429620  10.3515750  53.1002070   9.2489630   9.8434090
  61.7434100   7.2550770  11.8918480  61.4230970   6.5360010  12.4364170
  61.0692460   7.9305840  11.9654540  56.8921670  10.8657720   3.1154390
  57.6284150  10.3173180   3.3862960  57.2762590  11.7313730   2.9760380
  55.8979950  10.0503790  12.3039970  56.6992680  10.3715840  12.7175370
  55.3831770   9.6899370  13.0259880  64.7344580   6.1583660  12.2515380
  64.1282740   6.1815260  11.5111130  64.4298690   5.4266700  12.7882630
  53.6177760   2.5377250  11.2476020  54.1216780   1.9584530  11.8192250
  52.8785180   2.8217480  11.7852390  60.6715700   3.9448240  10.7811540
  59.9061370   4.5133240  10.6966210  60.8531660   3.6524450   9.8879770
  61.2499940   3.6788880   7.8437700  61.6688050   4.5221610   7.6713940
  60.3308570   3.8160920   7.6144480  59.1007360   9.9841890   8.9595430
  58.5628450  10.7087950   8.6404130  59.3541320   9.5072230   8.1692770
  61.9569570  11.2193100   9.2182080  61.8828270  12.1228240   9.5254450
  61.0548410  10.9005000   9.1904150  53.3596860   8.5467690   2.5215700
  53.6899870   7.6788750   2.2894340  53.7887860   8.7526210   3.3520660
  53.8487070   9.4138280   5.2597330  53.4118060   9.5939080   6.0921480
  54.4164750  10.1712900   5.1179050  56.1339510   6.8243770  11.3209700
  56.0909140   6.4536680  12.2024160  56.2650520   7.7621340  11.4611520
  59.8345540   8.3803360   6.9219420  59.5936900   8.6477920   6.0349940
  60.7748180   8.5509090   6.9770280  55.9727540   9.7706020   8.4407480
  55.3787860   9.6390720   9.1797520  55.9651380   8.9344160   7.9749580
  55.6039770   7.1364400   7.3915520  54.8773830   6.5169690   7.3241470
  55.6648920   7.5305010   6.5213600  59.2084870   9.3509400   4.1764930
  59.7249890   8.7396760   3.6513190  59.8582250   9.8538180   4.6675940
  61.9480370  10.2417890   5.0033910  62.2358180   9.9872190   4.1266920
  62.4603590   9.6895250   5.5939480  62.0152730  11.1633990  12.3702110
  62.9420040  10.9278260  12.4138070  62.0003160  11.9905990  11.8888140
  45.9346460  57.5855260  58.1733160  45.8540510  56.6709870  57.9024870
  45.5210880  58.0822330  57.4672870  36.4922280  54.6355980  54.7160580
  35.6038980  54.9771950  54.6140460  36.7763470  54.4356300  53.8241410
  34.4555290  57.2361630  60.6000280  35.0271400  56.4683830  60.6003920
  34.4556830  57.5350390  59.6906890  44.5378660  54.8461850  60.2881520
  44.9143480  53.9733730  60.1755190  44.4398170  55.1820550  59.3971960
  38.6683670  53.2187480  55.7498960  38.7750420  54.1191210  56.0567720
  37.7576030  53.1705450  55.4593610  48.3202780  52.3412290  57.2209860
  49.1412400  51.8508860  57.2635340  48.3536860  52.9309950  57.9741700
  40.5091400  56.1873850  60.0824140  41.0169620  56.6854820  60.7229160
  41.0404640  55.4109050  59.9063500  48.5564260  54.2812670  59.9937400
  47.8519830  54.5697560  60.5740510  48.9176420  55.0912780  59.6336960
  51.6251180  53.7267460  60.3846610  50.6776090  53.7606440  60.5162040
  51.9501170  54.5406410  60.7695970  42.1570720  50.0264640  58.6802600
  42.4645700  49.4711530  57.9638100  41.2271420  50.1609100  58.4975590
  44.5320560  54.3630470  52.4129880  43.5924230  54.5244430  52.4982340
  44.8503820  55.0816150  51.8665870  40.1508120  58.6178210  58.1982450
  39.7465120  57.9055460  57.7028350  40.2371240  58.2731450  59.0870490
  50.3330610  50.1463390  51.2411760  50.0203270  50.2390220  52.1410830
  51.0943080  50.7244420  51.1909190  36.8512750  57.5123190  55.6989100
  36.7310350  58.2385280  55.0870370  36.5413640  56.7426100  55.2217010
  39.3176410  50.8558260  59.0812770  38.8744560  51.6367800  58.7497290
  39.8761400  51.1788150  59.7883710  42.4335230  50.4768960  53.9618600
  41.8089410  50.4728830  54.6871910  42.3465350  49.6099920  53.5654570
  41.3552310  51.4005590  60.9402370  41.6524640  52.3068420  60.8594390
  41.9037870  50.9124370  60.3261940  39.1090630  55.9791830  56.8094020
  38.8831550  55.7629000  57.7140640  38.3283160  56.4120290  56.4639990
  46.3388390  55.9855200  55.4084670  45.7397280  56.7091000  55.2248290
  46.8868000  55.9231980  54.6261120  44.9453260  54.6218740  57.4387950
  45.3382830  54.9390940  56.6256640  45.3070110  53.7430620  57.5532470
  33.9817430  51.2119540  59.6618150  33.6930480  51.7822400  60.3743130
  34.7263190  50.7323990  60.0249380  34.1687660  55.1539660  50.8720870
  34.0862330  56.0970420  51.0135860  33.8170720  55.0114570  49.9933220
  41.9685790  53.8878690  59.9391220  41.9721850  53.4468640  59.0895760
  42.8636910  54.2096020  60.0463040  37.8188170  53.7705180  58.8985430
  37.4788220  54.2480410  59.6552480  37.0565490  53.3170300  58.5386530
  42.0305940  54.8890770  52.9297980  42.1518760  54.8477250  53.8783800
  41.6454450  55.7514920  52.7744710  41.0427440  57.1991910  52.3281280
  40.4744340  56.7510160  51.7017190  41.7516440  57.5584690  51.7946430
  35.1334250  52.6924160  57.8150100  34.8481170  52.3279830  58.6528720
  35.0713110  51.9604620  57.2013240  44.8072840  51.5853420  54.5363470
  43.9937450  51.0866590  54.4608780  44.6134790  52.4251670  54.1199820
  47.5221230  55.9573070  52.8325630  48.4100850  56.2690300  52.6576970
  47.4926320  55.0845320  52.4406210  49.7935500  57.2684910  52.3005490
  49.7099220  57.6999130  51.4501930  50.5129690  57.7283260  52.7332310
  34.6264910  57.8283110  51.7746800  35.4959760  58.1107910  52.0582720
  34.1355230  58.6418980  51.6595610  37.6911500  49.5593970  56.3677600
  37.5626130  49.5511870  57.3162520  36.8673520  49.8977060  56.0168610
  49.5506240  52.7664340  54.3873310  48.9219400  52.8710010  53.6731540
  49.0558160  52.9861120  55.1767190  41.5190270  55.0450290  55.8031190
  40.8106420  55.5136630  56.2444800  41.8034750  54.3872300  56.4376380
  45.5505700  51.7700950  57.2426980  45.4273480  51.7887080  56.2936490
  46.4990260  51.8179890  57.3625380  39.7225290  53.3535370  53.1781900
  40.5715820  53.7905520  53.1122090  39.3556560  53.6655630  54.0053960
  48.6435070  57.9248130  58.0913470  47.7025210  57.9398360  58.2661160
  48.9579140  57.1384090  58.5373770  37.3163470  57.0392800  52.3350320
  37.3967060  56.0920310  52.4467720  38.2083220  57.3699680  52.4410980
  39.5494640  55.6766090  50.5718230  39.3483700  54.8133450  50.9331570
  39.3786690  55.5899450  49.6339830  47.0282950  50.4874320  53.1005110
  47.3085240  49.6442220  53.4564530  46.2548680  50.7197430  53.6143860
  38.3477440  52.7766710  50.5596110  38.6503340  52.7834140  49.6515260
  39.0872030  52.4264570  51.0563770  41.5662370  51.7201330  51.5452310
  41.2184370  51.0425320  50.9654760  41.7675140  51.2590840  52.3595700
  34.9068010  58.2488980  57.9416680  34.2516850  57.9800620  57.2976380
  35.7445960  58.1393460  57.4918660  47.8558450  53.0430270  52.1635170
  48.2743330  52.8561250  51.3231830  47.5494510  52.1909320  52.4738100
  51.3548180  57.9554410  55.8610970  50.9791780  57.1882340  55.4292260
  50.6251300  58.3377110  56.3485900  34.1206090  55.4587910  53.8842010
  33.2170170  55.7218110  53.7093670  34.6046710  55.7299080  53.1041970
  50.6299140  56.1811900  59.1618210  51.1536620  55.6874550  58.5308380
  51.2158560  56.3162260  59.9065780  36.6633300  54.5153450  51.7936390
  37.3725000  54.0936670  51.3083670  35.9473240  54.5828680  51.1619740
  36.3107460  50.5692780  50.8339040  37.0335590  51.1101720  51.1520260
  36.5831980  50.2956200  49.9580580  50.1199110  55.4385250  55.1010620
  50.6158230  55.2056120  55.8859500  49.9215180  54.5997090  54.6848260
  51.5486270  54.0746200  57.6348300  51.4385550  53.9202240  58.5730570
  52.3093860  53.5467140  57.3923710  52.4376540  51.9054120  50.8754440
  53.3625850  51.7735300  50.6672730  52.4152330  51.9846940  51.8290890
  52.5115030  52.6764780  53.5011150  51.7166530  52.6109900  54.0304060
  52.7158310  53.6115420  53.4896500  48.9434960  51.0061660  59.9509980
  49.3843050  50.9506760  59.1031580  48.6742550  51.9219670  60.0220160
  50.8073530  50.6376900  57.9618800  50.7461930  49.6938120  57.8149820
  51.5865560  50.7456990  58.5072260  35.7354300  50.6086040  54.4274610
  36.4933660  50.7214920  53.8538640  35.2731470  51.4455240  54.3818040
  42.2768110  52.7225310  57.4176920  41.4642620  52.3482200  57.0772800
  42.7809750  51.9670390  57.7198110  46.7793090  49.3867760  58.6559990
  47.3822460  49.9587970  59.1308510  46.0386080  49.9507200  58.4333890
  49.9227690  49.7889320  53.9300270  50.1178320  50.6872770  54.1967700
  49.1357560  49.5576400  54.4233220  38.1079450  51.1350090  52.9676580
  38.6372210  50.3479890  52.8384530  38.7407770  51.8141280  53.2012110
  40.3017290  50.8725230  56.0221970  39.6720030  50.1712540  56.1892100
  39.7622430  51.6329360  55.8055130  45.9346460  57.5855260  39.3989670
  45.8540510  56.6709870  39.1281380  45.5210880  58.0822330  38.6929380
  36.4922280  54.6355980  35.9417090  35.6038980  54.9771950  35.8396970
  36.7763470  54.4356300  35.0497920  34.4555290  57.2361630  41.8256790
  35.0271400  56.4683830  41.8260430  34.4556830  57.5350390  40.9163400
  35.6980160  52.6445990  43.6125720  35.5183000  51.7471740  43.8928480
  35.2960240  53.1917860  44.2872670  44.5378660  54.8461850  41.5138030
  44.9143480  53.9733730  41.4011700  44.4398170  55.1820550  40.6228470
  38.6683670  53.2187480  36.9755470  38.7750420  54.1191210  37.2824230
  37.7576030  53.1705450  36.6850120  48.3202780  52.3412290  38.4466370
  49.1412400  51.8508860  38.4891850  48.3536860  52.9309950  39.1998210
  36.3166830  55.1406490  42.2208060  36.9976940  55.4044860  42.8395460
  36.0014880  54.3007360  42.5546070  40.5091400  56.1873850  41.3080650
  41.0169620  56.6854820  41.9485670  41.0404640  55.4109050  41.1320010
  52.6102330  54.3579040  45.0110000  51.9054500  54.7460750  44.4925110
  52.8760250  55.0529330  45.6130930  38.7927500  50.8272410  45.5744070
  38.7945940  51.3444800  44.7689970  37.9631810  50.3502590  45.5514000
  48.5564260  54.2812670  41.2193910  47.8519830  54.5697560  41.7997020
  48.9176420  55.0912780  40.8593470  38.4742830  52.5382370  43.5814520
  38.8159640  53.3824420  43.2868390  37.5358640  52.6866110  43.6979860
  51.6251180  53.7267460  41.6103120  50.6776090  53.7606440  41.7418550
  51.9501170  54.5406410  41.9952480  42.1570720  50.0264640  39.9059110
  42.4645700  49.4711530  39.1894610  41.2271420  50.1609100  39.7232100
  44.5320560  54.3630470  33.6386390  43.5924230  54.5244430  33.7238850
  44.8503820  55.0816150  33.0922380  48.0175330  55.8318310  44.5620290
  47.6046510  56.6572020  44.8160280  47.2851280  55.2463350  44.3696650
  40.1508120  58.6178210  39.4238960  39.7465120  57.9055460  38.9284860
  40.2371240  58.2731450  40.3127000  38.8636740  55.3921420  43.2038000
  39.4151330  55.5016760  42.4291250  39.3780250  55.7659020  43.9193230
  50.3330610  50.1463390  32.4668270  50.0203270  50.2390220  33.3667340
  51.0943080  50.7244420  32.4165700  36.8512750  57.5123190  36.9245610
  36.7310350  58.2385280  36.3126880  36.5413640  56.7426100  36.4473520
  51.5431900  54.8834890  48.4442410  50.9276170  55.3914560  47.9157870
  51.2228320  53.9833220  48.3868350  39.3176410  50.8558260  40.3069280
  38.8744560  51.6367800  39.9753800  39.8761400  51.1788150  41.0140220
  43.6046220  53.7226780  45.9104600  43.1425590  53.9309800  46.7224540
  43.2024330  52.9086130  45.6075270  48.6050730  54.9435730  47.0401260
  47.7544320  54.6441480  47.3610330  48.4452520  55.1877740  46.1285080
  45.7000440  56.4437480  49.1400050  46.0253850  55.6101230  48.8002280
  46.4880770  56.9666000  49.2878380  42.4335230  50.4768960  35.1875110
  41.8089410  50.4728830  35.9128420  42.3465350  49.6099920  34.7911080
  41.3552310  51.4005590  42.1658880  41.6524640  52.3068420  42.0850900
  41.9037870  50.9124370  41.5518450  39.1090630  55.9791830  38.0350530
  38.8831550  55.7629000  38.9397150  38.3283160  56.4120290  37.6896500
  46.3388390  55.9855200  36.6341180  45.7397280  56.7091000  36.4504800
  46.8868000  55.9231980  35.8517630  41.5489840  56.8777410  48.7010800
  41.4533440  55.9372140  48.5511200  42.3921820  57.0992480  48.3058870
  44.9453260  54.6218740  38.6644460  45.3382830  54.9390940  37.8513150
  45.3070110  53.7430620  38.7788980  36.6800380  53.2891080  46.8544580
  36.2863770  54.1366290  47.0617360  35.9918780  52.6517450  47.0453220
  43.2545430  53.3726050  49.9241320  42.5643750  53.1798250  50.5587410
  43.9977730  53.6560690  50.4565620  33.9817430  51.2119540  40.8874660
  33.6930480  51.7822400  41.5999640  34.7263190  50.7323990  41.2505890
  34.1687660  55.1539660  32.0977380  34.0862330  56.0970420  32.2392370
  33.8170720  55.0114570  31.2189730  45.5308400  57.2124490  42.7595240
  44.7989520  57.7211300  43.1085340  45.1332740  56.3954470  42.4584020
  41.9685790  53.8878690  41.1647730  41.9721850  53.4468640  40.3152270
  42.8636910  54.2096020  41.2719550  37.8188170  53.7705180  40.1241940
  37.4788220  54.2480410  40.8808990  37.0565490  53.3170300  39.7643040
  42.0305940  54.8890770  34.1554490  42.1518760  54.8477250  35.1040310
  41.6454450  55.7514920  34.0001220  45.9934310  52.6658170  42.1718180
  46.0107050  53.1166820  43.0160030  45.7449890  51.7663810  42.3851620
  41.0427440  57.1991910  33.5537790  40.4744340  56.7510160  32.9273700
  41.7516440  57.5584690  33.0202940  49.4205060  50.0790350  48.0104560
  49.7450830  49.3480010  48.5362540  49.4561570  49.7603990  47.1085550
  42.2693760  57.9480470  42.9113140  42.6363890  57.4739040  43.6574480
  42.0798820  58.8222040  43.2521480  35.1334250  52.6924160  39.0406610
  34.8481170  52.3279830  39.8785230  35.0713110  51.9604620  38.4269750
  40.0593130  56.9889110  45.2297350  39.7550200  57.8681090  45.4547710
  41.0139590  57.0488900  45.2654790  44.8072840  51.5853420  35.7619980
  43.9937450  51.0866590  35.6865290  44.6134790  52.4251670  35.3456330
  47.5221230  55.9573070  34.0582140  48.4100850  56.2690300  33.8833480
  47.4926320  55.0845320  33.6662720  36.1156860  57.8291850  46.3768710
  35.7571800  58.4945700  46.9642050  35.8211420  56.9975400  46.7481330
  39.3169980  58.2876090  49.2608260  39.0170120  58.4333270  48.3636080
  40.0881220  57.7281380  49.1681650  49.7935500  57.2684910  33.5262000
  49.7099220  57.6999130  32.6758440  50.5129690  57.7283260  33.9588820
  34.6264910  57.8283110  33.0003310  35.4959760  58.1107910  33.2839230
  34.1355230  58.6418980  32.8852120  37.6911500  49.5593970  37.5934110
  37.5626130  49.5511870  38.5419030  36.8673520  49.8977060  37.2425120
  34.6905430  51.3185090  47.0540810  33.9763950  51.5182010  47.6593420
  35.1100470  50.5424660  47.4255610  46.1844210  53.8107400  44.8042260
  46.5525030  52.9902610  45.1321830  45.3242410  53.8709290  45.2197910
  49.5506240  52.7664340  35.6129820  48.9219400  52.8710010  34.8988050
  49.0558160  52.9861120  36.4023700  41.5190270  55.0450290  37.0287700
  40.8106420  55.5136630  37.4701310  41.8034750  54.3872300  37.6632890
  43.1446200  56.4646990  45.0280230  43.6431450  56.9392810  45.6932080
  43.2869150  55.5410510  45.2350260  45.5505700  51.7700950  38.4683490
  45.4273480  51.7887080  37.5193000  46.4990260  51.8179890  38.5881890
  39.7225290  53.3535370  34.4038410  40.5715820  53.7905520  34.3378600
  39.3556560  53.6655630  35.2310470  50.3513060  52.6814950  45.8708620
  49.8486660  53.4220350  46.2102430  51.1669720  53.0698950  45.5545410
  48.6435070  57.9248130  39.3169980  47.7025210  57.9398360  39.4917670
  48.9579140  57.1384090  39.7630280  37.3163470  57.0392800  33.5606830
  37.3967060  56.0920310  33.6724230  38.2083220  57.3699680  33.6667490
  36.8757350  57.0037310  49.6913070  36.9162690  56.7051180  50.5998300
  37.7302850  57.4044920  49.5320590  38.8163160  55.5829410  47.6587560
  38.2859620  55.0920360  47.0310900  39.4851230  56.0113610  47.1245490
  48.1863390  57.3895030  49.4267900  48.7684160  56.6347350  49.3388380
  48.3625160  57.9202470  48.6499380  39.3035460  52.5491780  47.7384850
  39.2092330  51.9312530  47.0135720  38.7232850  53.2758070  47.5114760
  42.0696900  51.1065020  44.7712240  41.6214200  51.1289280  43.9257790
  41.4362100  50.7084040  45.3682540  44.8120350  57.7335530  46.7762520
  44.9316560  57.1376670  47.5157360  45.6714350  57.7705220  46.3563820
  39.5494640  55.6766090  31.7974740  39.3483700  54.8133450  32.1588080
  39.3786690  55.5899450  30.8596340  41.5789120  54.2756880  48.0338340
  42.1688810  53.9672730  48.7216160  40.7609360  53.8036630  48.1898240
  46.3982550  53.8922690  48.2671360  45.7098070  53.2304230  48.2021350
  47.1188570  53.4460960  48.7119820  47.0282950  50.4874320  34.3261620
  47.3085240  49.6442220  34.6821040  46.2548680  50.7197430  34.8400370
  38.3477440  52.7766710  31.7852620  38.6503340  52.7834140  30.8771770
  39.0872030  52.4264570  32.2820280  41.5662370  51.7201330  32.7708820
  41.2184370  51.0425320  32.1911270  41.7675140  51.2590840  33.5852210
  34.9068010  58.2488980  39.1673190  34.2516850  57.9800620  38.5232890
  35.7445960  58.1393460  38.7175170  47.8558450  53.0430270  33.3891680
  48.2743330  52.8561250  32.5488340  47.5494510  52.1909320  33.6994610
  51.3548180  57.9554410  37.0867480  50.9791780  57.1882340  36.6548770
  50.6251300  58.3377110  37.5742410  35.9443940  58.6341550  43.7076530
  36.3116980  58.5468950  44.5872550  35.3754760  57.8708100  43.6083390
  50.7447800  57.1025930  46.7207000  50.5133890  56.8738680  45.8204950
  51.0052350  58.0225480  46.6751890  35.4959940  55.5450640  47.6134950
  34.6015990  55.5117400  47.9528660  36.0357490  55.7437430  48.3786200
  49.1835870  52.3282360  49.4986700  50.0606050  52.3365760  49.8820700
  49.1956710  51.5913200  48.8879050  34.1206090  55.4587910  35.1098520
  33.2170170  55.7218110  34.9350180  34.6046710  55.7299080  34.3298480
  50.6299140  56.1811900  40.3874720  51.1536620  55.6874550  39.7564890
  51.2158560  56.3162260  41.1322290  50.8088860  56.2651770  43.9094270
  49.8591570  56.2315310  44.0239260  50.9901870  57.1751880  43.6744040
  36.6633300  54.5153450  33.0192900  37.3725000  54.0936670  32.5340180
  35.9473240  54.5828680  32.3876250  36.3107460  50.5692780  32.0595550
  37.0335590  51.1101720  32.3776770  36.5831980  50.2956200  31.1837090
  50.1199110  55.4385250  36.3267130  50.6158230  55.2056120  37.1116010
  49.9215180  54.5997090  35.9104770  35.9999650  49.8198970  41.9618170
  36.6475840  49.2696350  41.5213330  36.4201490  50.0742120  42.7833980
  51.5486270  54.0746200  38.8604810  51.4385550  53.9202240  39.7987080
  52.3093860  53.5467140  38.6180220  49.8951990  50.0140330  45.3187810
  50.5324210  50.6274470  45.6847000  50.0426880  50.0500990  44.3737040
  52.4376540  51.9054120  32.1010950  53.3625850  51.7735300  31.8929240
  52.4152330  51.9846940  33.0547400  52.5115030  52.6764780  34.7267660
  51.7166530  52.6109900  35.2560570  52.7158310  53.6115420  34.7153010
  35.7531650  49.9754640  44.7043490  35.4046470  50.4318460  45.4701670
  35.4219350  49.0811770  44.7865920  43.2656470  51.1666520  48.2262910
  43.2045360  51.7588350  48.9758320  44.2056850  51.0592480  48.0813170
  45.9031030  50.8236580  47.8655200  46.5171440  51.1415870  47.2036280
  46.4480590  50.3385170  48.4851060  36.4252290  49.5030840  47.9794260
  36.9735280  49.3218890  47.2160370  36.4907600  48.7124950  48.5150570
  46.6439070  49.3868720  44.1924490  45.7698910  49.7203830  43.9897420
  46.5349820  48.9141900  45.0176360  47.5511050  51.5939590  45.5766210
  47.2224410  50.7791350  45.1967940  48.4993350  51.5509400  45.4531900
  44.3913890  50.3038560  43.1317400  43.6085680  50.7784060  43.4114160
  44.0976820  49.3993390  43.0230580  48.9434960  51.0061660  41.1766490
  49.3843050  50.9506760  40.3288090  48.6742550  51.9219670  41.2476670
  50.8073530  50.6376900  39.1875310  50.7461930  49.6938120  39.0406330
  51.5865560  50.7456990  39.7328770  35.7354300  50.6086040  35.6531120
  36.4933660  50.7214920  35.0795150  35.2731470  51.4455240  35.6074550
  42.2768110  52.7225310  38.6433430  41.4642620  52.3482200  38.3029310
  42.7809750  51.9670390  38.9454620  46.7793090  49.3867760  39.8816500
  47.3822460  49.9587970  40.3565020  46.0386080  49.9507200  39.6590400
  49.9227690  49.7889320  35.1556780  50.1178320  50.6872770  35.4224210
  49.1357560  49.5576400  35.6489730  38.1079450  51.1350090  34.1933090
  38.6372210  50.3479890  34.0641040  38.7407770  51.8141280  34.4268620
  40.3017290  50.8725230  37.2478480  39.6720030  50.1712540  37.4148610
  39.7622430  51.6329360  37.0311640  40.4272850  50.1509210  49.6830970
  40.1457120  50.6542810  48.9191790  40.8092550  49.3530960  49.3173100
  47.0288310  49.5662790  50.2611440  46.9153760  49.8857400  51.1562960
  47.8458050  49.9675300  49.9648720  45.9346460  57.5855260  20.6246180
  45.8540510  56.6709870  20.3537890  45.5210880  58.0822330  19.9185890
  36.4922280  54.6355980  17.1673600  35.6038980  54.9771950  17.0653480
  36.7763470  54.4356300  16.2754430  34.4555290  57.2361630  23.0513300
  35.0271400  56.4683830  23.0516940  34.4556830  57.5350390  22.1419910
  35.6980160  52.6445990  24.8382230  35.5183000  51.7471740  25.1184990
  35.2960240  53.1917860  25.5129180  44.5378660  54.8461850  22.7394540
  44.9143480  53.9733730  22.6268210  44.4398170  55.1820550  21.8484980
  38.6683670  53.2187480  18.2011980  38.7750420  54.1191210  18.5080740
  37.7576030  53.1705450  17.9106630  48.3202780  52.3412290  19.6722880
  49.1412400  51.8508860  19.7148360  48.3536860  52.9309950  20.4254720
  36.3166830  55.1406490  23.4464570  36.9976940  55.4044860  24.0651970
  36.0014880  54.3007360  23.7802580  40.5091400  56.1873850  22.5337160
  41.0169620  56.6854820  23.1742180  41.0404640  55.4109050  22.3576520
  52.6102330  54.3579040  26.2366510  51.9054500  54.7460750  25.7181620
  52.8760250  55.0529330  26.8387440  38.7927500  50.8272410  26.8000580
  38.7945940  51.3444800  25.9946480  37.9631810  50.3502590  26.7770510
  48.5564260  54.2812670  22.4450420  47.8519830  54.5697560  23.0253530
  48.9176420  55.0912780  22.0849980  38.4742830  52.5382370  24.8071030
  38.8159640  53.3824420  24.5124900  37.5358640  52.6866110  24.9236370
  51.6251180  53.7267460  22.8359630  50.6776090  53.7606440  22.9675060
  51.9501170  54.5406410  23.2208990  42.1570720  50.0264640  21.1315620
  42.4645700  49.4711530  20.4151120  41.2271420  50.1609100  20.9488610
  44.5320560  54.3630470  14.8642900  43.5924230  54.5244430  14.9495360
  44.8503820  55.0816150  14.3178890  48.0175330  55.8318310  25.7876800
  47.6046510  56.6572020  26.0416790  47.2851280  55.2463350  25.5953160
  40.1508120  58.6178210  20.6495470  39.7465120  57.9055460  20.1541370
  40.2371240  58.2731450  21.5383510  38.8636740  55.3921420  24.4294510
  39.4151330  55.5016760  23.6547760  39.3780250  55.7659020  25.1449740
  50.3330610  50.1463390  13.6924780  50.0203270  50.2390220  14.5923850
  51.0943080  50.7244420  13.6422210  36.8512750  57.5123190  18.1502120
  36.7310350  58.2385280  17.5383390  36.5413640  56.7426100  17.6730030
  51.5431900  54.8834890  29.6698920  50.9276170  55.3914560  29.1414380
  51.2228320  53.9833220  29.6124860  39.3176410  50.8558260  21.5325790
  38.8744560  51.6367800  21.2010310  39.8761400  51.1788150  22.2396730
  43.6046220  53.7226780  27.1361110  43.1425590  53.9309800  27.9481050
  43.2024330  52.9086130  26.8331780  48.6050730  54.9435730  28.2657770
  47.7544320  54.6441480  28.5866840  48.4452520  55.1877740  27.3541590
  45.7000440  56.4437480  30.3656560  46.0253850  55.6101230  30.0258790
  46.4880770  56.9666000  30.5134890  42.4335230  50.4768960  16.4131620
  41.8089410  50.4728830  17.1384930  42.3465350  49.6099920  16.0167590
  41.3552310  51.4005590  23.3915390  41.6524640  52.3068420  23.3107410
  41.9037870  50.9124370  22.7774960  39.1090630  55.9791830  19.2607040
  38.8831550  55.7629000  20.1653660  38.3283160  56.4120290  18.9153010
  46.3388390  55.9855200  17.8597690  45.7397280  56.7091000  17.6761310
  46.8868000  55.9231980  17.0774140  41.5489840  56.8777410  29.9267310
  41.4533440  55.9372140  29.7767710  42.3921820  57.0992480  29.5315380
  44.9453260  54.6218740  19.8900970  45.3382830  54.9390940  19.0769660
  45.3070110  53.7430620  20.0045490  36.6800380  53.2891080  28.0801090
  36.2863770  54.1366290  28.2873870  35.9918780  52.6517450  28.2709730
  43.2545430  53.3726050  31.1497830  42.5643750  53.1798250  31.7843920
  43.9977730  53.6560690  31.6822130  33.9817430  51.2119540  22.1131170
  33.6930480  51.7822400  22.8256150  34.7263190  50.7323990  22.4762400
  34.1687660  55.1539660  13.3233890  34.0862330  56.0970420  13.4648880
  33.8170720  55.0114570  12.4446240  45.5308400  57.2124490  23.9851750
  44.7989520  57.7211300  24.3341850  45.1332740  56.3954470  23.6840530
  41.9685790  53.8878690  22.3904240  41.9721850  53.4468640  21.5408780
  42.8636910  54.2096020  22.4976060  37.8188170  53.7705180  21.3498450
  37.4788220  54.2480410  22.1065500  37.0565490  53.3170300  20.9899550
  42.0305940  54.8890770  15.3811000  42.1518760  54.8477250  16.3296820
  41.6454450  55.7514920  15.2257730  45.9934310  52.6658170  23.3974690
  46.0107050  53.1166820  24.2416540  45.7449890  51.7663810  23.6108130
  41.0427440  57.1991910  14.7794300  40.4744340  56.7510160  14.1530210
  41.7516440  57.5584690  14.2459450  49.4205060  50.0790350  29.2361070
  49.7450830  49.3480010  29.7619050  49.4561570  49.7603990  28.3342060
  42.2693760  57.9480470  24.1369650  42.6363890  57.4739040  24.8830990
  42.0798820  58.8222040  24.4777990  35.1334250  52.6924160  20.2663120
  34.8481170  52.3279830  21.1041740  35.0713110  51.9604620  19.6526260
  40.0593130  56.9889110  26.4553860  39.7550200  57.8681090  26.6804220
  41.0139590  57.0488900  26.4911300  44.8072840  51.5853420  16.9876490
  43.9937450  51.0866590  16.9121800  44.6134790  52.4251670  16.5712840
  47.5221230  55.9573070  15.2838650  48.4100850  56.2690300  15.1089990
  47.4926320  55.0845320  14.8919230  36.1156860  57.8291850  27.6025220
  35.7571800  58.4945700  28.1898560  35.8211420  56.9975400  27.9737840
  39.3169980  58.2876090  30.4864770  39.0170120  58.4333270  29.5892590
  40.0881220  57.7281380  30.3938160  49.7935500  57.2684910  14.7518510
  49.7099220  57.6999130  13.9014950  50.5129690  57.7283260  15.1845330
  34.6264910  57.8283110  14.2259820  35.4959760  58.1107910  14.5095740
  34.1355230  58.6418980  14.1108630  37.6911500  49.5593970  18.8190620
  37.5626130  49.5511870  19.7675540  36.8673520  49.8977060  18.4681630
  34.6905430  51.3185090  28.2797320  33.9763950  51.5182010  28.8849930
  35.1100470  50.5424660  28.6512120  46.1844210  53.8107400  26.0298770
  46.5525030  52.9902610  26.3578340  45.3242410  53.8709290  26.4454420
  49.5506240  52.7664340  16.8386330  48.9219400  52.8710010  16.1244560
  49.0558160  52.9861120  17.6280210  41.5190270  55.0450290  18.2544210
  40.8106420  55.5136630  18.6957820  41.8034750  54.3872300  18.8889400
  43.1446200  56.4646990  26.2536740  43.6431450  56.9392810  26.9188590
  43.2869150  55.5410510  26.4606770  45.5505700  51.7700950  19.6940000
  45.4273480  51.7887080  18.7449510  46.4990260  51.8179890  19.8138400
  39.7225290  53.3535370  15.6294920  40.5715820  53.7905520  15.5635110
  39.3556560  53.6655630  16.4566980  50.3513060  52.6814950  27.0965130
  49.8486660  53.4220350  27.4358940  51.1669720  53.0698950  26.7801920
  48.6435070  57.9248130  20.5426490  47.7025210  57.9398360  20.7174180
  48.9579140  57.1384090  20.9886790  37.3163470  57.0392800  14.7863340
  37.3967060  56.0920310  14.8980740  38.2083220  57.3699680  14.8924000
  36.8757350  57.0037310  30.9169580  36.9162690  56.7051180  31.8254810
  37.7302850  57.4044920  30.7577100  38.8163160  55.5829410  28.8844070
  38.2859620  55.0920360  28.2567410  39.4851230  56.0113610  28.3502000
  48.1863390  57.3895030  30.6524410  48.7684160  56.6347350  30.5644890
  48.3625160  57.9202470  29.8755890  39.3035460  52.5491780  28.9641360
  39.2092330  51.9312530  28.2392230  38.7232850  53.2758070  28.7371270
  42.0696900  51.1065020  25.9968750  41.6214200  51.1289280  25.1514300
  41.4362100  50.7084040  26.5939050  44.8120350  57.7335530  28.0019030
  44.9316560  57.1376670  28.7413870  45.6714350  57.7705220  27.5820330
  39.5494640  55.6766090  13.0231250  39.3483700  54.8133450  13.3844590
  39.3786690  55.5899450  12.0852850  41.5789120  54.2756880  29.2594850
  42.1688810  53.9672730  29.9472670  40.7609360  53.8036630  29.4154750
  46.3982550  53.8922690  29.4927870  45.7098070  53.2304230  29.4277860
  47.1188570  53.4460960  29.9376330  47.0282950  50.4874320  15.5518130
  47.3085240  49.6442220  15.9077550  46.2548680  50.7197430  16.0656880
  38.3477440  52.7766710  13.0109130  38.6503340  52.7834140  12.1028280
  39.0872030  52.4264570  13.5076790  41.5662370  51.7201330  13.9965330
  41.2184370  51.0425320  13.4167780  41.7675140  51.2590840  14.8108720
  34.9068010  58.2488980  20.3929700  34.2516850  57.9800620  19.7489400
  35.7445960  58.1393460  19.9431680  47.8558450  53.0430270  14.6148190
  48.2743330  52.8561250  13.7744850  47.5494510  52.1909320  14.9251120
  51.3548180  57.9554410  18.3123990  50.9791780  57.1882340  17.8805280
  50.6251300  58.3377110  18.7998920  35.9443940  58.6341550  24.9333040
  36.3116980  58.5468950  25.8129060  35.3754760  57.8708100  24.8339900
  50.7447800  57.1025930  27.9463510  50.5133890  56.8738680  27.0461460
  51.0052350  58.0225480  27.9008400  35.4959940  55.5450640  28.8391460
  34.6015990  55.5117400  29.1785170  36.0357490  55.7437430  29.6042710
  49.1835870  52.3282360  30.7243210  50.0606050  52.3365760  31.1077210
  49.1956710  51.5913200  30.1135560  34.1206090  55.4587910  16.3355030
  33.2170170  55.7218110  16.1606690  34.6046710  55.7299080  15.5554990
  50.6299140  56.1811900  21.6131230  51.1536620  55.6874550  20.9821400
  51.2158560  56.3162260  22.3578800  50.8088860  56.2651770  25.1350780
  49.8591570  56.2315310  25.2495770  50.9901870  57.1751880  24.9000550
  36.6633300  54.5153450  14.2449410  37.3725000  54.0936670  13.7596690
  35.9473240  54.5828680  13.6132760  36.3107460  50.5692780  13.2852060
  37.0335590  51.1101720  13.6033280  36.5831980  50.2956200  12.4093600
  50.1199110  55.4385250  17.5523640  50.6158230  55.2056120  18.3372520
  49.9215180  54.5997090  17.1361280  35.9999650  49.8198970  23.1874680
  36.6475840  49.2696350  22.7469840  36.4201490  50.0742120  24.0090490
  51.5486270  54.0746200  20.0861320  51.4385550  53.9202240  21.0243590
  52.3093860  53.5467140  19.8436730  49.8951990  50.0140330  26.5444320
  50.5324210  50.6274470  26.9103510  50.0426880  50.0500990  25.5993550
  52.4376540  51.9054120  13.3267460  53.3625850  51.7735300  13.1185750
  52.4152330  51.9846940  14.2803910  52.5115030  52.6764780  15.9524170
  51.7166530  52.6109900  16.4817080  52.7158310  53.6115420  15.9409520
  35.7531650  49.9754640  25.9300000  35.4046470  50.4318460  26.6958180
  35.4219350  49.0811770  26.0122430  43.2656470  51.1666520  29.4519420
  43.2045360  51.7588350  30.2014830  44.2056850  51.0592480  29.3069680
  45.9031030  50.8236580  29.0911710  46.5171440  51.1415870  28.4292790
  46.4480590  50.3385170  29.7107570  36.4252290  49.5030840  29.2050770
  36.9735280  49.3218890  28.4416880  36.4907600  48.7124950  29.7407080
  46.6439070  49.3868720  25.4181000  45.7698910  49.7203830  25.2153930
  46.5349820  48.9141900  26.2432870  47.5511050  51.5939590  26.8022720
  47.2224410  50.7791350  26.4224450  48.4993350  51.5509400  26.6788410
  44.3913890  50.3038560  24.3573910  43.6085680  50.7784060  24.6370670
  44.0976820  49.3993390  24.2487090  48.9434960  51.0061660  22.4023000
  49.3843050  50.9506760  21.5544600  48.6742550  51.9219670  22.4733180
  50.8073530  50.6376900  20.4131820  50.7461930  49.6938120  20.2662840
  51.5865560  50.7456990  20.9585280  35.7354300  50.6086040  16.8787630
  36.4933660  50.7214920  16.3051660  35.2731470  51.4455240  16.8331060
  42.2768110  52.7225310  19.8689940  41.4642620  52.3482200  19.5285820
  42.7809750  51.9670390  20.1711130  46.7793090  49.3867760  21.1073010
  47.3822460  49.9587970  21.5821530  46.0386080  49.9507200  20.8846910
  49.9227690  49.7889320  16.3813290  50.1178320  50.6872770  16.6480720
  49.1357560  49.5576400  16.8746240  38.1079450  51.1350090  15.4189600
  38.6372210  50.3479890  15.2897550  38.7407770  51.8141280  15.6525130
  40.3017290  50.8725230  18.4734990  39.6720030  50.1712540  18.6405120
  39.7622430  51.6329360  18.2568150  40.4272850  50.1509210  30.9087480
  40.1457120  50.6542810  30.1448300  40.8092550  49.3530960  30.5429610
  47.0288310  49.5662790  31.4867950  46.9153760  49.8857400  32.3819470
  47.8458050  49.9675300  31.1905230  34.4555290  57.2361630   4.2769810
  35.0271400  56.4683830   4.2773450  34.4556830  57.5350390   3.3676420
  35.6980160  52.6445990   6.0638740  35.5183000  51.7471740   6.3441500
  35.2960240  53.1917860   6.7385690  44.5378660  54.8461850   3.9651050
  44.9143480  53.9733730   3.8524720  44.4398170  55.1820550   3.0741490
  36.3166830  55.1406490   4.6721080  36.9976940  55.4044860   5.2908480
  36.0014880  54.3007360   5.0059090  40.5091400  56.1873850   3.7593670
  41.0169620  56.6854820   4.3998690  41.0404640  55.4109050   3.5833030
  52.6102330  54.3579040   7.4623020  51.9054500  54.7460750   6.9438130
  52.8760250  55.0529330   8.0643950  38.7927500  50.8272410   8.0257090
  38.7945940  51.3444800   7.2202990  37.9631810  50.3502590   8.0027020
  48.5564260  54.2812670   3.6706930  47.8519830  54.5697560   4.2510040
  48.9176420  55.0912780   3.3106490  38.4742830  52.5382370   6.0327540
  38.8159640  53.3824420   5.7381410  37.5358640  52.6866110   6.1492880
  51.6251180  53.7267460   4.0616140  50.6776090  53.7606440   4.1931570
  51.9501170  54.5406410   4.4465500  48.0175330  55.8318310   7.0133310
  47.6046510  56.6572020   7.2673300  47.2851280  55.2463350   6.8209670
  38.8636740  55.3921420   5.6551020  39.4151330  55.5016760   4.8804270
  39.3780250  55.7659020   6.3706250  51.5431900  54.8834890  10.8955430
  50.9276170  55.3914560  10.3670890  51.2228320  53.9833220  10.8381370
  39.3176410  50.8558260   2.7582300  38.8744560  51.6367800   2.4266820
  39.8761400  51.1788150   3.4653240  43.6046220  53.7226780   8.3617620
  43.1425590  53.9309800   9.1737560  43.2024330  52.9086130   8.0588290
  48.6050730  54.9435730   9.4914280  47.7544320  54.6441480   9.8123350
  48.4452520  55.1877740   8.5798100  45.7000440  56.4437480  11.5913070
  46.0253850  55.6101230  11.2515300  46.4880770  56.9666000  11.7391400
  41.3552310  51.4005590   4.6171900  41.6524640  52.3068420   4.5363920
  41.9037870  50.9124370   4.0031470  41.5489840  56.8777410  11.1523820
  41.4533440  55.9372140  11.0024220  42.3921820  57.0992480  10.7571890
  36.6800380  53.2891080   9.3057600  36.2863770  54.1366290   9.5130380
  35.9918780  52.6517450   9.4966240  43.2545430  53.3726050  12.3754340
  42.5643750  53.1798250  13.0100430  43.9977730  53.6560690  12.9078640
  33.9817430  51.2119540   3.3387680  33.6930480  51.7822400   4.0512660
  34.7263190  50.7323990   3.7018910  45.5308400  57.2124490   5.2108260
  44.7989520  57.7211300   5.5598360  45.1332740  56.3954470   4.9097040
  41.9685790  53.8878690   3.6160750  41.9721850  53.4468640   2.7665290
  42.8636910  54.2096020   3.7232570  37.8188170  53.7705180   2.5754960
  37.4788220  54.2480410   3.3322010  37.0565490  53.3170300   2.2156060
  45.9934310  52.6658170   4.6231200  46.0107050  53.1166820   5.4673050
  45.7449890  51.7663810   4.8364640  49.4205060  50.0790350  10.4617580
  49.7450830  49.3480010  10.9875560  49.4561570  49.7603990   9.5598570
  42.2693760  57.9480470   5.3626160  42.6363890  57.4739040   6.1087500
  42.0798820  58.8222040   5.7034500  40.0593130  56.9889110   7.6810370
  39.7550200  57.8681090   7.9060730  41.0139590  57.0488900   7.7167810
  36.1156860  57.8291850   8.8281730  35.7571800  58.4945700   9.4155070
  35.8211420  56.9975400   9.1994350  39.3169980  58.2876090  11.7121280
  39.0170120  58.4333270  10.8149100  40.0881220  57.7281380  11.6194670
  34.6905430  51.3185090   9.5053830  33.9763950  51.5182010  10.1106440
  35.1100470  50.5424660   9.8768630  46.1844210  53.8107400   7.2555280
  46.5525030  52.9902610   7.5834850  45.3242410  53.8709290   7.6710930
  43.1446200  56.4646990   7.4793250  43.6431450  56.9392810   8.1445100
  43.2869150  55.5410510   7.6863280  50.3513060  52.6814950   8.3221640
  49.8486660  53.4220350   8.6615450  51.1669720  53.0698950   8.0058430
  48.6435070  57.9248130   1.7683000  47.7025210  57.9398360   1.9430690
  48.9579140  57.1384090   2.2143300  36.8757350  57.0037310  12.1426090
  36.9162690  56.7051180  13.0511320  37.7302850  57.4044920  11.9833610
  38.8163160  55.5829410  10.1100580  38.2859620  55.0920360   9.4823920
  39.4851230  56.0113610   9.5758510  48.1863390  57.3895030  11.8780920
  48.7684160  56.6347350  11.7901400  48.3625160  57.9202470  11.1012400
  39.3035460  52.5491780  10.1897870  39.2092330  51.9312530   9.4648740
  38.7232850  53.2758070   9.9627780  42.0696900  51.1065020   7.2225260
  41.6214200  51.1289280   6.3770810  41.4362100  50.7084040   7.8195560
  44.8120350  57.7335530   9.2275540  44.9316560  57.1376670   9.9670380
  45.6714350  57.7705220   8.8076840  41.5789120  54.2756880  10.4851360
  42.1688810  53.9672730  11.1729180  40.7609360  53.8036630  10.6411260
  46.3982550  53.8922690  10.7184380  45.7098070  53.2304230  10.6534370
  47.1188570  53.4460960  11.1632840  35.9443940  58.6341550   6.1589550
  36.3116980  58.5468950   7.0385570  35.3754760  57.8708100   6.0596410
  50.7447800  57.1025930   9.1720020  50.5133890  56.8738680   8.2717970
  51.0052350  58.0225480   9.1264910  35.4959940  55.5450640  10.0647970
  34.6015990  55.5117400  10.4041680  36.0357490  55.7437430  10.8299220
  49.1835870  52.3282360  11.9499720  50.0606050  52.3365760  12.3333720
  49.1956710  51.5913200  11.3392070  50.6299140  56.1811900   2.8387740
  51.1536620  55.6874550   2.2077910  51.2158560  56.3162260   3.5835310
  50.8088860  56.2651770   6.3607290  49.8591570  56.2315310   6.4752280
  50.9901870  57.1751880   6.1257060  35.9999650  49.8198970   4.4131190
  36.6475840  49.2696350   3.9726350  36.4201490  50.0742120   5.2347000
  49.8951990  50.0140330   7.7700830  50.5324210  50.6274470   8.1360020
  50.0426880  50.0500990   6.8250060  35.7531650  49.9754640   7.1556510
  35.4046470  50.4318460   7.9214690  35.4219350  49.0811770   7.2378940
  43.2656470  51.1666520  10.6775930  43.2045360  51.7588350  11.4271340
  44.2056850  51.0592480  10.5326190  45.9031030  50.8236580  10.3168220
  46.5171440  51.1415870   9.6549300  46.4480590  50.3385170  10.9364080
  36.4252290  49.5030840  10.4307280  36.9735280  49.3218890   9.6673390
  36.4907600  48.7124950  10.9663590  46.6439070  49.3868720   6.6437510
  45.7698910  49.7203830   6.4410440  46.5349820  48.9141900   7.4689380
  47.5511050  51.5939590   8.0279230  47.2224410  50.7791350   7.6480960
  48.4993350  51.5509400   7.9044920  44.3913890  50.3038560   5.5830420
  43.6085680  50.7784060   5.8627180  44.0976820  49.3993390   5.4743600
  48.9434960  51.0061660   3.6279510  49.3843050  50.9506760   2.7801110
  48.6742550  51.9219670   3.6989690  46.7793090  49.3867760   2.3329520
  47.3822460  49.9587970   2.8078040  46.0386080  49.9507200   2.1103420
  40.4272850  50.1509210  12.1343990  40.1457120  50.6542810  11.3704810
  40.8092550  49.3530960  11.7686120  47.0288310  49.5662790  12.7124460
  46.9153760  49.8857400  13.6075980  47.8458050  49.9675300  12.4161740
  45.9346460  38.8111770  58.1733160  45.8540510  37.8966380  57.9024870
  45.5210880  39.3078840  57.4672870  44.0664500  40.5890790  60.0542430
  43.2906600  40.1091230  60.3441000  44.7177430  39.9096440  59.8798590
  48.0871930  44.9950980  58.8341560  47.6253460  44.2238220  59.1628730
  48.8997480  45.0217050  59.3394010  38.0631590  44.9350690  61.1276210
  38.3659630  44.0448430  60.9486430  38.8075180  45.4920910  60.8998460
  36.4922280  35.8612490  54.7160580  35.6038980  36.2028460  54.6140460
  36.7763470  35.6612810  53.8241410  34.4555290  38.4618140  60.6000280
  35.0271400  37.6940340  60.6003920  34.4556830  38.7606900  59.6906890
  44.3135240  47.2808990  58.4545550  43.6946680  47.7366490  57.8839990
  45.1687020  47.4360450  58.0535250  43.5073490  43.2647980  60.0612590
  43.4381770  42.3237920  59.9001720  44.2693350  43.3549390  60.6335160
  44.5378660  36.0718360  60.2881520  44.9143480  35.1990240  60.1755190
  44.4398170  36.4077060  59.3971960  38.6683670  34.4443990  55.7498960
  38.7750420  35.3447720  56.0567720  37.7576030  34.3961960  55.4593610
  48.3202780  33.5668800  57.2209860  49.1412400  33.0765370  57.2635340
  48.3536860  34.1566460  57.9741700  40.5091400  37.4130360  60.0824140
  41.0169620  37.9111330  60.7229160  41.0404640  36.6365560  59.9063500
  45.1798590  42.1648230  55.8477460  44.5615860  42.6297680  55.2840180
  45.6921840  42.8575710  56.2646970  48.5564260  35.5069180  59.9937400
  47.8519830  35.7954070  60.5740510  48.9176420  36.3169290  59.6336960
  34.5481790  42.8504760  53.2217090  34.1709770  43.3391860  52.4901990
  34.8054860  43.5230040  53.8523620  51.6251180  34.9523970  60.3846610
  50.6776090  34.9862950  60.5162040  51.9501170  35.7662920  60.7695970
  42.1570720  31.2521150  58.6802600  42.4645700  30.6968040  57.9638100
  41.2271420  31.3865610  58.4975590  47.7085780  46.9688440  60.9710060
  47.7212940  46.5650730  60.1032320  47.1561000  47.7435730  60.8671490
  49.0031200  43.6904660  56.0600230  48.8927530  42.7478990  56.1849650
  48.9999450  44.0520300  56.9462990  44.5451480  39.3169980  55.4162720
  43.6180760  39.2507360  55.6451190  44.6976300  40.2550110  55.3017960
  44.5320560  35.5886980  52.4129880  43.5924230  35.7500940  52.4982340
  44.8503820  36.3072660  51.8665870  48.5748770  40.8790280  55.9197970
  47.9561190  40.5409830  55.2724270  48.5573220  40.2350040  56.6277160
  40.1508120  39.8434720  58.1982450  39.7465120  39.1311970  57.7028350
  40.2371240  39.4987960  59.0870490  40.6189820  43.5302280  60.3621660
  40.3218110  42.9247750  59.6829440  41.5689640  43.5679590  60.2511020
  46.7513470  40.1177090  52.9270720  47.1906750  39.2799520  52.7808540
  47.4641890  40.7506490  53.0134860  44.8608850  45.0573160  56.8951960
  45.3004760  45.7997490  56.4807350  44.7995740  45.2999730  57.8190920
  50.3330610  31.3719900  51.2411760  50.0203270  31.4646730  52.1410830
  51.0943080  31.9500930  51.1909190  36.8512750  38.7379700  55.6989100
  36.7310350  39.4641790  55.0870370  36.5413640  37.9682610  55.2217010
  35.7345750  43.6095030  57.9163920  35.3273830  43.7509620  57.0617520
  36.6258760  43.3255190  57.7135130  47.5279030  48.0442280  54.2514970
  47.3680170  47.7545220  55.1496800  47.3625740  47.2682410  53.7160200
  40.0067410  47.8240810  56.0286590  39.8309890  46.9076350  55.8154390
  39.1523150  48.1828100  56.2684390  47.2305160  45.5529840  52.8112970
  46.5370320  45.5507130  52.1515250  47.9728020  45.1289160  52.3807140
  46.7955090  47.1792550  56.8861460  47.2512040  46.3981930  57.2000080
  47.1347610  47.8899370  57.4302640  39.3176410  32.0814770  59.0812770
  38.8744560  32.8624310  58.7497290  39.8761400  32.4044660  59.7883710
  42.4335230  31.7025470  53.9618600  41.8089410  31.6985340  54.6871910
  42.3465350  30.8356430  53.5654570  41.3552310  32.6262100  60.9402370
  41.6524640  33.5324930  60.8594390  41.9037870  32.1380880  60.3261940
  39.1090630  37.2048340  56.8094020  38.8831550  36.9885510  57.7140640
  38.3283160  37.6376800  56.4639990  46.3388390  37.2111710  55.4084670
  45.7397280  37.9347510  55.2248290  46.8868000  37.1488490  54.6261120
  44.9453260  35.8475250  57.4387950  45.3382830  36.1647450  56.6256640
  45.3070110  34.9687130  57.5532470  33.9817430  32.4376050  59.6618150
  33.6930480  33.0078910  60.3743130  34.7263190  31.9580500  60.0249380
  34.1687660  36.3796170  50.8720870  34.0862330  37.3226930  51.0135860
  33.8170720  36.2371080  49.9933220  41.9685790  35.1135200  59.9391220
  41.9721850  34.6725150  59.0895760  42.8636910  35.4352530  60.0463040
  37.8188170  34.9961690  58.8985430  37.4788220  35.4736920  59.6552480
  37.0565490  34.5426810  58.5386530  42.0305940  36.1147280  52.9297980
  42.1518760  36.0733760  53.8783800  41.6454450  36.9771430  52.7744710
  41.0427440  38.4248420  52.3281280  40.4744340  37.9766670  51.7017190
  41.7516440  38.7841200  51.7946430  35.1334250  33.9180670  57.8150100
  34.8481170  33.5536340  58.6528720  35.0713110  33.1861130  57.2013240
  38.5874920  42.4206610  54.6007690  37.8137180  41.8804230  54.4406410
  39.3169550  41.9013220  54.2625450  49.3462900  41.4171970  60.3934080
  50.0662020  41.9127260  60.0030190  49.1444720  40.7389860  59.7487950
  44.8072840  32.8109930  54.5363470  43.9937450  32.3123100  54.4608780
  44.6134790  33.6508180  54.1199820  47.5221230  37.1829580  52.8325630
  48.4100850  37.4946810  52.6576970  47.4926320  36.3101830  52.4406210
  38.6312320  42.0886990  58.2386500  39.1490990  41.2855250  58.1843390
  38.1796340  42.0266130  59.0803330  43.5181820  43.3553270  53.5113800
  43.8597520  44.0995500  53.0157120  42.6894530  43.6684390  53.8738630
  49.7935500  38.4941420  52.3005490  49.7099220  38.9255640  51.4501930
  50.5129690  38.9539770  52.7332310  50.8222750  45.3483680  55.0287620
  50.1798910  44.6939300  55.3031340  50.4353410  45.7538770  54.2528290
  46.4009230  42.6769110  58.8759310  46.7533050  42.0797240  58.2160680
  45.5171560  42.3513340  59.0467560  42.4872510  43.4366800  56.2829720
  43.1743640  43.9836010  56.6637310  41.7004930  43.9807530  56.3179330
  34.6264910  39.0539620  51.7746800  35.4959760  39.3364420  52.0582720
  34.1355230  39.8675490  51.6595610  41.7899720  40.4412830  55.8955080
  42.2462500  41.2518080  56.1215270  41.4387930  40.1235970  56.7273570
  37.6911500  30.7850480  56.3677600  37.5626130  30.7768380  57.3162520
  36.8673520  31.1233570  56.0168610  49.2120130  44.2400140  51.5663970
  48.9857710  43.5230580  52.1588610  48.8216330  43.9912580  50.7285720
  34.9936160  48.2667000  52.3408430  35.3533800  48.8656340  51.6865700
  34.8528500  48.8126890  53.1143460  48.7936380  42.1572080  53.2278130
  48.5058080  42.6184770  54.0156010  49.5888550  41.6969850  53.4962350
  41.0104780  45.6498200  53.1582100  41.0014880  46.3827890  52.5426610
  40.0903140  45.4029780  53.2509060  36.6111420  40.8713090  53.9028860
  36.0039370  41.6111990  53.9124160  37.0860770  40.9612450  53.0767060
  49.5506240  33.9920850  54.3873310  48.9219400  34.0966520  53.6731540
  49.0558160  34.2117630  55.1767190  43.9964380  45.7126440  51.8207290
  44.0976360  45.5090430  50.8909270  43.0966120  45.4584720  52.0255070
  41.5190270  36.2706800  55.8031190  40.8106420  36.7393140  56.2444800
  41.8034750  35.6128810  56.4376380  45.5505700  32.9957460  57.2426980
  45.4273480  33.0143590  56.2936490  46.4990260  33.0436400  57.3625380
  42.6382490  48.2312760  56.5154960  42.8923990  48.1934150  55.5934330
  41.6894970  48.1046090  56.5083210  39.7225290  34.5791880  53.1781900
  40.5715820  35.0162030  53.1122090  39.3556560  34.8912140  54.0053960
  48.6435070  39.1504640  58.0913470  47.7025210  39.1654870  58.2661160
  48.9579140  38.3640600  58.5373770  38.6216710  40.8324240  51.6517430
  39.3879980  40.7205600  52.2142860  38.6991400  40.1362210  50.9994200
  37.3163470  38.2649310  52.3350320  37.3967060  37.3176820  52.4467720
  38.2083220  38.5956190  52.4410980  50.6460650  46.3213490  59.7667730
  50.7708070  47.1444660  60.2391540  51.5126210  46.1104220  59.4191880
  38.1178180  48.4144700  59.4384860  38.8540660  47.8660160  59.7093430
  38.5019100  49.2800710  59.2990850  35.0023660  44.4818270  55.3126370
  34.0763440  44.7239410  55.3031780  35.4680090  45.3092530  55.1911120
  41.2280490  47.5875010  51.2610430  42.0209100  47.8763840  50.8092220
  40.7084840  47.1567180  50.5822910  50.2810660  46.8145140  52.6847170
  49.9952170  46.4010280  51.8701350  50.0830210  47.7432850  52.5647690
  41.7457890  42.8078420  51.1252780  41.6408530  42.1930770  51.8514160
  41.5782110  42.2844310  50.3415790  44.9860620  41.8698450  51.7294770
  44.4370720  42.3167750  52.3737510  45.6079880  41.3647700  52.2532440
  40.6535740  40.8289370  53.6260070  41.0752160  40.6629240  54.4691460
  40.7786580  40.0189600  53.1315210  43.1663380  39.8526980  50.8737170
  43.6869040  39.1376000  50.5078320  43.8131780  40.4912850  51.1737680
  39.5494640  36.9022600  50.5718230  39.3483700  36.0389960  50.9331570
  39.3786690  36.8155960  49.6339830  47.0282950  31.7130830  53.1005110
  47.3085240  30.8698730  53.4564530  46.2548680  31.9453940  53.6143860
  38.3477440  34.0023220  50.5596110  38.6503340  34.0090650  49.6515260
  39.0872030  33.6521080  51.0563770  41.5662370  32.9457840  51.5452310
  41.2184370  32.2681830  50.9654760  41.7675140  32.4847350  52.3595700
  43.7311410  47.9338590  53.1638910  44.6262200  48.2723560  53.1857670
  43.7629040  47.2118000  52.5363190  37.3707570  43.3065640  51.3925910
  37.8082440  43.8495310  52.0483490  37.8555300  42.4812590  51.4022250
  34.5853370  46.0954670  58.8446170  34.9156380  45.2275730  58.6124810
  35.0144370  46.3013190  59.6751130  39.1815290  44.4263680  56.5048140
  38.8810830  44.3028650  57.4052050  39.0752780  43.5672270  56.0963870
  51.9507210  44.2060080  51.2074820  51.1200170  44.2736730  51.6782050
  52.1279040  45.0964200  50.9041680  51.4063670  40.9507560  53.7109020
  52.1682580  41.5204210  53.8168710  51.4218040  40.3834760  54.4817330
  34.9068010  39.4745490  57.9416680  34.2516850  39.2057130  57.2976380
  35.7445960  39.3649970  57.4918660  52.4123640  41.8057660  58.5550950
  52.7832470  41.0224980  58.1486920  53.0525570  42.4946760  58.3768250
  51.4582840  41.2441930  50.8681540  51.7331680  42.1520810  50.7400760
  51.2693580  41.1804460  51.8043530  47.8558450  34.2686780  52.1635170
  48.2743330  34.0817760  51.3231830  47.5494510  33.4165830  52.4738100
  51.3548180  39.1810920  55.8610970  50.9791780  38.4138850  55.4292260
  50.6251300  39.5633620  56.3485900  34.1206090  36.6844420  53.8842010
  33.2170170  36.9474620  53.7093670  34.6046710  36.9555590  53.1041970
  50.6299140  37.4068410  59.1618210  51.1536620  36.9131060  58.5308380
  51.2158560  37.5418770  59.9065780  36.6633300  35.7409960  51.7936390
  37.3725000  35.3193180  51.3083670  35.9473240  35.8085190  51.1619740
  36.3107460  31.7949290  50.8339040  37.0335590  32.3358230  51.1520260
  36.5831980  31.5212710  49.9580580  50.1199110  36.6641760  55.1010620
  50.6158230  36.4312630  55.8859500  49.9215180  35.8253600  54.6848260
  51.5486270  35.3002710  57.6348300  51.4385550  35.1458750  58.5730570
  52.3093860  34.7723650  57.3923710  52.4376540  33.1310630  50.8754440
  53.3625850  32.9991810  50.6672730  52.4152330  33.2103450  51.8290890
  52.5115030  33.9021290  53.5011150  51.7166530  33.8366410  54.0304060
  52.7158310  34.8371930  53.4896500  49.4533450  47.9412840  57.4949540
  50.0492520  47.6197410  56.8183960  49.7111600  47.4684660  58.2862810
  50.0045660  48.5908140  61.3247270  49.5448630  49.3423950  60.9505290
  49.3758120  47.8714610  61.2662070  40.4341380  46.8996380  60.4995400
  40.9506400  46.2883740  59.9743660  41.0838760  47.4025160  60.9906410
  48.9434960  32.2318170  59.9509980  49.3843050  32.1763270  59.1031580
  48.6742550  33.1476180  60.0220160  50.8073530  31.8633410  57.9618800
  50.7461930  30.9194630  57.8149820  51.5865560  31.9713500  58.5072260
  35.1126280  48.0025770  56.9242750  34.9448320  47.3696450  57.6224640
  34.2460790  48.2085170  56.5736940  35.7354300  31.8342550  54.4274610
  36.4933660  31.9471430  53.8538640  35.2731470  32.6711750  54.3818040
  42.2768110  33.9481820  57.4176920  41.4642620  33.5738710  57.0772800
  42.7809750  33.1926900  57.7198110  46.7793090  30.6124270  58.6559990
  47.3822460  31.1844480  59.1308510  46.0386080  31.1763710  58.4333890
  49.9227690  31.0145830  53.9300270  50.1178320  31.9129280  54.1967700
  49.1357560  30.7832910  54.4233220  36.7188980  46.6959000  54.3692890
  36.1936600  47.0767030  53.6654850  36.6433560  47.3209770  55.0902600
  38.1079450  32.3606600  52.9676580  38.6372210  31.5736400  52.8384530
  38.7407770  33.0397790  53.2012110  40.3017290  32.0981740  56.0221970
  39.6720030  31.3969050  56.1892100  39.7622430  32.8585870  55.8055130
  51.4754300  48.2546540  55.6906830  51.6506490  47.5684280  55.0467750
  50.7775870  48.7793590  55.2983500  39.3181950  48.6441380  53.2442140
  40.0500770  48.3600660  52.6966030  39.5775620  48.4054660  54.1341520
  38.4796740  44.7606110  53.2488470  37.8505620  45.2291210  53.7974300
  38.5944570  43.9155330  53.6834660  48.0871930  44.9950980  40.0598070
  47.6253460  44.2238220  40.3885240  48.8997480  45.0217050  40.5650520
  44.3135240  47.2808990  39.6802060  43.6946680  47.7366490  39.1096500
  45.1687020  47.4360450  39.2791760  43.5073490  43.2647980  41.2869100
  43.4381770  42.3237920  41.1258230  44.2693350  43.3549390  41.8591670
  48.3202780  33.5668800  38.4466370  49.1412400  33.0765370  38.4891850
  48.3536860  34.1566460  39.1998210  52.6102330  35.5835550  45.0110000
  51.9054500  35.9717260  44.4925110  52.8760250  36.2785840  45.6130930
  38.7927500  32.0528920  45.5744070  38.7945940  32.5701310  44.7689970
  37.9631810  31.5759100  45.5514000  50.1727040  45.1244310  43.4821390
  49.4890560  45.7943420  43.4738060  50.7121330  45.3224960  42.7166250
  51.6251180  34.9523970  41.6103120  50.6776090  34.9862950  41.7418550
  51.9501170  35.7662920  41.9952480  42.1570720  31.2521150  39.9059110
  42.4645700  30.6968040  39.1894610  41.2271420  31.3865610  39.7232100
  47.7085780  46.9688440  42.1966570  47.7212940  46.5650730  41.3288830
  47.1561000  47.7435730  42.0928000  49.0031200  43.6904660  37.2856740
  48.8927530  42.7478990  37.4106160  48.9999450  44.0520300  38.1719500
  51.0533320  40.2705500  43.6165420  50.2251950  40.3398590  43.1415550
  51.6483800  40.8559810  43.1481250  48.0175330  37.0574820  44.5620290
  47.6046510  37.8828530  44.8160280  47.2851280  36.4719860  44.3696650
  48.7075430  47.1034150  45.2501270  48.2305990  47.9106340  45.0573880
  48.0237220  46.4512480  45.4027480  39.7108250  43.2683970  48.2385970
  38.8136780  43.4923940  48.4859370  39.7361120  43.3918910  47.2897370
  44.8608850  45.0573160  38.1208470  45.3004760  45.7997490  37.7063860
  44.7995740  45.2999730  39.0447430  40.3359820  46.0818990  49.0228490
  40.3075250  46.4861940  48.1556920  40.1724790  45.1529350  48.8600090
  50.3330610  31.3719900  32.4668270  50.0203270  31.4646730  33.3667340
  51.0943080  31.9500930  32.4165700  52.2874640  46.8646090  50.3192660
  52.7634360  47.3428980  50.9981740  52.9081800  46.7963580  49.5938160
  51.6907890  44.0558940  47.4792670  51.8170950  43.8170820  46.5609850
  51.7329270  43.2243480  47.9514750  45.5524630  47.7586940  46.0487480
  46.0669300  47.6694950  46.8509910  44.7093710  48.1046640  46.3415390
  47.5279030  48.0442280  35.4771480  47.3680170  47.7545220  36.3753310
  47.3625740  47.2682410  34.9416710  40.0067410  47.8240810  37.2543100
  39.8309890  46.9076350  37.0410900  39.1523150  48.1828100  37.4940900
  47.2305160  45.5529840  34.0369480  46.5370320  45.5507130  33.3771760
  47.9728020  45.1289160  33.6063650  46.7955090  47.1792550  38.1117970
  47.2512040  46.3981930  38.4256590  47.1347610  47.8899370  38.6559150
  51.5431900  36.1091400  48.4442410  50.9276170  36.6171070  47.9157870
  51.2228320  35.2089730  48.3868350  34.5457640  42.9509010  45.2708710
  34.7088680  42.4814370  44.4528080  35.0110090  42.4432570  45.9357550
  43.6046220  34.9483290  45.9104600  43.1425590  35.1566310  46.7224540
  43.2024330  34.1342640  45.6075270  48.6050730  36.1692240  47.0401260
  47.7544320  35.8697990  47.3610330  48.4452520  36.4134250  46.1285080
  45.7000440  37.6693990  49.1400050  46.0253850  36.8357740  48.8002280
  46.4880770  38.1922510  49.2878380  42.4335230  31.7025470  35.1875110
  41.8089410  31.6985340  35.9128420  42.3465350  30.8356430  34.7911080
  41.3552310  32.6262100  42.1658880  41.6524640  33.5324930  42.0850900
  41.9037870  32.1380880  41.5518450  41.5489840  38.1033920  48.7010800
  41.4533440  37.1628650  48.5511200  42.3921820  38.3248990  48.3058870
  36.6800380  34.5147590  46.8544580  36.2863770  35.3622800  47.0617360
  35.9918780  33.8773960  47.0453220  43.2545430  34.5982560  49.9241320
  42.5643750  34.4054760  50.5587410  43.9977730  34.8817200  50.4565620
  45.9934310  33.8914680  42.1718180  46.0107050  34.3423330  43.0160030
  45.7449890  32.9920320  42.3851620  49.4205060  31.3046860  48.0104560
  49.7450830  30.5736520  48.5362540  49.4561570  30.9860500  47.1085550
  36.1196620  42.3260440  47.4304520  35.7351410  41.6854110  48.0287480
  36.4308810  43.0296560  47.9999250  38.5874920  42.4206610  35.8264200
  37.8137180  41.8804230  35.6662920  39.3169550  41.9013220  35.4881960
  44.7281700  41.4881030  47.5059590  44.6619010  40.5676700  47.2517180
  44.0986840  41.5856470  48.2204230  36.1156860  39.0548360  46.3768710
  35.7571800  39.7202210  46.9642050  35.8211420  38.2231910  46.7481330
  39.3169980  39.5132600  49.2608260  39.0170120  39.6589780  48.3636080
  40.0881220  38.9537890  49.1681650  44.6598430  44.3101600  47.2563390
  44.6742970  43.3782560  47.0382300  43.9523530  44.3961360  47.8953160
  50.8709640  40.9508940  46.6031970  50.1457830  41.5437720  46.4061360
  51.3985100  40.9432480  45.8045340  50.8222750  45.3483680  36.2544130
  50.1798910  44.6939300  36.5287850  50.4353410  45.7538770  35.4784800
  44.0932330  45.9519170  44.3503890  44.7374550  46.1578550  45.0277310
  44.4561770  45.1907570  43.8974740  45.3664410  43.9551520  43.0681340
  46.0086640  43.2544680  43.1813510  45.8913760  44.7349960  42.8878230
  49.2120130  44.2400140  32.7920480  48.9857710  43.5230580  33.3845120
  48.8216330  43.9912580  31.9542230  47.1402030  44.7546420  46.2717400
  47.4758270  45.3413110  46.9495320  46.2202370  44.6239130  46.5015190
  34.9936160  48.2667000  33.5664940  35.3533800  48.8656340  32.9122210
  34.8528500  48.8126890  34.3399970  34.6905430  32.5441600  47.0540810
  33.9763950  32.7438520  47.6593420  35.1100470  31.7681170  47.4255610
  48.7936380  42.1572080  34.4534640  48.5058080  42.6184770  35.2412520
  49.5888550  41.6969850  34.7218860  34.9778020  46.5321860  48.0407340
  35.0869140  45.5916600  47.9002730  34.3258580  46.7976610  47.3921070
  42.9690610  44.8037750  49.4405460  42.6487480  44.0846990  49.9851150
  42.2948970  45.4792820  49.5141520  41.0104780  45.6498200  34.3838610
  41.0014880  46.3827890  33.7683120  40.0903140  45.4029780  34.4765570
  46.1844210  35.0363910  44.8042260  46.5525030  34.2159120  45.1321830
  45.3242410  35.0965800  45.2197910  49.5506240  33.9920850  35.6129820
  48.9219400  34.0966520  34.8988050  49.0558160  34.2117630  36.4023700
  43.9964380  45.7126440  33.0463800  44.0976360  45.5090430  32.1165780
  43.0966120  45.4584720  33.2511580  42.6382490  48.2312760  37.7411470
  42.8923990  48.1934150  36.8190840  41.6894970  48.1046090  37.7339720
  50.3513060  33.9071460  45.8708620  49.8486660  34.6476860  46.2102430
  51.1669720  34.2955460  45.5545410  50.6460650  46.3213490  40.9924240
  50.7708070  47.1444660  41.4648050  51.5126210  46.1104220  40.6448390
  38.1178180  48.4144700  40.6641370  38.8540660  47.8660160  40.9349940
  38.5019100  49.2800710  40.5247360  35.0023660  44.4818270  36.5382880
  34.0763440  44.7239410  36.5288290  35.4680090  45.3092530  36.4167630
  37.1236460  47.5990770  49.8526950  37.9249190  47.9202820  50.2662350
  36.6088280  47.2386350  50.5746860  41.2280490  47.5875010  32.4866940
  42.0209100  47.8763840  32.0348730  40.7084840  47.1567180  31.8079420
  45.9601090  43.7070640  49.8002360  45.3539250  43.7302240  49.0598110
  45.6555200  42.9753680  50.3369610  47.3901460  47.4350930  48.4111770
  48.3423210  47.3508950  48.3612010  47.2429680  48.0992640  49.0845560
  50.2810660  46.8145140  33.9103680  49.9952170  46.4010280  33.0957860
  50.0830210  47.7432850  33.7904200  34.8434270  40.0864230  48.7963000
  35.3473290  39.5071510  49.3679230  34.1041690  40.3704460  49.3339370
  41.7457890  42.8078420  32.3509290  41.6408530  42.1930770  33.0770670
  41.5782110  42.2844310  31.5672300  41.8972210  41.4935220  48.3298520
  41.1317880  42.0620220  48.2453190  42.0788170  41.2011430  47.4366750
  49.0395560  43.2240550  48.8873540  49.7805030  43.5616310  48.3841000
  48.2768240  43.3932610  48.3343310  36.8757350  38.2293820  49.6913070
  36.9162690  37.9307690  50.5998300  37.7302850  38.6301430  49.5320590
  47.7141220  41.2755380  47.4228750  48.1282240  41.4300460  48.2719170
  46.7792220  41.4010600  47.5854530  48.1863390  38.6151540  49.4267900
  48.7684160  37.8603860  49.3388380  48.3625160  39.1458980  48.6499380
  39.3035460  33.7748290  47.7384850  39.2092330  33.1569040  47.0135720
  38.7232850  34.5014580  47.5114760  42.0696900  32.3321530  44.7712240
  41.6214200  32.3545790  43.9257790  41.4362100  31.9340550  45.3682540
  44.8120350  38.9592040  46.7762520  44.9316560  38.3633180  47.5157360
  45.6714350  38.9961730  46.3563820  47.1508250  39.5129230  45.3525030
  46.6243470  40.0371850  44.7490170  47.4939590  40.1456620  45.9834760
  40.3263870  47.5328870  46.5082410  39.7884960  48.2574930  46.1891110
  40.5797830  47.0559210  45.7179750  41.5789120  35.5013390  48.0338340
  42.1688810  35.1929240  48.7216160  40.7609360  35.0293140  48.1898240
  46.3982550  35.1179200  48.2671360  45.7098070  34.4560740  48.2021350
  47.1188570  34.6717470  48.7119820  47.0282950  31.7130830  34.3261620
  47.3085240  30.8698730  34.6821040  46.2548680  31.9453940  34.8400370
  43.1826080  48.7680080  46.7669060  43.1084780  49.6715220  47.0741430
  42.2804920  48.4491980  46.7391130  41.5662370  32.9457840  32.7708820
  41.2184370  32.2681830  32.1911270  41.7675140  32.4847350  33.5852210
  43.7311410  47.9338590  34.3895420  44.6262200  48.2723560  34.4114180
  43.7629040  47.2118000  33.7619700  34.5853370  46.0954670  40.0702680
  34.9156380  45.2275730  39.8381320  35.0144370  46.3013190  40.9007640
  39.1815290  44.4263680  37.7304650  38.8810830  44.3028650  38.6308560
  39.0752780  43.5672270  37.3220380  35.0743580  46.9625260  42.8084310
  34.6374570  47.1426060  43.6408460  35.6421260  47.7199880  42.6666030
  50.7105760  46.4642260  47.0961620  50.1107750  46.5234820  46.3525540
  50.8399660  45.5247240  47.2258470  51.9507210  44.2060080  32.4331330
  51.1200170  44.2736730  32.9038560  52.1279040  45.0964200  32.1298190
  51.4063670  40.9507560  34.9365530  52.1682580  41.5204210  35.0425220
  51.4218040  40.3834760  35.7073840  52.4123640  41.8057660  39.7807460
  52.7832470  41.0224980  39.3743430  53.0525570  42.4946760  39.6024760
  49.3957400  43.1894240  45.1937780  48.5817240  43.6191400  45.4563570
  49.8031600  43.8012650  44.5806830  51.4582840  41.2441930  32.0938050
  51.7331680  42.1520810  31.9657270  51.2693580  41.1804460  33.0300040
  47.8558450  34.2686780  33.3891680  48.2743330  34.0817760  32.5488340
  47.5494510  33.4165830  33.6994610  50.7447800  38.3282440  46.7207000
  50.5133890  38.0995190  45.8204950  51.0052350  39.2481990  46.6751890
  35.4959940  36.7707150  47.6134950  34.6015990  36.7373910  47.9528660
  36.0357490  36.9693940  48.3786200  49.1835870  33.5538870  49.4986700
  50.0606050  33.5622270  49.8820700  49.1956710  32.8169710  48.8879050
  50.8088860  37.4908280  43.9094270  49.8591570  37.4571820  44.0239260
  50.9901870  38.4008390  43.6744040  51.5486270  35.3002710  38.8604810
  51.4385550  35.1458750  39.7987080  52.3093860  34.7723650  38.6180220
  49.8951990  31.2396840  45.3187810  50.5324210  31.8530980  45.6847000
  50.0426880  31.2757500  44.3737040  52.4376540  33.1310630  32.1010950
  53.3625850  32.9991810  31.8929240  52.4152330  33.2103450  33.0547400
  52.5115030  33.9021290  34.7267660  51.7166530  33.8366410  35.2560570
  52.7158310  34.8371930  34.7153010  49.4533450  47.9412840  38.7206050
  50.0492520  47.6197410  38.0440470  49.7111600  47.4684660  39.5119320
  35.7531650  31.2011150  44.7043490  35.4046470  31.6574970  45.4701670
  35.4219350  30.3068280  44.7865920  37.3596020  44.3730750  48.8696680
  37.3165650  44.0023660  49.7511140  37.4907030  45.3108320  49.0098500
  41.0602050  45.9290340  44.4706400  40.8193410  46.1964900  43.5836920
  42.0004690  46.0996070  44.5257260  43.2656470  32.3923030  48.2262910
  43.2045360  32.9844860  48.9758320  44.2056850  32.2848990  48.0813170
  45.9031030  32.0493090  47.8655200  46.5171440  32.3672380  47.2036280
  46.4480590  31.5641680  48.4851060  52.3206210  47.9484720  45.2717040
  51.8264490  48.3453590  44.5544170  51.7119500  47.3233930  45.6654320
  36.4252290  30.7287350  47.9794260  36.9735280  30.5475400  47.2160370
  36.4907600  29.9381460  48.5150570  37.1984050  47.3193000  45.9894460
  36.6044370  47.1877700  46.7284500  37.1907890  46.4831140  45.5236560
  46.6439070  30.6125230  44.1924490  45.7698910  30.9460340  43.9897420
  46.5349820  30.1398410  45.0176360  47.5511050  32.8196100  45.5766210
  47.2224410  32.0047860  45.1967940  48.4993350  32.7765910  45.4531900
  50.0045660  48.5908140  42.5503780  49.5448630  49.3423950  42.1761800
  49.3758120  47.8714610  42.4918580  40.4341380  46.8996380  41.7251910
  40.9506400  46.2883740  41.2000170  41.0838760  47.4025160  42.2162920
  43.1736880  47.7904870  42.5520890  43.4614690  47.5359170  41.6753900
  43.6860100  47.2382230  43.1426460  44.3913890  31.5295070  43.1317400
  43.6085680  32.0040570  43.4114160  44.0976820  30.6249900  43.0230580
  48.9434960  32.2318170  41.1766490  49.3843050  32.1763270  40.3288090
  48.6742550  33.1476180  41.2476670  50.8073530  31.8633410  39.1875310
  50.7461930  30.9194630  39.0406330  51.5865560  31.9713500  39.7328770
  35.1126280  48.0025770  38.1499260  34.9448320  47.3696450  38.8481150
  34.2460790  48.2085170  37.7993450  46.7793090  30.6124270  39.8816500
  47.3822460  31.1844480  40.3565020  46.0386080  31.1763710  39.6590400
  49.9227690  31.0145830  35.1556780  50.1178320  31.9129280  35.4224210
  49.1357560  30.7832910  35.6489730  36.7188980  46.6959000  35.5949400
  36.1936600  47.0767030  34.8911360  36.6433560  47.3209770  36.3159110
  43.2409240  48.7120970  49.9189090  44.1676550  48.4765240  49.9625050
  43.2259670  49.5392970  49.4375120  51.4754300  48.2546540  36.9163340
  51.6506490  47.5684280  36.2724260  50.7775870  48.7793590  36.5240010
  40.4272850  31.3765720  49.6830970  40.1457120  31.8799320  48.9191790
  40.8092550  30.5787470  49.3173100  39.3181950  48.6441380  34.4698650
  40.0500770  48.3600660  33.9222540  39.5775620  48.4054660  35.3598030
  38.4796740  44.7606110  34.4744980  37.8505620  45.2291210  35.0230810
  38.5944570  43.9155330  34.9091170  47.0288310  30.7919300  50.2611440
  46.9153760  31.1113910  51.1562960  47.8458050  31.1931810  49.9648720
  49.8086800  47.9390830  49.7430130  50.6012120  47.4440060  49.5356090
  50.1019950  48.6180970  50.3505740  45.9346460  38.8111770  20.6246180
  45.8540510  37.8966380  20.3537890  45.5210880  39.3078840  19.9185890
  44.0664500  40.5890790  22.5055450  43.2906600  40.1091230  22.7954020
  44.7177430  39.9096440  22.3311610  38.0830330  40.9010600  23.3831210
  37.2515210  40.6459310  23.7827720  38.6911310  40.9721370  24.1189130
  48.0871930  44.9950980  21.2854580  47.6253460  44.2238220  21.6141750
  48.8997480  45.0217050  21.7907030  38.0631590  44.9350690  23.5789230
  38.3659630  44.0448430  23.3999450  38.8075180  45.4920910  23.3511480
  36.4922280  35.8612490  17.1673600  35.6038980  36.2028460  17.0653480
  36.7763470  35.6612810  16.2754430  34.4555290  38.4618140  23.0513300
  35.0271400  37.6940340  23.0516940  34.4556830  38.7606900  22.1419910
  44.3135240  47.2808990  20.9058570  43.6946680  47.7366490  20.3353010
  45.1687020  47.4360450  20.5048270  43.5073490  43.2647980  22.5125610
  43.4381770  42.3237920  22.3514740  44.2693350  43.3549390  23.0848180
  35.6980160  33.8702500  24.8382230  35.5183000  32.9728250  25.1184990
  35.2960240  34.4174370  25.5129180  44.5378660  36.0718360  22.7394540
  44.9143480  35.1990240  22.6268210  44.4398170  36.4077060  21.8484980
  38.6683670  34.4443990  18.2011980  38.7750420  35.3447720  18.5080740
  37.7576030  34.3961960  17.9106630  48.3202780  33.5668800  19.6722880
  49.1412400  33.0765370  19.7148360  48.3536860  34.1566460  20.4254720
  36.3166830  36.3663000  23.4464570  36.9976940  36.6301370  24.0651970
  36.0014880  35.5263870  23.7802580  40.5091400  37.4130360  22.5337160
  41.0169620  37.9111330  23.1742180  41.0404640  36.6365560  22.3576520
  52.6102330  35.5835550  26.2366510  51.9054500  35.9717260  25.7181620
  52.8760250  36.2785840  26.8387440  38.7927500  32.0528920  26.8000580
  38.7945940  32.5701310  25.9946480  37.9631810  31.5759100  26.7770510
  45.1798590  42.1648230  18.2990480  44.5615860  42.6297680  17.7353200
  45.6921840  42.8575710  18.7159990  40.0430350  41.6924100  24.9774080
  39.7099730  42.3193020  25.6195150  40.2197030  42.2185980  24.1975750
  48.5564260  35.5069180  22.4450420  47.8519830  35.7954070  23.0253530
  48.9176420  36.3169290  22.0849980  38.4742830  33.7638880  24.8071030
  38.8159640  34.6080930  24.5124900  37.5358640  33.9122620  24.9236370
  39.2549450  43.6604900  26.7923260  39.8723450  44.3355980  26.5107710
  38.3942570  44.0692880  26.7010760  34.5481790  42.8504760  15.6730110
  34.1709770  43.3391860  14.9415010  34.8054860  43.5230040  16.3036640
  50.1727040  45.1244310  24.7077900  49.4890560  45.7943420  24.6994570
  50.7121330  45.3224960  23.9422760  51.6251180  34.9523970  22.8359630
  50.6776090  34.9862950  22.9675060  51.9501170  35.7662920  23.2208990
  42.1570720  31.2521150  21.1315620  42.4645700  30.6968040  20.4151120
  41.2271420  31.3865610  20.9488610  47.7085780  46.9688440  23.4223080
  47.7212940  46.5650730  22.5545340  47.1561000  47.7435730  23.3184510
  49.0031200  43.6904660  18.5113250  48.8927530  42.7478990  18.6362670
  48.9999450  44.0520300  19.3976010  47.1071220  41.8718280  24.7505690
  47.5240010  41.6578390  23.9159150  47.8311040  42.1291070  25.3214310
  44.5451480  39.3169980  17.8675740  43.6180760  39.2507360  18.0964210
  44.6976300  40.2550110  17.7530980  44.5320560  35.5886980  14.8642900
  43.5924230  35.7500940  14.9495360  44.8503820  36.3072660  14.3178890
  51.0533320  40.2705500  24.8421930  50.2251950  40.3398590  24.3672060
  51.6483800  40.8559810  24.3737760  48.5748770  40.8790280  18.3710990
  47.9561190  40.5409830  17.7237290  48.5573220  40.2350040  19.0790180
  48.0175330  37.0574820  25.7876800  47.6046510  37.8828530  26.0416790
  47.2851280  36.4719860  25.5953160  40.1508120  39.8434720  20.6495470
  39.7465120  39.1311970  20.1541370  40.2371240  39.4987960  21.5383510
  40.6189820  43.5302280  22.8134680  40.3218110  42.9247750  22.1342460
  41.5689640  43.5679590  22.7024040  38.8636740  36.6177930  24.4294510
  39.4151330  36.7273270  23.6547760  39.3780250  36.9915530  25.1449740
  48.7075430  47.1034150  26.4757780  48.2305990  47.9106340  26.2830390
  48.0237220  46.4512480  26.6283990  39.7108250  43.2683970  29.4642480
  38.8136780  43.4923940  29.7115880  39.7361120  43.3918910  28.5153880
  46.7513470  40.1177090  15.3783740  47.1906750  39.2799520  15.2321560
  47.4641890  40.7506490  15.4647880  38.5379470  40.1397290  28.0399850
  38.3987240  41.0120090  28.4087250  37.6560830  39.7970100  27.8947790
  44.8608850  45.0573160  19.3464980  45.3004760  45.7997490  18.9320370
  44.7995740  45.2999730  20.2703940  40.3359820  46.0818990  30.2485000
  40.3075250  46.4861940  29.3813430  40.1724790  45.1529350  30.0856600
  50.3330610  31.3719900  13.6924780  50.0203270  31.4646730  14.5923850
  51.0943080  31.9500930  13.6422210  36.8512750  38.7379700  18.1502120
  36.7310350  39.4641790  17.5383390  36.5413640  37.9682610  17.6730030
  52.2874640  46.8646090  31.5449170  52.7634360  47.3428980  32.2238250
  52.9081800  46.7963580  30.8194670  34.4898120  41.9094840  23.9570760
  34.5678540  42.0443610  23.0126480  35.1039800  41.2010730  24.1498880
  35.7345750  43.6095030  20.3676940  35.3273830  43.7509620  19.5130540
  36.6258760  43.3255190  20.1648150  51.6907890  44.0558940  28.7049180
  51.8170950  43.8170820  27.7866360  51.7329270  43.2243480  29.1771260
  45.5524630  47.7586940  27.2743990  46.0669300  47.6694950  28.0766420
  44.7093710  48.1046640  27.5671900  47.5279030  48.0442280  16.7027990
  47.3680170  47.7545220  17.6009820  47.3625740  47.2682410  16.1673220
  40.0067410  47.8240810  18.4799610  39.8309890  46.9076350  18.2667410
  39.1523150  48.1828100  18.7197410  47.2305160  45.5529840  15.2625990
  46.5370320  45.5507130  14.6028270  47.9728020  45.1289160  14.8320160
  46.7955090  47.1792550  19.3374480  47.2512040  46.3981930  19.6513100
  47.1347610  47.8899370  19.8815660  51.5431900  36.1091400  29.6698920
  50.9276170  36.6171070  29.1414380  51.2228320  35.2089730  29.6124860
  34.5457640  42.9509010  26.4965220  34.7088680  42.4814370  25.6784590
  35.0110090  42.4432570  27.1614060  39.3176410  32.0814770  21.5325790
  38.8744560  32.8624310  21.2010310  39.8761400  32.4044660  22.2396730
  43.6046220  34.9483290  27.1361110  43.1425590  35.1566310  27.9481050
  43.2024330  34.1342640  26.8331780  48.6050730  36.1692240  28.2657770
  47.7544320  35.8697990  28.5866840  48.4452520  36.4134250  27.3541590
  45.7000440  37.6693990  30.3656560  46.0253850  36.8357740  30.0258790
  46.4880770  38.1922510  30.5134890  42.4335230  31.7025470  16.4131620
  41.8089410  31.6985340  17.1384930  42.3465350  30.8356430  16.0167590
  41.3552310  32.6262100  23.3915390  41.6524640  33.5324930  23.3107410
  41.9037870  32.1380880  22.7774960  39.1090630  37.2048340  19.2607040
  38.8831550  36.9885510  20.1653660  38.3283160  37.6376800  18.9153010
  46.3388390  37.2111710  17.8597690  45.7397280  37.9347510  17.6761310
  46.8868000  37.1488490  17.0774140  41.5489840  38.1033920  29.9267310
  41.4533440  37.1628650  29.7767710  42.3921820  38.3248990  29.5315380
  44.9453260  35.8475250  19.8900970  45.3382830  36.1647450  19.0769660
  45.3070110  34.9687130  20.0045490  43.2545430  34.5982560  31.1497830
  42.5643750  34.4054760  31.7843920  43.9977730  34.8817200  31.6822130
  34.1687660  36.3796170  13.3233890  34.0862330  37.3226930  13.4648880
  33.8170720  36.2371080  12.4446240  45.5308400  38.4381000  23.9851750
  44.7989520  38.9467810  24.3341850  45.1332740  37.6210980  23.6840530
  41.9685790  35.1135200  22.3904240  41.9721850  34.6725150  21.5408780
  42.8636910  35.4352530  22.4976060  37.8188170  34.9961690  21.3498450
  37.4788220  35.4736920  22.1065500  37.0565490  34.5426810  20.9899550
  42.0305940  36.1147280  15.3811000  42.1518760  36.0733760  16.3296820
  41.6454450  36.9771430  15.2257730  45.9934310  33.8914680  23.3974690
  46.0107050  34.3423330  24.2416540  45.7449890  32.9920320  23.6108130
  41.0427440  38.4248420  14.7794300  40.4744340  37.9766670  14.1530210
  41.7516440  38.7841200  14.2459450  49.4205060  31.3046860  29.2361070
  49.7450830  30.5736520  29.7619050  49.4561570  30.9860500  28.3342060
  36.1196620  42.3260440  28.6561030  35.7351410  41.6854110  29.2543990
  36.4308810  43.0296560  29.2255760  42.2693760  39.1736980  24.1369650
  42.6363890  38.6995550  24.8830990  42.0798820  40.0478550  24.4777990
  40.0593130  38.2145620  26.4553860  39.7550200  39.0937600  26.6804220
  41.0139590  38.2745410  26.4911300  38.5874920  42.4206610  17.0520710
  37.8137180  41.8804230  16.8919430  39.3169550  41.9013220  16.7138470
  49.3462900  41.4171970  22.8447100  50.0662020  41.9127260  22.4543210
  49.1444720  40.7389860  22.2000970  44.8072840  32.8109930  16.9876490
  43.9937450  32.3123100  16.9121800  44.6134790  33.6508180  16.5712840
  44.7281700  41.4881030  28.7316100  44.6619010  40.5676700  28.4773690
  44.0986840  41.5856470  29.4460740  47.5221230  37.1829580  15.2838650
  48.4100850  37.4946810  15.1089990  47.4926320  36.3101830  14.8919230
  38.6312320  42.0886990  20.6899520  39.1490990  41.2855250  20.6356410
  38.1796340  42.0266130  21.5316350  43.5181820  43.3553270  15.9626820
  43.8597520  44.0995500  15.4670140  42.6894530  43.6684390  16.3251650
  36.1156860  39.0548360  27.6025220  35.7571800  39.7202210  28.1898560
  35.8211420  38.2231910  27.9737840  44.6598430  44.3101600  28.4819900
  44.6742970  43.3782560  28.2638810  43.9523530  44.3961360  29.1209670
  49.7935500  38.4941420  14.7518510  49.7099220  38.9255640  13.9014950
  50.5129690  38.9539770  15.1845330  50.8709640  40.9508940  27.8288480
  50.1457830  41.5437720  27.6317870  51.3985100  40.9432480  27.0301850
  50.8222750  45.3483680  17.4800640  50.1798910  44.6939300  17.7544360
  50.4353410  45.7538770  16.7041310  46.4009230  42.6769110  21.3272330
  46.7533050  42.0797240  20.6673700  45.5171560  42.3513340  21.4980580
  42.4872510  43.4366800  18.7342740  43.1743640  43.9836010  19.1150330
  41.7004930  43.9807530  18.7692350  34.6264910  39.0539620  14.2259820
  35.4959760  39.3364420  14.5095740  34.1355230  39.8675490  14.1108630
  41.7899720  40.4412830  18.3468100  42.2462500  41.2518080  18.5728290
  41.4387930  40.1235970  19.1786590  44.0932330  45.9519170  25.5760400
  44.7374550  46.1578550  26.2533820  44.4561770  45.1907570  25.1231250
  37.6911500  30.7850480  18.8190620  37.5626130  30.7768380  19.7675540
  36.8673520  31.1233570  18.4681630  45.3664410  43.9551520  24.2937850
  46.0086640  43.2544680  24.4070020  45.8913760  44.7349960  24.1134740
  49.2120130  44.2400140  14.0176990  48.9857710  43.5230580  14.6101630
  48.8216330  43.9912580  13.1798740  47.1402030  44.7546420  27.4973910
  47.4758270  45.3413110  28.1751830  46.2202370  44.6239130  27.7271700
  34.9936160  48.2667000  14.7921450  35.3533800  48.8656340  14.1378720
  34.8528500  48.8126890  15.5656480  48.7936380  42.1572080  15.6791150
  48.5058080  42.6184770  16.4669030  49.5888550  41.6969850  15.9475370
  34.9778020  46.5321860  29.2663850  35.0869140  45.5916600  29.1259240
  34.3258580  46.7976610  28.6177580  42.9690610  44.8037750  30.6661970
  42.6487480  44.0846990  31.2107660  42.2948970  45.4792820  30.7398030
  41.0104780  45.6498200  15.6095120  41.0014880  46.3827890  14.9939630
  40.0903140  45.4029780  15.7022080  36.6111420  40.8713090  16.3541880
  36.0039370  41.6111990  16.3637180  37.0860770  40.9612450  15.5280080
  46.1844210  35.0363910  26.0298770  46.5525030  34.2159120  26.3578340
  45.3242410  35.0965800  26.4454420  49.5506240  33.9920850  16.8386330
  48.9219400  34.0966520  16.1244560  49.0558160  34.2117630  17.6280210
  43.9964380  45.7126440  14.2720310  44.0976360  45.5090430  13.3422290
  43.0966120  45.4584720  14.4768090  41.5190270  36.2706800  18.2544210
  40.8106420  36.7393140  18.6957820  41.8034750  35.6128810  18.8889400
  43.1446200  37.6903500  26.2536740  43.6431450  38.1649320  26.9188590
  43.2869150  36.7667020  26.4606770  45.5505700  32.9957460  19.6940000
  45.4273480  33.0143590  18.7449510  46.4990260  33.0436400  19.8138400
  42.6382490  48.2312760  18.9667980  42.8923990  48.1934150  18.0447350
  41.6894970  48.1046090  18.9596230  39.7225290  34.5791880  15.6294920
  40.5715820  35.0162030  15.5635110  39.3556560  34.8912140  16.4566980
  50.3513060  33.9071460  27.0965130  49.8486660  34.6476860  27.4358940
  51.1669720  34.2955460  26.7801920  48.6435070  39.1504640  20.5426490
  47.7025210  39.1654870  20.7174180  48.9579140  38.3640600  20.9886790
  38.6216710  40.8324240  14.1030450  39.3879980  40.7205600  14.6655880
  38.6991400  40.1362210  13.4507220  37.3163470  38.2649310  14.7863340
  37.3967060  37.3176820  14.8980740  38.2083220  38.5956190  14.8924000
  50.6460650  46.3213490  22.2180750  50.7708070  47.1444660  22.6904560
  51.5126210  46.1104220  21.8704900  38.1178180  48.4144700  21.8897880
  38.8540660  47.8660160  22.1606450  38.5019100  49.2800710  21.7503870
  35.0023660  44.4818270  17.7639390  34.0763440  44.7239410  17.7544800
  35.4680090  45.3092530  17.6424140  37.1236460  47.5990770  31.0783460
  37.9249190  47.9202820  31.4918860  36.6088280  47.2386350  31.8003370
  41.2280490  47.5875010  13.7123450  42.0209100  47.8763840  13.2605240
  40.7084840  47.1567180  13.0335930  45.9601090  43.7070640  31.0258870
  45.3539250  43.7302240  30.2854620  45.6555200  42.9753680  31.5626120
  47.3901460  47.4350930  29.6368280  48.3423210  47.3508950  29.5868520
  47.2429680  48.0992640  30.3102070  50.2810660  46.8145140  15.1360190
  49.9952170  46.4010280  14.3214370  50.0830210  47.7432850  15.0160710
  41.7457890  42.8078420  13.5765800  41.6408530  42.1930770  14.3027180
  41.5782110  42.2844310  12.7928810  41.8972210  41.4935220  29.5555030
  41.1317880  42.0620220  29.4709700  42.0788170  41.2011430  28.6623260
  44.9860620  41.8698450  14.1807790  44.4370720  42.3167750  14.8250530
  45.6079880  41.3647700  14.7045460  49.0395560  43.2240550  30.1130050
  49.7805030  43.5616310  29.6097510  48.2768240  43.3932610  29.5599820
  40.6535740  40.8289370  16.0773090  41.0752160  40.6629240  16.9204480
  40.7786580  40.0189600  15.5828230  38.8163160  36.8085920  28.8844070
  38.2859620  36.3176870  28.2567410  39.4851230  37.2370120  28.3502000
  43.1663380  39.8526980  13.3250190  43.6869040  39.1376000  12.9591340
  43.8131780  40.4912850  13.6250700  47.7141220  41.2755380  28.6485260
  48.1282240  41.4300460  29.4975680  46.7792220  41.4010600  28.8111040
  48.1863390  38.6151540  30.6524410  48.7684160  37.8603860  30.5644890
  48.3625160  39.1458980  29.8755890  39.3035460  33.7748290  28.9641360
  39.2092330  33.1569040  28.2392230  38.7232850  34.5014580  28.7371270
  42.0696900  32.3321530  25.9968750  41.6214200  32.3545790  25.1514300
  41.4362100  31.9340550  26.5939050  42.4756450  41.2275860  26.6181190
  42.8944560  42.0708590  26.4457430  41.5565080  41.3647900  26.3887970
  44.8120350  38.9592040  28.0019030  44.9316560  38.3633180  28.7413870
  45.6714350  38.9961730  27.5820330  47.1508250  39.5129230  26.5781540
  46.6243470  40.0371850  25.9746680  47.4939590  40.1456620  27.2091270
  39.5494640  36.9022600  13.0231250  39.3483700  36.0389960  13.3844590
  39.3786690  36.8155960  12.0852850  40.3263870  47.5328870  27.7338920
  39.7884960  48.2574930  27.4147620  40.5797830  47.0559210  26.9436260
  41.5789120  35.5013390  29.2594850  42.1688810  35.1929240  29.9472670
  40.7609360  35.0293140  29.4154750  46.3982550  35.1179200  29.4927870
  45.7098070  34.4560740  29.4277860  47.1188570  34.6717470  29.9376330
  47.0282950  31.7130830  15.5518130  47.3085240  30.8698730  15.9077550
  46.2548680  31.9453940  16.0656880  38.3477440  34.0023220  13.0109130
  38.6503340  34.0090650  12.1028280  39.0872030  33.6521080  13.5076790
  43.1826080  48.7680080  27.9925570  43.1084780  49.6715220  28.2997940
  42.2804920  48.4491980  27.9647640  41.5662370  32.9457840  13.9965330
  41.2184370  32.2681830  13.4167780  41.7675140  32.4847350  14.8108720
  43.7311410  47.9338590  15.6151930  44.6262200  48.2723560  15.6370690
  43.7629040  47.2118000  14.9876210  37.3707570  43.3065640  13.8438930
  37.8082440  43.8495310  14.4996510  37.8555300  42.4812590  13.8535270
  34.5853370  46.0954670  21.2959190  34.9156380  45.2275730  21.0637830
  35.0144370  46.3013190  22.1264150  39.1815290  44.4263680  18.9561160
  38.8810830  44.3028650  19.8565070  39.0752780  43.5672270  18.5476890
  35.0743580  46.9625260  24.0340820  34.6374570  47.1426060  24.8664970
  35.6421260  47.7199880  23.8922540  50.7105760  46.4642260  28.3218130
  50.1107750  46.5234820  27.5782050  50.8399660  45.5247240  28.4514980
  51.9507210  44.2060080  13.6587840  51.1200170  44.2736730  14.1295070
  52.1279040  45.0964200  13.3554700  51.4063670  40.9507560  16.1622040
  52.1682580  41.5204210  16.2681730  51.4218040  40.3834760  16.9330350
  34.9068010  39.4745490  20.3929700  34.2516850  39.2057130  19.7489400
  35.7445960  39.3649970  19.9431680  52.4123640  41.8057660  21.0063970
  52.7832470  41.0224980  20.5999940  53.0525570  42.4946760  20.8281270
  49.3957400  43.1894240  26.4194290  48.5817240  43.6191400  26.6820080
  49.8031600  43.8012650  25.8063340  51.4582840  41.2441930  13.3194560
  51.7331680  42.1520810  13.1913780  51.2693580  41.1804460  14.2556550
  47.8558450  34.2686780  14.6148190  48.2743330  34.0817760  13.7744850
  47.5494510  33.4165830  14.9251120  51.3548180  39.1810920  18.3123990
  50.9791780  38.4138850  17.8805280  50.6251300  39.5633620  18.7998920
  35.9443940  39.8598060  24.9333040  36.3116980  39.7725460  25.8129060
  35.3754760  39.0964610  24.8339900  50.7447800  38.3282440  27.9463510
  50.5133890  38.0995190  27.0461460  51.0052350  39.2481990  27.9008400
  49.1835870  33.5538870  30.7243210  50.0606050  33.5622270  31.1077210
  49.1956710  32.8169710  30.1135560  34.1206090  36.6844420  16.3355030
  33.2170170  36.9474620  16.1606690  34.6046710  36.9555590  15.5554990
  50.6299140  37.4068410  21.6131230  51.1536620  36.9131060  20.9821400
  51.2158560  37.5418770  22.3578800  50.8088860  37.4908280  25.1350780
  49.8591570  37.4571820  25.2495770  50.9901870  38.4008390  24.9000550
  36.6633300  35.7409960  14.2449410  37.3725000  35.3193180  13.7596690
  35.9473240  35.8085190  13.6132760  36.3107460  31.7949290  13.2852060
  37.0335590  32.3358230  13.6033280  36.5831980  31.5212710  12.4093600
  50.1199110  36.6641760  17.5523640  50.6158230  36.4312630  18.3372520
  49.9215180  35.8253600  17.1361280  51.5486270  35.3002710  20.0861320
  51.4385550  35.1458750  21.0243590  52.3093860  34.7723650  19.8436730
  49.8951990  31.2396840  26.5444320  50.5324210  31.8530980  26.9103510
  50.0426880  31.2757500  25.5993550  52.4376540  33.1310630  13.3267460
  53.3625850  32.9991810  13.1185750  52.4152330  33.2103450  14.2803910
  52.5115030  33.9021290  15.9524170  51.7166530  33.8366410  16.4817080
  52.7158310  34.8371930  15.9409520  49.4533450  47.9412840  19.9462560
  50.0492520  47.6197410  19.2696980  49.7111600  47.4684660  20.7375830
  35.7531650  31.2011150  25.9300000  35.4046470  31.6574970  26.6958180
  35.4219350  30.3068280  26.0122430  37.3596020  44.3730750  30.0953190
  37.3165650  44.0023660  30.9767650  37.4907030  45.3108320  30.2355010
  41.0602050  45.9290340  25.6962910  40.8193410  46.1964900  24.8093430
  42.0004690  46.0996070  25.7513770  43.2656470  32.3923030  29.4519420
  43.2045360  32.9844860  30.2014830  44.2056850  32.2848990  29.3069680
  45.9031030  32.0493090  29.0911710  46.5171440  32.3672380  28.4292790
  46.4480590  31.5641680  29.7107570  52.3206210  47.9484720  26.4973550
  51.8264490  48.3453590  25.7800680  51.7119500  47.3233930  26.8910830
  37.1984050  47.3193000  27.2150970  36.6044370  47.1877700  27.9541010
  37.1907890  46.4831140  26.7493070  46.6439070  30.6125230  25.4181000
  45.7698910  30.9460340  25.2153930  46.5349820  30.1398410  26.2432870
  47.5511050  32.8196100  26.8022720  47.2224410  32.0047860  26.4224450
  48.4993350  32.7765910  26.6788410  50.0045660  48.5908140  23.7760290
  49.5448630  49.3423950  23.4018310  49.3758120  47.8714610  23.7175090
  36.8296280  44.6851380  26.1659010  36.1030340  44.0656670  26.0984960
  36.8905430  45.0791990  25.2957090  40.4341380  46.8996380  22.9508420
  40.9506400  46.2883740  22.4256680  41.0838760  47.4025160  23.4419430
  43.1736880  47.7904870  23.7777400  43.4614690  47.5359170  22.9010410
  43.6860100  47.2382230  24.3682970  44.3913890  31.5295070  24.3573910
  43.6085680  32.0040570  24.6370670  44.0976820  30.6249900  24.2487090
  48.9434960  32.2318170  22.4023000  49.3843050  32.1763270  21.5544600
  48.6742550  33.1476180  22.4733180  50.8073530  31.8633410  20.4131820
  50.7461930  30.9194630  20.2662840  51.5865560  31.9713500  20.9585280
  35.1126280  48.0025770  19.3755770  34.9448320  47.3696450  20.0737660
  34.2460790  48.2085170  19.0249960  35.7354300  31.8342550  16.8787630
  36.4933660  31.9471430  16.3051660  35.2731470  32.6711750  16.8331060
  42.2768110  33.9481820  19.8689940  41.4642620  33.5738710  19.5285820
  42.7809750  33.1926900  20.1711130  46.7793090  30.6124270  21.1073010
  47.3822460  31.1844480  21.5821530  46.0386080  31.1763710  20.8846910
  49.9227690  31.0145830  16.3813290  50.1178320  31.9129280  16.6480720
  49.1357560  30.7832910  16.8746240  36.7188980  46.6959000  16.8205910
  36.1936600  47.0767030  16.1167870  36.6433560  47.3209770  17.5415620
  38.1079450  32.3606600  15.4189600  38.6372210  31.5736400  15.2897550
  38.7407770  33.0397790  15.6525130  40.3017290  32.0981740  18.4734990
  39.6720030  31.3969050  18.6405120  39.7622430  32.8585870  18.2568150
  43.2409240  48.7120970  31.1445600  44.1676550  48.4765240  31.1881560
  43.2259670  49.5392970  30.6631630  51.4754300  48.2546540  18.1419850
  51.6506490  47.5684280  17.4980770  50.7775870  48.7793590  17.7496520
  40.4272850  31.3765720  30.9087480  40.1457120  31.8799320  30.1448300
  40.8092550  30.5787470  30.5429610  39.3181950  48.6441380  15.6955160
  40.0500770  48.3600660  15.1479050  39.5775620  48.4054660  16.5854540
  38.4796740  44.7606110  15.7001490  37.8505620  45.2291210  16.2487320
  38.5944570  43.9155330  16.1347680  47.0288310  30.7919300  31.4867950
  46.9153760  31.1113910  32.3819470  47.8458050  31.1931810  31.1905230
  49.8086800  47.9390830  30.9686640  50.6012120  47.4440060  30.7612600
  50.1019950  48.6180970  31.5762250  44.0664500  40.5890790   3.7311960
  43.2906600  40.1091230   4.0210530  44.7177430  39.9096440   3.5568120
  38.0830330  40.9010600   4.6087720  37.2515210  40.6459310   5.0084230
  38.6911310  40.9721370   5.3445640  48.0871930  44.9950980   2.5111090
  47.6253460  44.2238220   2.8398260  48.8997480  45.0217050   3.0163540
  38.0631590  44.9350690   4.8045740  38.3659630  44.0448430   4.6255960
  38.8075180  45.4920910   4.5767990  34.4555290  38.4618140   4.2769810
  35.0271400  37.6940340   4.2773450  34.4556830  38.7606900   3.3676420
  43.5073490  43.2647980   3.7382120  43.4381770  42.3237920   3.5771250
  44.2693350  43.3549390   4.3104690  35.6980160  33.8702500   6.0638740
  35.5183000  32.9728250   6.3441500  35.2960240  34.4174370   6.7385690
  44.5378660  36.0718360   3.9651050  44.9143480  35.1990240   3.8524720
  44.4398170  36.4077060   3.0741490  36.3166830  36.3663000   4.6721080
  36.9976940  36.6301370   5.2908480  36.0014880  35.5263870   5.0059090
  40.5091400  37.4130360   3.7593670  41.0169620  37.9111330   4.3998690
  41.0404640  36.6365560   3.5833030  52.6102330  35.5835550   7.4623020
  51.9054500  35.9717260   6.9438130  52.8760250  36.2785840   8.0643950
  38.7927500  32.0528920   8.0257090  38.7945940  32.5701310   7.2202990
  37.9631810  31.5759100   8.0027020  40.0430350  41.6924100   6.2030590
  39.7099730  42.3193020   6.8451660  40.2197030  42.2185980   5.4232260
  48.5564260  35.5069180   3.6706930  47.8519830  35.7954070   4.2510040
  48.9176420  36.3169290   3.3106490  38.4742830  33.7638880   6.0327540
  38.8159640  34.6080930   5.7381410  37.5358640  33.9122620   6.1492880
  39.2549450  43.6604900   8.0179770  39.8723450  44.3355980   7.7364220
  38.3942570  44.0692880   7.9267270  50.1727040  45.1244310   5.9334410
  49.4890560  45.7943420   5.9251080  50.7121330  45.3224960   5.1679270
  51.6251180  34.9523970   4.0616140  50.6776090  34.9862950   4.1931570
  51.9501170  35.7662920   4.4465500  47.7085780  46.9688440   4.6479590
  47.7212940  46.5650730   3.7801850  47.1561000  47.7435730   4.5441020
  47.1071220  41.8718280   5.9762200  47.5240010  41.6578390   5.1415660
  47.8311040  42.1291070   6.5470820  51.0533320  40.2705500   6.0678440
  50.2251950  40.3398590   5.5928570  51.6483800  40.8559810   5.5994270
  48.0175330  37.0574820   7.0133310  47.6046510  37.8828530   7.2673300
  47.2851280  36.4719860   6.8209670  40.6189820  43.5302280   4.0391190
  40.3218110  42.9247750   3.3598970  41.5689640  43.5679590   3.9280550
  38.8636740  36.6177930   5.6551020  39.4151330  36.7273270   4.8804270
  39.3780250  36.9915530   6.3706250  48.7075430  47.1034150   7.7014290
  48.2305990  47.9106340   7.5086900  48.0237220  46.4512480   7.8540500
  39.7108250  43.2683970  10.6898990  38.8136780  43.4923940  10.9372390
  39.7361120  43.3918910   9.7410390  38.5379470  40.1397290   9.2656360
  38.3987240  41.0120090   9.6343760  37.6560830  39.7970100   9.1204300
  40.3359820  46.0818990  11.4741510  40.3075250  46.4861940  10.6069940
  40.1724790  45.1529350  11.3113110  52.2874640  46.8646090  12.7705680
  52.7634360  47.3428980  13.4494760  52.9081800  46.7963580  12.0451180
  34.4898120  41.9094840   5.1827270  34.5678540  42.0443610   4.2382990
  35.1039800  41.2010730   5.3755390  51.6907890  44.0558940   9.9305690
  51.8170950  43.8170820   9.0122870  51.7329270  43.2243480  10.4027770
  45.5524630  47.7586940   8.5000500  46.0669300  47.6694950   9.3022930
  44.7093710  48.1046640   8.7928410  51.5431900  36.1091400  10.8955430
  50.9276170  36.6171070  10.3670890  51.2228320  35.2089730  10.8381370
  34.5457640  42.9509010   7.7221730  34.7088680  42.4814370   6.9041100
  35.0110090  42.4432570   8.3870570  39.3176410  32.0814770   2.7582300
  38.8744560  32.8624310   2.4266820  39.8761400  32.4044660   3.4653240
  43.6046220  34.9483290   8.3617620  43.1425590  35.1566310   9.1737560
  43.2024330  34.1342640   8.0588290  48.6050730  36.1692240   9.4914280
  47.7544320  35.8697990   9.8123350  48.4452520  36.4134250   8.5798100
  45.7000440  37.6693990  11.5913070  46.0253850  36.8357740  11.2515300
  46.4880770  38.1922510  11.7391400  41.3552310  32.6262100   4.6171900
  41.6524640  33.5324930   4.5363920  41.9037870  32.1380880   4.0031470
  41.5489840  38.1033920  11.1523820  41.4533440  37.1628650  11.0024220
  42.3921820  38.3248990  10.7571890  36.6800380  34.5147590   9.3057600
  36.2863770  35.3622800   9.5130380  35.9918780  33.8773960   9.4966240
  43.2545430  34.5982560  12.3754340  42.5643750  34.4054760  13.0100430
  43.9977730  34.8817200  12.9078640  33.9817430  32.4376050   3.3387680
  33.6930480  33.0078910   4.0512660  34.7263190  31.9580500   3.7018910
  45.5308400  38.4381000   5.2108260  44.7989520  38.9467810   5.5598360
  45.1332740  37.6210980   4.9097040  41.9685790  35.1135200   3.6160750
  41.9721850  34.6725150   2.7665290  42.8636910  35.4352530   3.7232570
  37.8188170  34.9961690   2.5754960  37.4788220  35.4736920   3.3322010
  37.0565490  34.5426810   2.2156060  45.9934310  33.8914680   4.6231200
  46.0107050  34.3423330   5.4673050  45.7449890  32.9920320   4.8364640
  49.4205060  31.3046860  10.4617580  49.7450830  30.5736520  10.9875560
  49.4561570  30.9860500   9.5598570  36.1196620  42.3260440   9.8817540
  35.7351410  41.6854110  10.4800500  36.4308810  43.0296560  10.4512270
  42.2693760  39.1736980   5.3626160  42.6363890  38.6995550   6.1087500
  42.0798820  40.0478550   5.7034500  40.0593130  38.2145620   7.6810370
  39.7550200  39.0937600   7.9060730  41.0139590  38.2745410   7.7167810
  49.3462900  41.4171970   4.0703610  50.0662020  41.9127260   3.6799720
  49.1444720  40.7389860   3.4257480  44.7281700  41.4881030   9.9572610
  44.6619010  40.5676700   9.7030200  44.0986840  41.5856470  10.6717250
  38.6312320  42.0886990   1.9156030  39.1490990  41.2855250   1.8612920
  38.1796340  42.0266130   2.7572860  36.1156860  39.0548360   8.8281730
  35.7571800  39.7202210   9.4155070  35.8211420  38.2231910   9.1994350
  39.3169980  39.5132600  11.7121280  39.0170120  39.6589780  10.8149100
  40.0881220  38.9537890  11.6194670  44.6598430  44.3101600   9.7076410
  44.6742970  43.3782560   9.4895320  43.9523530  44.3961360  10.3466180
  50.8709640  40.9508940   9.0544990  50.1457830  41.5437720   8.8574380
  51.3985100  40.9432480   8.2558360  46.4009230  42.6769110   2.5528840
  46.7533050  42.0797240   1.8930210  45.5171560  42.3513340   2.7237090
  44.0932330  45.9519170   6.8016910  44.7374550  46.1578550   7.4790330
  44.4561770  45.1907570   6.3487760  45.3664410  43.9551520   5.5194360
  46.0086640  43.2544680   5.6326530  45.8913760  44.7349960   5.3391250
  47.1402030  44.7546420   8.7230420  47.4758270  45.3413110   9.4008340
  46.2202370  44.6239130   8.9528210  34.6905430  32.5441600   9.5053830
  33.9763950  32.7438520  10.1106440  35.1100470  31.7681170   9.8768630
  34.9778020  46.5321860  10.4920360  35.0869140  45.5916600  10.3515750
  34.3258580  46.7976610   9.8434090  42.9690610  44.8037750  11.8918480
  42.6487480  44.0846990  12.4364170  42.2948970  45.4792820  11.9654540
  46.1844210  35.0363910   7.2555280  46.5525030  34.2159120   7.5834850
  45.3242410  35.0965800   7.6710930  43.1446200  37.6903500   7.4793250
  43.6431450  38.1649320   8.1445100  43.2869150  36.7667020   7.6863280
  50.3513060  33.9071460   8.3221640  49.8486660  34.6476860   8.6615450
  51.1669720  34.2955460   8.0058430  48.6435070  39.1504640   1.7683000
  47.7025210  39.1654870   1.9430690  48.9579140  38.3640600   2.2143300
  50.6460650  46.3213490   3.4437260  50.7708070  47.1444660   3.9161070
  51.5126210  46.1104220   3.0961410  38.1178180  48.4144700   3.1154390
  38.8540660  47.8660160   3.3862960  38.5019100  49.2800710   2.9760380
  37.1236460  47.5990770  12.3039970  37.9249190  47.9202820  12.7175370
  36.6088280  47.2386350  13.0259880  45.9601090  43.7070640  12.2515380
  45.3539250  43.7302240  11.5111130  45.6555200  42.9753680  12.7882630
  47.3901460  47.4350930  10.8624790  48.3423210  47.3508950  10.8125030
  47.2429680  48.0992640  11.5358580  34.8434270  40.0864230  11.2476020
  35.3473290  39.5071510  11.8192250  34.1041690  40.3704460  11.7852390
  41.8972210  41.4935220  10.7811540  41.1317880  42.0620220  10.6966210
  42.0788170  41.2011430   9.8879770  49.0395560  43.2240550  11.3386560
  49.7805030  43.5616310  10.8354020  48.2768240  43.3932610  10.7856330
  36.8757350  38.2293820  12.1426090  36.9162690  37.9307690  13.0511320
  37.7302850  38.6301430  11.9833610  38.8163160  36.8085920  10.1100580
  38.2859620  36.3176870   9.4823920  39.4851230  37.2370120   9.5758510
  47.7141220  41.2755380   9.8741770  48.1282240  41.4300460  10.7232190
  46.7792220  41.4010600  10.0367550  48.1863390  38.6151540  11.8780920
  48.7684160  37.8603860  11.7901400  48.3625160  39.1458980  11.1012400
  39.3035460  33.7748290  10.1897870  39.2092330  33.1569040   9.4648740
  38.7232850  34.5014580   9.9627780  42.0696900  32.3321530   7.2225260
  41.6214200  32.3545790   6.3770810  41.4362100  31.9340550   7.8195560
  42.4756450  41.2275860   7.8437700  42.8944560  42.0708590   7.6713940
  41.5565080  41.3647900   7.6144480  44.8120350  38.9592040   9.2275540
  44.9316560  38.3633180   9.9670380  45.6714350  38.9961730   8.8076840
  47.1508250  39.5129230   7.8038050  46.6243470  40.0371850   7.2003190
  47.4939590  40.1456620   8.4347780  40.3263870  47.5328870   8.9595430
  39.7884960  48.2574930   8.6404130  40.5797830  47.0559210   8.1692770
  41.5789120  35.5013390  10.4851360  42.1688810  35.1929240  11.1729180
  40.7609360  35.0293140  10.6411260  46.3982550  35.1179200  10.7184380
  45.7098070  34.4560740  10.6534370  47.1188570  34.6717470  11.1632840
  43.1826080  48.7680080   9.2182080  43.1084780  49.6715220   9.5254450
  42.2804920  48.4491980   9.1904150  34.5853370  46.0954670   2.5215700
  34.9156380  45.2275730   2.2894340  35.0144370  46.3013190   3.3520660
  35.0743580  46.9625260   5.2597330  34.6374570  47.1426060   6.0921480
  35.6421260  47.7199880   5.1179050  50.7105760  46.4642260   9.5474640
  50.1107750  46.5234820   8.8038560  50.8399660  45.5247240   9.6771490
  52.4123640  41.8057660   2.2320480  52.7832470  41.0224980   1.8256450
  53.0525570  42.4946760   2.0537780  49.3957400  43.1894240   7.6450800
  48.5817240  43.6191400   7.9076590  49.8031600  43.8012650   7.0319850
  35.9443940  39.8598060   6.1589550  36.3116980  39.7725460   7.0385570
  35.3754760  39.0964610   6.0596410  50.7447800  38.3282440   9.1720020
  50.5133890  38.0995190   8.2717970  51.0052350  39.2481990   9.1264910
  35.4959940  36.7707150  10.0647970  34.6015990  36.7373910  10.4041680
  36.0357490  36.9693940  10.8299220  49.1835870  33.5538870  11.9499720
  50.0606050  33.5622270  12.3333720  49.1956710  32.8169710  11.3392070
  50.6299140  37.4068410   2.8387740  51.1536620  36.9131060   2.2077910
  51.2158560  37.5418770   3.5835310  50.8088860  37.4908280   6.3607290
  49.8591570  37.4571820   6.4752280  50.9901870  38.4008390   6.1257060
  35.9999650  31.0455480   4.4131190  36.6475840  30.4952860   3.9726350
  36.4201490  31.2998630   5.2347000  49.8951990  31.2396840   7.7700830
  50.5324210  31.8530980   8.1360020  50.0426880  31.2757500   6.8250060
  35.7531650  31.2011150   7.1556510  35.4046470  31.6574970   7.9214690
  35.4219350  30.3068280   7.2378940  37.3596020  44.3730750  11.3209700
  37.3165650  44.0023660  12.2024160  37.4907030  45.3108320  11.4611520
  41.0602050  45.9290340   6.9219420  40.8193410  46.1964900   6.0349940
  42.0004690  46.0996070   6.9770280  43.2656470  32.3923030  10.6775930
  43.2045360  32.9844860  11.4271340  44.2056850  32.2848990  10.5326190
  45.9031030  32.0493090  10.3168220  46.5171440  32.3672380   9.6549300
  46.4480590  31.5641680  10.9364080  52.3206210  47.9484720   7.7230060
  51.8264490  48.3453590   7.0057190  51.7119500  47.3233930   8.1167340
  36.4252290  30.7287350  10.4307280  36.9735280  30.5475400   9.6673390
  36.4907600  29.9381460  10.9663590  37.1984050  47.3193000   8.4407480
  36.6044370  47.1877700   9.1797520  37.1907890  46.4831140   7.9749580
  46.6439070  30.6125230   6.6437510  45.7698910  30.9460340   6.4410440
  46.5349820  30.1398410   7.4689380  47.5511050  32.8196100   8.0279230
  47.2224410  32.0047860   7.6480960  48.4993350  32.7765910   7.9044920
  50.0045660  48.5908140   5.0016800  49.5448630  49.3423950   4.6274820
  49.3758120  47.8714610   4.9431600  36.8296280  44.6851380   7.3915520
  36.1030340  44.0656670   7.3241470  36.8905430  45.0791990   6.5213600
  40.4341380  46.8996380   4.1764930  40.9506400  46.2883740   3.6513190
  41.0838760  47.4025160   4.6675940  43.1736880  47.7904870   5.0033910
  43.4614690  47.5359170   4.1266920  43.6860100  47.2382230   5.5939480
  44.3913890  31.5295070   5.5830420  43.6085680  32.0040570   5.8627180
  44.0976820  30.6249900   5.4743600  48.9434960  32.2318170   3.6279510
  49.3843050  32.1763270   2.7801110  48.6742550  33.1476180   3.6989690
  46.7793090  30.6124270   2.3329520  47.3822460  31.1844480   2.8078040
  46.0386080  31.1763710   2.1103420  43.2409240  48.7120970  12.3702110
  44.1676550  48.4765240  12.4138070  43.2259670  49.5392970  11.8888140
  40.4272850  31.3765720  12.1343990  40.1457120  31.8799320  11.3704810
  40.8092550  30.5787470  11.7686120  47.0288310  30.7919300  12.7124460
  46.9153760  31.1113910  13.6075980  47.8458050  31.1931810  12.4161740
  49.8086800  47.9390830  12.1943150  50.6012120  47.4440060  11.9869110
  50.1019950  48.6180970  12.8018760  45.9346460  20.0368280  58.1733160
  45.8540510  19.1222890  57.9024870  45.5210880  20.5335350  57.4672870
  44.0664500  21.8147300  60.0542430  43.2906600  21.3347740  60.3441000
  44.7177430  21.1352950  59.8798590  48.0871930  26.2207490  58.8341560
  47.6253460  25.4494730  59.1628730  48.8997480  26.2473560  59.3394010
  38.0631590  26.1607200  61.1276210  38.3659630  25.2704940  60.9486430
  38.8075180  26.7177420  60.8998460  36.4922280  17.0869000  54.7160580
  35.6038980  17.4284970  54.6140460  36.7763470  16.8869320  53.8241410
  34.4555290  19.6874650  60.6000280  35.0271400  18.9196850  60.6003920
  34.4556830  19.9863410  59.6906890  44.3135240  28.5065500  58.4545550
  43.6946680  28.9623000  57.8839990  45.1687020  28.6616960  58.0535250
  43.5073490  24.4904490  60.0612590  43.4381770  23.5494430  59.9001720
  44.2693350  24.5805900  60.6335160  44.5378660  17.2974870  60.2881520
  44.9143480  16.4246750  60.1755190  44.4398170  17.6333570  59.3971960
  38.6683670  15.6700500  55.7498960  38.7750420  16.5704230  56.0567720
  37.7576030  15.6218470  55.4593610  48.3202780  14.7925310  57.2209860
  49.1412400  14.3021880  57.2635340  48.3536860  15.3822970  57.9741700
  40.5091400  18.6386870  60.0824140  41.0169620  19.1367840  60.7229160
  41.0404640  17.8622070  59.9063500  45.1798590  23.3904740  55.8477460
  44.5615860  23.8554190  55.2840180  45.6921840  24.0832220  56.2646970
  48.5564260  16.7325690  59.9937400  47.8519830  17.0210580  60.5740510
  48.9176420  17.5425800  59.6336960  34.5481790  24.0761270  53.2217090
  34.1709770  24.5648370  52.4901990  34.8054860  24.7486550  53.8523620
  51.6251180  16.1780480  60.3846610  50.6776090  16.2119460  60.5162040
  51.9501170  16.9919430  60.7695970  42.1570720  12.4777660  58.6802600
  42.4645700  11.9224550  57.9638100  41.2271420  12.6122120  58.4975590
  47.7085780  28.1944950  60.9710060  47.7212940  27.7907240  60.1032320
  47.1561000  28.9692240  60.8671490  49.0031200  24.9161170  56.0600230
  48.8927530  23.9735500  56.1849650  48.9999450  25.2776810  56.9462990
  44.5451480  20.5426490  55.4162720  43.6180760  20.4763870  55.6451190
  44.6976300  21.4806620  55.3017960  44.5320560  16.8143490  52.4129880
  43.5924230  16.9757450  52.4982340  44.8503820  17.5329170  51.8665870
  48.5748770  22.1046790  55.9197970  47.9561190  21.7666340  55.2724270
  48.5573220  21.4606550  56.6277160  40.1508120  21.0691230  58.1982450
  39.7465120  20.3568480  57.7028350  40.2371240  20.7244470  59.0870490
  40.6189820  24.7558790  60.3621660  40.3218110  24.1504260  59.6829440
  41.5689640  24.7936100  60.2511020  46.7513470  21.3433600  52.9270720
  47.1906750  20.5056030  52.7808540  47.4641890  21.9763000  53.0134860
  44.8608850  26.2829670  56.8951960  45.3004760  27.0254000  56.4807350
  44.7995740  26.5256240  57.8190920  50.3330610  12.5976410  51.2411760
  50.0203270  12.6903240  52.1410830  51.0943080  13.1757440  51.1909190
  36.8512750  19.9636210  55.6989100  36.7310350  20.6898300  55.0870370
  36.5413640  19.1939120  55.2217010  35.7345750  24.8351540  57.9163920
  35.3273830  24.9766130  57.0617520  36.6258760  24.5511700  57.7135130
  47.5279030  29.2698790  54.2514970  47.3680170  28.9801730  55.1496800
  47.3625740  28.4938920  53.7160200  40.0067410  29.0497320  56.0286590
  39.8309890  28.1332860  55.8154390  39.1523150  29.4084610  56.2684390
  47.2305160  26.7786350  52.8112970  46.5370320  26.7763640  52.1515250
  47.9728020  26.3545670  52.3807140  46.7955090  28.4049060  56.8861460
  47.2512040  27.6238440  57.2000080  47.1347610  29.1155880  57.4302640
  39.3176410  13.3071280  59.0812770  38.8744560  14.0880820  58.7497290
  39.8761400  13.6301170  59.7883710  42.4335230  12.9281980  53.9618600
  41.8089410  12.9241850  54.6871910  42.3465350  12.0612940  53.5654570
  41.3552310  13.8518610  60.9402370  41.6524640  14.7581440  60.8594390
  41.9037870  13.3637390  60.3261940  39.1090630  18.4304850  56.8094020
  38.8831550  18.2142020  57.7140640  38.3283160  18.8633310  56.4639990
  46.3388390  18.4368220  55.4084670  45.7397280  19.1604020  55.2248290
  46.8868000  18.3745000  54.6261120  44.9453260  17.0731760  57.4387950
  45.3382830  17.3903960  56.6256640  45.3070110  16.1943640  57.5532470
  33.9817430  13.6632560  59.6618150  33.6930480  14.2335420  60.3743130
  34.7263190  13.1837010  60.0249380  34.1687660  17.6052680  50.8720870
  34.0862330  18.5483440  51.0135860  33.8170720  17.4627590  49.9933220
  41.9685790  16.3391710  59.9391220  41.9721850  15.8981660  59.0895760
  42.8636910  16.6609040  60.0463040  37.8188170  16.2218200  58.8985430
  37.4788220  16.6993430  59.6552480  37.0565490  15.7683320  58.5386530
  42.0305940  17.3403790  52.9297980  42.1518760  17.2990270  53.8783800
  41.6454450  18.2027940  52.7744710  41.0427440  19.6504930  52.3281280
  40.4744340  19.2023180  51.7017190  41.7516440  20.0097710  51.7946430
  35.1334250  15.1437180  57.8150100  34.8481170  14.7792850  58.6528720
  35.0713110  14.4117640  57.2013240  38.5874920  23.6463120  54.6007690
  37.8137180  23.1060740  54.4406410  39.3169550  23.1269730  54.2625450
  49.3462900  22.6428480  60.3934080  50.0662020  23.1383770  60.0030190
  49.1444720  21.9646370  59.7487950  44.8072840  14.0366440  54.5363470
  43.9937450  13.5379610  54.4608780  44.6134790  14.8764690  54.1199820
  47.5221230  18.4086090  52.8325630  48.4100850  18.7203320  52.6576970
  47.4926320  17.5358340  52.4406210  38.6312320  23.3143500  58.2386500
  39.1490990  22.5111760  58.1843390  38.1796340  23.2522640  59.0803330
  43.5181820  24.5809780  53.5113800  43.8597520  25.3252010  53.0157120
  42.6894530  24.8940900  53.8738630  49.7935500  19.7197930  52.3005490
  49.7099220  20.1512150  51.4501930  50.5129690  20.1796280  52.7332310
  50.8222750  26.5740190  55.0287620  50.1798910  25.9195810  55.3031340
  50.4353410  26.9795280  54.2528290  46.4009230  23.9025620  58.8759310
  46.7533050  23.3053750  58.2160680  45.5171560  23.5769850  59.0467560
  42.4872510  24.6623310  56.2829720  43.1743640  25.2092520  56.6637310
  41.7004930  25.2064040  56.3179330  34.6264910  20.2796130  51.7746800
  35.4959760  20.5620930  52.0582720  34.1355230  21.0932000  51.6595610
  41.7899720  21.6669340  55.8955080  42.2462500  22.4774590  56.1215270
  41.4387930  21.3492480  56.7273570  37.6911500  12.0106990  56.3677600
  37.5626130  12.0024890  57.3162520  36.8673520  12.3490080  56.0168610
  49.2120130  25.4656650  51.5663970  48.9857710  24.7487090  52.1588610
  48.8216330  25.2169090  50.7285720  34.9936160  29.4923510  52.3408430
  35.3533800  30.0912850  51.6865700  34.8528500  30.0383400  53.1143460
  48.7936380  23.3828590  53.2278130  48.5058080  23.8441280  54.0156010
  49.5888550  22.9226360  53.4962350  41.0104780  26.8754710  53.1582100
  41.0014880  27.6084400  52.5426610  40.0903140  26.6286290  53.2509060
  36.6111420  22.0969600  53.9028860  36.0039370  22.8368500  53.9124160
  37.0860770  22.1868960  53.0767060  49.5506240  15.2177360  54.3873310
  48.9219400  15.3223030  53.6731540  49.0558160  15.4374140  55.1767190
  43.9964380  26.9382950  51.8207290  44.0976360  26.7346940  50.8909270
  43.0966120  26.6841230  52.0255070  41.5190270  17.4963310  55.8031190
  40.8106420  17.9649650  56.2444800  41.8034750  16.8385320  56.4376380
  45.5505700  14.2213970  57.2426980  45.4273480  14.2400100  56.2936490
  46.4990260  14.2692910  57.3625380  42.6382490  29.4569270  56.5154960
  42.8923990  29.4190660  55.5934330  41.6894970  29.3302600  56.5083210
  39.7225290  15.8048390  53.1781900  40.5715820  16.2418540  53.1122090
  39.3556560  16.1168650  54.0053960  48.6435070  20.3761150  58.0913470
  47.7025210  20.3911380  58.2661160  48.9579140  19.5897110  58.5373770
  38.6216710  22.0580750  51.6517430  39.3879980  21.9462110  52.2142860
  38.6991400  21.3618720  50.9994200  37.3163470  19.4905820  52.3350320
  37.3967060  18.5433330  52.4467720  38.2083220  19.8212700  52.4410980
  50.6460650  27.5470000  59.7667730  50.7708070  28.3701170  60.2391540
  51.5126210  27.3360730  59.4191880  38.1178180  29.6401210  59.4384860
  38.8540660  29.0916670  59.7093430  38.5019100  30.5057220  59.2990850
  35.0023660  25.7074780  55.3126370  34.0763440  25.9495920  55.3031780
  35.4680090  26.5349040  55.1911120  41.2280490  28.8131520  51.2610430
  42.0209100  29.1020350  50.8092220  40.7084840  28.3823690  50.5822910
  50.2810660  28.0401650  52.6847170  49.9952170  27.6266790  51.8701350
  50.0830210  28.9689360  52.5647690  41.7457890  24.0334930  51.1252780
  41.6408530  23.4187280  51.8514160  41.5782110  23.5100820  50.3415790
  44.9860620  23.0954960  51.7294770  44.4370720  23.5424260  52.3737510
  45.6079880  22.5904210  52.2532440  40.6535740  22.0545880  53.6260070
  41.0752160  21.8885750  54.4691460  40.7786580  21.2446110  53.1315210
  43.1663380  21.0783490  50.8737170  43.6869040  20.3632510  50.5078320
  43.8131780  21.7169360  51.1737680  39.5494640  18.1279110  50.5718230
  39.3483700  17.2646470  50.9331570  39.3786690  18.0412470  49.6339830
  47.0282950  12.9387340  53.1005110  47.3085240  12.0955240  53.4564530
  46.2548680  13.1710450  53.6143860  38.3477440  15.2279730  50.5596110
  38.6503340  15.2347160  49.6515260  39.0872030  14.8777590  51.0563770
  41.5662370  14.1714350  51.5452310  41.2184370  13.4938340  50.9654760
  41.7675140  13.7103860  52.3595700  43.7311410  29.1595100  53.1638910
  44.6262200  29.4980070  53.1857670  43.7629040  28.4374510  52.5363190
  37.3707570  24.5322150  51.3925910  37.8082440  25.0751820  52.0483490
  37.8555300  23.7069100  51.4022250  34.5853370  27.3211180  58.8446170
  34.9156380  26.4532240  58.6124810  35.0144370  27.5269700  59.6751130
  39.1815290  25.6520190  56.5048140  38.8810830  25.5285160  57.4052050
  39.0752780  24.7928780  56.0963870  51.9507210  25.4316590  51.2074820
  51.1200170  25.4993240  51.6782050  52.1279040  26.3220710  50.9041680
  51.4063670  22.1764070  53.7109020  52.1682580  22.7460720  53.8168710
  51.4218040  21.6091270  54.4817330  34.9068010  20.7002000  57.9416680
  34.2516850  20.4313640  57.2976380  35.7445960  20.5906480  57.4918660
  52.4123640  23.0314170  58.5550950  52.7832470  22.2481490  58.1486920
  53.0525570  23.7203270  58.3768250  51.4582840  22.4698440  50.8681540
  51.7331680  23.3777320  50.7400760  51.2693580  22.4060970  51.8043530
  47.8558450  15.4943290  52.1635170  48.2743330  15.3074270  51.3231830
  47.5494510  14.6422340  52.4738100  51.3548180  20.4067430  55.8610970
  50.9791780  19.6395360  55.4292260  50.6251300  20.7890130  56.3485900
  34.1206090  17.9100930  53.8842010  33.2170170  18.1731130  53.7093670
  34.6046710  18.1812100  53.1041970  50.6299140  18.6324920  59.1618210
  51.1536620  18.1387570  58.5308380  51.2158560  18.7675280  59.9065780
  36.6633300  16.9666470  51.7936390  37.3725000  16.5449690  51.3083670
  35.9473240  17.0341700  51.1619740  36.3107460  13.0205800  50.8339040
  37.0335590  13.5614740  51.1520260  36.5831980  12.7469220  49.9580580
  50.1199110  17.8898270  55.1010620  50.6158230  17.6569140  55.8859500
  49.9215180  17.0510110  54.6848260  51.5486270  16.5259220  57.6348300
  51.4385550  16.3715260  58.5730570  52.3093860  15.9980160  57.3923710
  52.4376540  14.3567140  50.8754440  53.3625850  14.2248320  50.6672730
  52.4152330  14.4359960  51.8290890  52.5115030  15.1277800  53.5011150
  51.7166530  15.0622920  54.0304060  52.7158310  16.0628440  53.4896500
  49.4533450  29.1669350  57.4949540  50.0492520  28.8453920  56.8183960
  49.7111600  28.6941170  58.2862810  50.0045660  29.8164650  61.3247270
  49.5448630  30.5680460  60.9505290  49.3758120  29.0971120  61.2662070
  40.4341380  28.1252890  60.4995400  40.9506400  27.5140250  59.9743660
  41.0838760  28.6281670  60.9906410  48.9434960  13.4574680  59.9509980
  49.3843050  13.4019780  59.1031580  48.6742550  14.3732690  60.0220160
  50.8073530  13.0889920  57.9618800  50.7461930  12.1451140  57.8149820
  51.5865560  13.1970010  58.5072260  35.1126280  29.2282280  56.9242750
  34.9448320  28.5952960  57.6224640  34.2460790  29.4341680  56.5736940
  35.7354300  13.0599060  54.4274610  36.4933660  13.1727940  53.8538640
  35.2731470  13.8968260  54.3818040  42.2768110  15.1738330  57.4176920
  41.4642620  14.7995220  57.0772800  42.7809750  14.4183410  57.7198110
  46.7793090  11.8380780  58.6559990  47.3822460  12.4100990  59.1308510
  46.0386080  12.4020220  58.4333890  49.9227690  12.2402340  53.9300270
  50.1178320  13.1385790  54.1967700  49.1357560  12.0089420  54.4233220
  36.7188980  27.9215510  54.3692890  36.1936600  28.3023540  53.6654850
  36.6433560  28.5466280  55.0902600  38.1079450  13.5863110  52.9676580
  38.6372210  12.7992910  52.8384530  38.7407770  14.2654300  53.2012110
  40.3017290  13.3238250  56.0221970  39.6720030  12.6225560  56.1892100
  39.7622430  14.0842380  55.8055130  51.4754300  29.4803050  55.6906830
  51.6506490  28.7940790  55.0467750  50.7775870  30.0050100  55.2983500
  39.3181950  29.8697890  53.2442140  40.0500770  29.5857170  52.6966030
  39.5775620  29.6311170  54.1341520  38.4796740  25.9862620  53.2488470
  37.8505620  26.4547720  53.7974300  38.5944570  25.1411840  53.6834660
  45.9346460  20.0368280  39.3989670  45.8540510  19.1222890  39.1281380
  45.5210880  20.5335350  38.6929380  44.0664500  21.8147300  41.2798940
  43.2906600  21.3347740  41.5697510  44.7177430  21.1352950  41.1055100
  38.0830330  22.1267110  42.1574700  37.2515210  21.8715820  42.5571210
  38.6911310  22.1977880  42.8932620  48.0871930  26.2207490  40.0598070
  47.6253460  25.4494730  40.3885240  48.8997480  26.2473560  40.5650520
  38.0631590  26.1607200  42.3532720  38.3659630  25.2704940  42.1742940
  38.8075180  26.7177420  42.1254970  34.4555290  19.6874650  41.8256790
  35.0271400  18.9196850  41.8260430  34.4556830  19.9863410  40.9163400
  44.3135240  28.5065500  39.6802060  43.6946680  28.9623000  39.1096500
  45.1687020  28.6616960  39.2791760  43.5073490  24.4904490  41.2869100
  43.4381770  23.5494430  41.1258230  44.2693350  24.5805900  41.8591670
  35.6980160  15.0959010  43.6125720  35.5183000  14.1984760  43.8928480
  35.2960240  15.6430880  44.2872670  44.5378660  17.2974870  41.5138030
  44.9143480  16.4246750  41.4011700  44.4398170  17.6333570  40.6228470
  38.6683670  15.6700500  36.9755470  38.7750420  16.5704230  37.2824230
  37.7576030  15.6218470  36.6850120  48.3202780  14.7925310  38.4466370
  49.1412400  14.3021880  38.4891850  48.3536860  15.3822970  39.1998210
  36.3166830  17.5919510  42.2208060  36.9976940  17.8557880  42.8395460
  36.0014880  16.7520380  42.5546070  40.5091400  18.6386870  41.3080650
  41.0169620  19.1367840  41.9485670  41.0404640  17.8622070  41.1320010
  52.6102330  16.8092060  45.0110000  51.9054500  17.1973770  44.4925110
  52.8760250  17.5042350  45.6130930  38.7927500  13.2785430  45.5744070
  38.7945940  13.7957820  44.7689970  37.9631810  12.8015610  45.5514000
  45.1798590  23.3904740  37.0733970  44.5615860  23.8554190  36.5096690
  45.6921840  24.0832220  37.4903480  40.0430350  22.9180610  43.7517570
  39.7099730  23.5449530  44.3938640  40.2197030  23.4442490  42.9719240
  48.5564260  16.7325690  41.2193910  47.8519830  17.0210580  41.7997020
  48.9176420  17.5425800  40.8593470  38.4742830  14.9895390  43.5814520
  38.8159640  15.8337440  43.2868390  37.5358640  15.1379130  43.6979860
  39.2549450  24.8861410  45.5666750  39.8723450  25.5612490  45.2851200
  38.3942570  25.2949390  45.4754250  50.1727040  26.3500820  43.4821390
  49.4890560  27.0199930  43.4738060  50.7121330  26.5481470  42.7166250
  51.6251180  16.1780480  41.6103120  50.6776090  16.2119460  41.7418550
  51.9501170  16.9919430  41.9952480  42.1570720  12.4777660  39.9059110
  42.4645700  11.9224550  39.1894610  41.2271420  12.6122120  39.7232100
  47.7085780  28.1944950  42.1966570  47.7212940  27.7907240  41.3288830
  47.1561000  28.9692240  42.0928000  49.0031200  24.9161170  37.2856740
  48.8927530  23.9735500  37.4106160  48.9999450  25.2776810  38.1719500
  47.1071220  23.0974790  43.5249180  47.5240010  22.8834900  42.6902640
  47.8311040  23.3547580  44.0957800  44.5451480  20.5426490  36.6419230
  43.6180760  20.4763870  36.8707700  44.6976300  21.4806620  36.5274470
  44.5320560  16.8143490  33.6386390  43.5924230  16.9757450  33.7238850
  44.8503820  17.5329170  33.0922380  51.0533320  21.4962010  43.6165420
  50.2251950  21.5655100  43.1415550  51.6483800  22.0816320  43.1481250
  48.5748770  22.1046790  37.1454480  47.9561190  21.7666340  36.4980780
  48.5573220  21.4606550  37.8533670  48.0175330  18.2831330  44.5620290
  47.6046510  19.1085040  44.8160280  47.2851280  17.6976370  44.3696650
  40.1508120  21.0691230  39.4238960  39.7465120  20.3568480  38.9284860
  40.2371240  20.7244470  40.3127000  40.6189820  24.7558790  41.5878170
  40.3218110  24.1504260  40.9085950  41.5689640  24.7936100  41.4767530
  38.8636740  17.8434440  43.2038000  39.4151330  17.9529780  42.4291250
  39.3780250  18.2172040  43.9193230  48.7075430  28.3290660  45.2501270
  48.2305990  29.1362850  45.0573880  48.0237220  27.6768990  45.4027480
  39.7108250  24.4940480  48.2385970  38.8136780  24.7180450  48.4859370
  39.7361120  24.6175420  47.2897370  46.7513470  21.3433600  34.1527230
  47.1906750  20.5056030  34.0065050  47.4641890  21.9763000  34.2391370
  38.5379470  21.3653800  46.8143340  38.3987240  22.2376600  47.1830740
  37.6560830  21.0226610  46.6691280  44.8608850  26.2829670  38.1208470
  45.3004760  27.0254000  37.7063860  44.7995740  26.5256240  39.0447430
  40.3359820  27.3075500  49.0228490  40.3075250  27.7118450  48.1556920
  40.1724790  26.3785860  48.8600090  50.3330610  12.5976410  32.4668270
  50.0203270  12.6903240  33.3667340  51.0943080  13.1757440  32.4165700
  52.2874640  28.0902600  50.3192660  52.7634360  28.5685490  50.9981740
  52.9081800  28.0220090  49.5938160  34.4898120  23.1351350  42.7314250
  34.5678540  23.2700120  41.7869970  35.1039800  22.4267240  42.9242370
  51.6907890  25.2815450  47.4792670  51.8170950  25.0427330  46.5609850
  51.7329270  24.4499990  47.9514750  45.5524630  28.9843450  46.0487480
  46.0669300  28.8951460  46.8509910  44.7093710  29.3303150  46.3415390
  47.5279030  29.2698790  35.4771480  47.3680170  28.9801730  36.3753310
  47.3625740  28.4938920  34.9416710  47.2305160  26.7786350  34.0369480
  46.5370320  26.7763640  33.3771760  47.9728020  26.3545670  33.6063650
  46.7955090  28.4049060  38.1117970  47.2512040  27.6238440  38.4256590
  47.1347610  29.1155880  38.6559150  51.5431900  17.3347910  48.4442410
  50.9276170  17.8427580  47.9157870  51.2228320  16.4346240  48.3868350
  34.5457640  24.1765520  45.2708710  34.7088680  23.7070880  44.4528080
  35.0110090  23.6689080  45.9357550  39.3176410  13.3071280  40.3069280
  38.8744560  14.0880820  39.9753800  39.8761400  13.6301170  41.0140220
  43.6046220  16.1739800  45.9104600  43.1425590  16.3822820  46.7224540
  43.2024330  15.3599150  45.6075270  48.6050730  17.3948750  47.0401260
  47.7544320  17.0954500  47.3610330  48.4452520  17.6390760  46.1285080
  45.7000440  18.8950500  49.1400050  46.0253850  18.0614250  48.8002280
  46.4880770  19.4179020  49.2878380  42.4335230  12.9281980  35.1875110
  41.8089410  12.9241850  35.9128420  42.3465350  12.0612940  34.7911080
  41.3552310  13.8518610  42.1658880  41.6524640  14.7581440  42.0850900
  41.9037870  13.3637390  41.5518450  39.1090630  18.4304850  38.0350530
  38.8831550  18.2142020  38.9397150  38.3283160  18.8633310  37.6896500
  46.3388390  18.4368220  36.6341180  45.7397280  19.1604020  36.4504800
  46.8868000  18.3745000  35.8517630  41.5489840  19.3290430  48.7010800
  41.4533440  18.3885160  48.5511200  42.3921820  19.5505500  48.3058870
  44.9453260  17.0731760  38.6644460  45.3382830  17.3903960  37.8513150
  45.3070110  16.1943640  38.7788980  36.6800380  15.7404100  46.8544580
  36.2863770  16.5879310  47.0617360  35.9918780  15.1030470  47.0453220
  43.2545430  15.8239070  49.9241320  42.5643750  15.6311270  50.5587410
  43.9977730  16.1073710  50.4565620  33.9817430  13.6632560  40.8874660
  33.6930480  14.2335420  41.5999640  34.7263190  13.1837010  41.2505890
  45.5308400  19.6637510  42.7595240  44.7989520  20.1724320  43.1085340
  45.1332740  18.8467490  42.4584020  41.9685790  16.3391710  41.1647730
  41.9721850  15.8981660  40.3152270  42.8636910  16.6609040  41.2719550
  37.8188170  16.2218200  40.1241940  37.4788220  16.6993430  40.8808990
  37.0565490  15.7683320  39.7643040  42.0305940  17.3403790  34.1554490
  42.1518760  17.2990270  35.1040310  41.6454450  18.2027940  34.0001220
  45.9934310  15.1171190  42.1718180  46.0107050  15.5679840  43.0160030
  45.7449890  14.2176830  42.3851620  49.4205060  12.5303370  48.0104560
  49.7450830  11.7993030  48.5362540  49.4561570  12.2117010  47.1085550
  36.1196620  23.5516950  47.4304520  35.7351410  22.9110620  48.0287480
  36.4308810  24.2553070  47.9999250  42.2693760  20.3993490  42.9113140
  42.6363890  19.9252060  43.6574480  42.0798820  21.2735060  43.2521480
  35.1334250  15.1437180  39.0406610  34.8481170  14.7792850  39.8785230
  35.0713110  14.4117640  38.4269750  40.0593130  19.4402130  45.2297350
  39.7550200  20.3194110  45.4547710  41.0139590  19.5001920  45.2654790
  49.3462900  22.6428480  41.6190590  50.0662020  23.1383770  41.2286700
  49.1444720  21.9646370  40.9744460  44.8072840  14.0366440  35.7619980
  43.9937450  13.5379610  35.6865290  44.6134790  14.8764690  35.3456330
  44.7281700  22.7137540  47.5059590  44.6619010  21.7933210  47.2517180
  44.0986840  22.8112980  48.2204230  47.5221230  18.4086090  34.0582140
  48.4100850  18.7203320  33.8833480  47.4926320  17.5358340  33.6662720
  38.6312320  23.3143500  39.4643010  39.1490990  22.5111760  39.4099900
  38.1796340  23.2522640  40.3059840  36.1156860  20.2804870  46.3768710
  35.7571800  20.9458720  46.9642050  35.8211420  19.4488420  46.7481330
  39.3169980  20.7389110  49.2608260  39.0170120  20.8846290  48.3636080
  40.0881220  20.1794400  49.1681650  44.6598430  25.5358110  47.2563390
  44.6742970  24.6039070  47.0382300  43.9523530  25.6217870  47.8953160
  49.7935500  19.7197930  33.5262000  49.7099220  20.1512150  32.6758440
  50.5129690  20.1796280  33.9588820  50.8709640  22.1765450  46.6031970
  50.1457830  22.7694230  46.4061360  51.3985100  22.1688990  45.8045340
  50.8222750  26.5740190  36.2544130  50.1798910  25.9195810  36.5287850
  50.4353410  26.9795280  35.4784800  46.4009230  23.9025620  40.1015820
  46.7533050  23.3053750  39.4417190  45.5171560  23.5769850  40.2724070
  41.7899720  21.6669340  37.1211590  42.2462500  22.4774590  37.3471780
  41.4387930  21.3492480  37.9530080  44.0932330  27.1775680  44.3503890
  44.7374550  27.3835060  45.0277310  44.4561770  26.4164080  43.8974740
  37.6911500  12.0106990  37.5934110  37.5626130  12.0024890  38.5419030
  36.8673520  12.3490080  37.2425120  45.3664410  25.1808030  43.0681340
  46.0086640  24.4801190  43.1813510  45.8913760  25.9606470  42.8878230
  49.2120130  25.4656650  32.7920480  48.9857710  24.7487090  33.3845120
  48.8216330  25.2169090  31.9542230  47.1402030  25.9802930  46.2717400
  47.4758270  26.5669620  46.9495320  46.2202370  25.8495640  46.5015190
  34.6905430  13.7698110  47.0540810  33.9763950  13.9695030  47.6593420
  35.1100470  12.9937680  47.4255610  48.7936380  23.3828590  34.4534640
  48.5058080  23.8441280  35.2412520  49.5888550  22.9226360  34.7218860
  34.9778020  27.7578370  48.0407340  35.0869140  26.8173110  47.9002730
  34.3258580  28.0233120  47.3921070  42.9690610  26.0294260  49.4405460
  42.6487480  25.3103500  49.9851150  42.2948970  26.7049330  49.5141520
  46.1844210  16.2620420  44.8042260  46.5525030  15.4415630  45.1321830
  45.3242410  16.3222310  45.2197910  49.5506240  15.2177360  35.6129820
  48.9219400  15.3223030  34.8988050  49.0558160  15.4374140  36.4023700
  41.5190270  17.4963310  37.0287700  40.8106420  17.9649650  37.4701310
  41.8034750  16.8385320  37.6632890  43.1446200  18.9160010  45.0280230
  43.6431450  19.3905830  45.6932080  43.2869150  17.9923530  45.2350260
  45.5505700  14.2213970  38.4683490  45.4273480  14.2400100  37.5193000
  46.4990260  14.2692910  38.5881890  39.7225290  15.8048390  34.4038410
  40.5715820  16.2418540  34.3378600  39.3556560  16.1168650  35.2310470
  50.3513060  15.1327970  45.8708620  49.8486660  15.8733370  46.2102430
  51.1669720  15.5211970  45.5545410  48.6435070  20.3761150  39.3169980
  47.7025210  20.3911380  39.4917670  48.9579140  19.5897110  39.7630280
  50.6460650  27.5470000  40.9924240  50.7708070  28.3701170  41.4648050
  51.5126210  27.3360730  40.6448390  38.1178180  29.6401210  40.6641370
  38.8540660  29.0916670  40.9349940  38.5019100  30.5057220  40.5247360
  37.1236460  28.8247280  49.8526950  37.9249190  29.1459330  50.2662350
  36.6088280  28.4642860  50.5746860  45.9601090  24.9327150  49.8002360
  45.3539250  24.9558750  49.0598110  45.6555200  24.2010190  50.3369610
  47.3901460  28.6607440  48.4111770  48.3423210  28.5765460  48.3612010
  47.2429680  29.3249150  49.0845560  50.2810660  28.0401650  33.9103680
  49.9952170  27.6266790  33.0957860  50.0830210  28.9689360  33.7904200
  34.8434270  21.3120740  48.7963000  35.3473290  20.7328020  49.3679230
  34.1041690  21.5960970  49.3339370  41.8972210  22.7191730  48.3298520
  41.1317880  23.2876730  48.2453190  42.0788170  22.4267940  47.4366750
  44.9860620  23.0954960  32.9551280  44.4370720  23.5424260  33.5994020
  45.6079880  22.5904210  33.4788950  49.0395560  24.4497060  48.8873540
  49.7805030  24.7872820  48.3841000  48.2768240  24.6189120  48.3343310
  36.8757350  19.4550330  49.6913070  36.9162690  19.1564200  50.5998300
  37.7302850  19.8557940  49.5320590  38.8163160  18.0342430  47.6587560
  38.2859620  17.5433380  47.0310900  39.4851230  18.4626630  47.1245490
  43.1663380  21.0783490  32.0993680  43.6869040  20.3632510  31.7334830
  43.8131780  21.7169360  32.3994190  47.7141220  22.5011890  47.4228750
  48.1282240  22.6556970  48.2719170  46.7792220  22.6267110  47.5854530
  48.1863390  19.8408050  49.4267900  48.7684160  19.0860370  49.3388380
  48.3625160  20.3715490  48.6499380  39.3035460  15.0004800  47.7384850
  39.2092330  14.3825550  47.0135720  38.7232850  15.7271090  47.5114760
  42.0696900  13.5578040  44.7712240  41.6214200  13.5802300  43.9257790
  41.4362100  13.1597060  45.3682540  42.4756450  22.4532370  45.3924680
  42.8944560  23.2965100  45.2200920  41.5565080  22.5904410  45.1631460
  44.8120350  20.1848550  46.7762520  44.9316560  19.5889690  47.5157360
  45.6714350  20.2218240  46.3563820  47.1508250  20.7385740  45.3525030
  46.6243470  21.2628360  44.7490170  47.4939590  21.3713130  45.9834760
  40.3263870  28.7585380  46.5082410  39.7884960  29.4831440  46.1891110
  40.5797830  28.2815720  45.7179750  41.5789120  16.7269900  48.0338340
  42.1688810  16.4185750  48.7216160  40.7609360  16.2549650  48.1898240
  46.3982550  16.3435710  48.2671360  45.7098070  15.6817250  48.2021350
  47.1188570  15.8973980  48.7119820  47.0282950  12.9387340  34.3261620
  47.3085240  12.0955240  34.6821040  46.2548680  13.1710450  34.8400370
  38.3477440  15.2279730  31.7852620  38.6503340  15.2347160  30.8771770
  39.0872030  14.8777590  32.2820280  43.1826080  29.9936590  46.7669060
  43.1084780  30.8971730  47.0741430  42.2804920  29.6748490  46.7391130
  41.5662370  14.1714350  32.7708820  41.2184370  13.4938340  32.1911270
  41.7675140  13.7103860  33.5852210  34.5853370  27.3211180  40.0702680
  34.9156380  26.4532240  39.8381320  35.0144370  27.5269700  40.9007640
  35.0743580  28.1881770  42.8084310  34.6374570  28.3682570  43.6408460
  35.6421260  28.9456390  42.6666030  50.7105760  27.6898770  47.0961620
  50.1107750  27.7491330  46.3525540  50.8399660  26.7503750  47.2258470
  51.9507210  25.4316590  32.4331330  51.1200170  25.4993240  32.9038560
  52.1279040  26.3220710  32.1298190  51.4063670  22.1764070  34.9365530
  52.1682580  22.7460720  35.0425220  51.4218040  21.6091270  35.7073840
  34.9068010  20.7002000  39.1673190  34.2516850  20.4313640  38.5232890
  35.7445960  20.5906480  38.7175170  52.4123640  23.0314170  39.7807460
  52.7832470  22.2481490  39.3743430  53.0525570  23.7203270  39.6024760
  49.3957400  24.4150750  45.1937780  48.5817240  24.8447910  45.4563570
  49.8031600  25.0269160  44.5806830  51.4582840  22.4698440  32.0938050
  51.7331680  23.3777320  31.9657270  51.2693580  22.4060970  33.0300040
  47.8558450  15.4943290  33.3891680  48.2743330  15.3074270  32.5488340
  47.5494510  14.6422340  33.6994610  51.3548180  20.4067430  37.0867480
  50.9791780  19.6395360  36.6548770  50.6251300  20.7890130  37.5742410
  35.9443940  21.0854570  43.7076530  36.3116980  20.9981970  44.5872550
  35.3754760  20.3221120  43.6083390  50.7447800  19.5538950  46.7207000
  50.5133890  19.3251700  45.8204950  51.0052350  20.4738500  46.6751890
  35.4959940  17.9963660  47.6134950  34.6015990  17.9630420  47.9528660
  36.0357490  18.1950450  48.3786200  49.1835870  14.7795380  49.4986700
  50.0606050  14.7878780  49.8820700  49.1956710  14.0426220  48.8879050
  50.6299140  18.6324920  40.3874720  51.1536620  18.1387570  39.7564890
  51.2158560  18.7675280  41.1322290  50.8088860  18.7164790  43.9094270
  49.8591570  18.6828330  44.0239260  50.9901870  19.6264900  43.6744040
  36.3107460  13.0205800  32.0595550  37.0335590  13.5614740  32.3776770
  36.5831980  12.7469220  31.1837090  50.1199110  17.8898270  36.3267130
  50.6158230  17.6569140  37.1116010  49.9215180  17.0510110  35.9104770
  35.9999650  12.2711990  41.9618170  36.6475840  11.7209370  41.5213330
  36.4201490  12.5255140  42.7833980  51.5486270  16.5259220  38.8604810
  51.4385550  16.3715260  39.7987080  52.3093860  15.9980160  38.6180220
  49.8951990  12.4653350  45.3187810  50.5324210  13.0787490  45.6847000
  50.0426880  12.5014010  44.3737040  52.4376540  14.3567140  32.1010950
  53.3625850  14.2248320  31.8929240  52.4152330  14.4359960  33.0547400
  52.5115030  15.1277800  34.7267660  51.7166530  15.0622920  35.2560570
  52.7158310  16.0628440  34.7153010  49.4533450  29.1669350  38.7206050
  50.0492520  28.8453920  38.0440470  49.7111600  28.6941170  39.5119320
  35.7531650  12.4267660  44.7043490  35.4046470  12.8831480  45.4701670
  35.4219350  11.5324790  44.7865920  37.3596020  25.5987260  48.8696680
  37.3165650  25.2280170  49.7511140  37.4907030  26.5364830  49.0098500
  41.0602050  27.1546850  44.4706400  40.8193410  27.4221410  43.5836920
  42.0004690  27.3252580  44.5257260  43.2656470  13.6179540  48.2262910
  43.2045360  14.2101370  48.9758320  44.2056850  13.5105500  48.0813170
  45.9031030  13.2749600  47.8655200  46.5171440  13.5928890  47.2036280
  46.4480590  12.7898190  48.4851060  52.3206210  29.1741230  45.2717040
  51.8264490  29.5710100  44.5544170  51.7119500  28.5490440  45.6654320
  36.4252290  11.9543860  47.9794260  36.9735280  11.7731910  47.2160370
  36.4907600  11.1637970  48.5150570  37.1984050  28.5449510  45.9894460
  36.6044370  28.4134210  46.7284500  37.1907890  27.7087650  45.5236560
  46.6439070  11.8381740  44.1924490  45.7698910  12.1716850  43.9897420
  46.5349820  11.3654920  45.0176360  47.5511050  14.0452610  45.5766210
  47.2224410  13.2304370  45.1967940  48.4993350  14.0022420  45.4531900
  50.0045660  29.8164650  42.5503780  49.5448630  30.5680460  42.1761800
  49.3758120  29.0971120  42.4918580  36.8296280  25.9107890  44.9402500
  36.1030340  25.2913180  44.8728450  36.8905430  26.3048500  44.0700580
  40.4341380  28.1252890  41.7251910  40.9506400  27.5140250  41.2000170
  41.0838760  28.6281670  42.2162920  43.1736880  29.0161380  42.5520890
  43.4614690  28.7615680  41.6753900  43.6860100  28.4638740  43.1426460
  44.3913890  12.7551580  43.1317400  43.6085680  13.2297080  43.4114160
  44.0976820  11.8506410  43.0230580  48.9434960  13.4574680  41.1766490
  49.3843050  13.4019780  40.3288090  48.6742550  14.3732690  41.2476670
  50.8073530  13.0889920  39.1875310  50.7461930  12.1451140  39.0406330
  51.5865560  13.1970010  39.7328770  35.7354300  13.0599060  35.6531120
  36.4933660  13.1727940  35.0795150  35.2731470  13.8968260  35.6074550
  42.2768110  15.1738330  38.6433430  41.4642620  14.7995220  38.3029310
  42.7809750  14.4183410  38.9454620  46.7793090  11.8380780  39.8816500
  47.3822460  12.4100990  40.3565020  46.0386080  12.4020220  39.6590400
  49.9227690  12.2402340  35.1556780  50.1178320  13.1385790  35.4224210
  49.1357560  12.0089420  35.6489730  38.1079450  13.5863110  34.1933090
  38.6372210  12.7992910  34.0641040  38.7407770  14.2654300  34.4268620
  40.3017290  13.3238250  37.2478480  39.6720030  12.6225560  37.4148610
  39.7622430  14.0842380  37.0311640  43.2409240  29.9377480  49.9189090
  44.1676550  29.7021750  49.9625050  43.2259670  30.7649480  49.4375120
  51.4754300  29.4803050  36.9163340  51.6506490  28.7940790  36.2724260
  50.7775870  30.0050100  36.5240010  40.4272850  12.6022230  49.6830970
  40.1457120  13.1055830  48.9191790  40.8092550  11.8043980  49.3173100
  47.0288310  12.0175810  50.2611440  46.9153760  12.3370420  51.1562960
  47.8458050  12.4188320  49.9648720  49.8086800  29.1647340  49.7430130
  50.6012120  28.6696570  49.5356090  50.1019950  29.8437480  50.3505740
  45.9346460  20.0368280  20.6246180  45.8540510  19.1222890  20.3537890
  45.5210880  20.5335350  19.9185890  44.0664500  21.8147300  22.5055450
  43.2906600  21.3347740  22.7954020  44.7177430  21.1352950  22.3311610
  48.0871930  26.2207490  21.2854580  47.6253460  25.4494730  21.6141750
  48.8997480  26.2473560  21.7907030  36.4922280  17.0869000  17.1673600
  35.6038980  17.4284970  17.0653480  36.7763470  16.8869320  16.2754430
  44.3135240  28.5065500  20.9058570  43.6946680  28.9623000  20.3353010
  45.1687020  28.6616960  20.5048270  43.5073490  24.4904490  22.5125610
  43.4381770  23.5494430  22.3514740  44.2693350  24.5805900  23.0848180
  35.6980160  15.0959010  24.8382230  35.5183000  14.1984760  25.1184990
  35.2960240  15.6430880  25.5129180  44.5378660  17.2974870  22.7394540
  44.9143480  16.4246750  22.6268210  44.4398170  17.6333570  21.8484980
  38.6683670  15.6700500  18.2011980  38.7750420  16.5704230  18.5080740
  37.7576030  15.6218470  17.9106630  48.3202780  14.7925310  19.6722880
  49.1412400  14.3021880  19.7148360  48.3536860  15.3822970  20.4254720
  36.3166830  17.5919510  23.4464570  36.9976940  17.8557880  24.0651970
  36.0014880  16.7520380  23.7802580  40.5091400  18.6386870  22.5337160
  41.0169620  19.1367840  23.1742180  41.0404640  17.8622070  22.3576520
  52.6102330  16.8092060  26.2366510  51.9054500  17.1973770  25.7181620
  52.8760250  17.5042350  26.8387440  38.7927500  13.2785430  26.8000580
  38.7945940  13.7957820  25.9946480  37.9631810  12.8015610  26.7770510
  45.1798590  23.3904740  18.2990480  44.5615860  23.8554190  17.7353200
  45.6921840  24.0832220  18.7159990  48.5564260  16.7325690  22.4450420
  47.8519830  17.0210580  23.0253530  48.9176420  17.5425800  22.0849980
  38.4742830  14.9895390  24.8071030  38.8159640  15.8337440  24.5124900
  37.5358640  15.1379130  24.9236370  34.5481790  24.0761270  15.6730110
  34.1709770  24.5648370  14.9415010  34.8054860  24.7486550  16.3036640
  50.1727040  26.3500820  24.7077900  49.4890560  27.0199930  24.6994570
  50.7121330  26.5481470  23.9422760  51.6251180  16.1780480  22.8359630
  50.6776090  16.2119460  22.9675060  51.9501170  16.9919430  23.2208990
  42.1570720  12.4777660  21.1315620  42.4645700  11.9224550  20.4151120
  41.2271420  12.6122120  20.9488610  47.7085780  28.1944950  23.4223080
  47.7212940  27.7907240  22.5545340  47.1561000  28.9692240  23.3184510
  49.0031200  24.9161170  18.5113250  48.8927530  23.9735500  18.6362670
  48.9999450  25.2776810  19.3976010  47.1071220  23.0974790  24.7505690
  47.5240010  22.8834900  23.9159150  47.8311040  23.3547580  25.3214310
  44.5451480  20.5426490  17.8675740  43.6180760  20.4763870  18.0964210
  44.6976300  21.4806620  17.7530980  44.5320560  16.8143490  14.8642900
  43.5924230  16.9757450  14.9495360  44.8503820  17.5329170  14.3178890
  51.0533320  21.4962010  24.8421930  50.2251950  21.5655100  24.3672060
  51.6483800  22.0816320  24.3737760  48.5748770  22.1046790  18.3710990
  47.9561190  21.7666340  17.7237290  48.5573220  21.4606550  19.0790180
  48.0175330  18.2831330  25.7876800  47.6046510  19.1085040  26.0416790
  47.2851280  17.6976370  25.5953160  40.1508120  21.0691230  20.6495470
  39.7465120  20.3568480  20.1541370  40.2371240  20.7244470  21.5383510
  38.8636740  17.8434440  24.4294510  39.4151330  17.9529780  23.6547760
  39.3780250  18.2172040  25.1449740  48.7075430  28.3290660  26.4757780
  48.2305990  29.1362850  26.2830390  48.0237220  27.6768990  26.6283990
  46.7513470  21.3433600  15.3783740  47.1906750  20.5056030  15.2321560
  47.4641890  21.9763000  15.4647880  44.8608850  26.2829670  19.3464980
  45.3004760  27.0254000  18.9320370  44.7995740  26.5256240  20.2703940
  40.3359820  27.3075500  30.2485000  40.3075250  27.7118450  29.3813430
  40.1724790  26.3785860  30.0856600  50.3330610  12.5976410  13.6924780
  50.0203270  12.6903240  14.5923850  51.0943080  13.1757440  13.6422210
  52.2874640  28.0902600  31.5449170  52.7634360  28.5685490  32.2238250
  52.9081800  28.0220090  30.8194670  51.6907890  25.2815450  28.7049180
  51.8170950  25.0427330  27.7866360  51.7329270  24.4499990  29.1771260
  45.5524630  28.9843450  27.2743990  46.0669300  28.8951460  28.0766420
  44.7093710  29.3303150  27.5671900  47.5279030  29.2698790  16.7027990
  47.3680170  28.9801730  17.6009820  47.3625740  28.4938920  16.1673220
  40.0067410  29.0497320  18.4799610  39.8309890  28.1332860  18.2667410
  39.1523150  29.4084610  18.7197410  47.2305160  26.7786350  15.2625990
  46.5370320  26.7763640  14.6028270  47.9728020  26.3545670  14.8320160
  46.7955090  28.4049060  19.3374480  47.2512040  27.6238440  19.6513100
  47.1347610  29.1155880  19.8815660  51.5431900  17.3347910  29.6698920
  50.9276170  17.8427580  29.1414380  51.2228320  16.4346240  29.6124860
  39.3176410  13.3071280  21.5325790  38.8744560  14.0880820  21.2010310
  39.8761400  13.6301170  22.2396730  43.6046220  16.1739800  27.1361110
  43.1425590  16.3822820  27.9481050  43.2024330  15.3599150  26.8331780
  48.6050730  17.3948750  28.2657770  47.7544320  17.0954500  28.5866840
  48.4452520  17.6390760  27.3541590  45.7000440  18.8950500  30.3656560
  46.0253850  18.0614250  30.0258790  46.4880770  19.4179020  30.5134890
  42.4335230  12.9281980  16.4131620  41.8089410  12.9241850  17.1384930
  42.3465350  12.0612940  16.0167590  41.3552310  13.8518610  23.3915390
  41.6524640  14.7581440  23.3107410  41.9037870  13.3637390  22.7774960
  39.1090630  18.4304850  19.2607040  38.8831550  18.2142020  20.1653660
  38.3283160  18.8633310  18.9153010  46.3388390  18.4368220  17.8597690
  45.7397280  19.1604020  17.6761310  46.8868000  18.3745000  17.0774140
  44.9453260  17.0731760  19.8900970  45.3382830  17.3903960  19.0769660
  45.3070110  16.1943640  20.0045490  36.6800380  15.7404100  28.0801090
  36.2863770  16.5879310  28.2873870  35.9918780  15.1030470  28.2709730
  43.2545430  15.8239070  31.1497830  42.5643750  15.6311270  31.7843920
  43.9977730  16.1073710  31.6822130  33.9817430  13.6632560  22.1131170
  33.6930480  14.2335420  22.8256150  34.7263190  13.1837010  22.4762400
  34.1687660  17.6052680  13.3233890  34.0862330  18.5483440  13.4648880
  33.8170720  17.4627590  12.4446240  45.5308400  19.6637510  23.9851750
  44.7989520  20.1724320  24.3341850  45.1332740  18.8467490  23.6840530
  41.9685790  16.3391710  22.3904240  41.9721850  15.8981660  21.5408780
  42.8636910  16.6609040  22.4976060  37.8188170  16.2218200  21.3498450
  37.4788220  16.6993430  22.1065500  37.0565490  15.7683320  20.9899550
  42.0305940  17.3403790  15.3811000  42.1518760  17.2990270  16.3296820
  41.6454450  18.2027940  15.2257730  45.9934310  15.1171190  23.3974690
  46.0107050  15.5679840  24.2416540  45.7449890  14.2176830  23.6108130
  41.0427440  19.6504930  14.7794300  40.4744340  19.2023180  14.1530210
  41.7516440  20.0097710  14.2459450  49.4205060  12.5303370  29.2361070
  49.7450830  11.7993030  29.7619050  49.4561570  12.2117010  28.3342060
  42.2693760  20.3993490  24.1369650  42.6363890  19.9252060  24.8830990
  42.0798820  21.2735060  24.4777990  35.1334250  15.1437180  20.2663120
  34.8481170  14.7792850  21.1041740  35.0713110  14.4117640  19.6526260
  40.0593130  19.4402130  26.4553860  39.7550200  20.3194110  26.6804220
  41.0139590  19.5001920  26.4911300  38.5874920  23.6463120  17.0520710
  37.8137180  23.1060740  16.8919430  39.3169550  23.1269730  16.7138470
  49.3462900  22.6428480  22.8447100  50.0662020  23.1383770  22.4543210
  49.1444720  21.9646370  22.2000970  44.8072840  14.0366440  16.9876490
  43.9937450  13.5379610  16.9121800  44.6134790  14.8764690  16.5712840
  44.7281700  22.7137540  28.7316100  44.6619010  21.7933210  28.4773690
  44.0986840  22.8112980  29.4460740  47.5221230  18.4086090  15.2838650
  48.4100850  18.7203320  15.1089990  47.4926320  17.5358340  14.8919230
  43.5181820  24.5809780  15.9626820  43.8597520  25.3252010  15.4670140
  42.6894530  24.8940900  16.3251650  44.6598430  25.5358110  28.4819900
  44.6742970  24.6039070  28.2638810  43.9523530  25.6217870  29.1209670
  49.7935500  19.7197930  14.7518510  49.7099220  20.1512150  13.9014950
  50.5129690  20.1796280  15.1845330  50.8709640  22.1765450  27.8288480
  50.1457830  22.7694230  27.6317870  51.3985100  22.1688990  27.0301850
  50.8222750  26.5740190  17.4800640  50.1798910  25.9195810  17.7544360
  50.4353410  26.9795280  16.7041310  46.4009230  23.9025620  21.3272330
  46.7533050  23.3053750  20.6673700  45.5171560  23.5769850  21.4980580
  42.4872510  24.6623310  18.7342740  43.1743640  25.2092520  19.1150330
  41.7004930  25.2064040  18.7692350  34.6264910  20.2796130  14.2259820
  35.4959760  20.5620930  14.5095740  34.1355230  21.0932000  14.1108630
  41.7899720  21.6669340  18.3468100  42.2462500  22.4774590  18.5728290
  41.4387930  21.3492480  19.1786590  44.0932330  27.1775680  25.5760400
  44.7374550  27.3835060  26.2533820  44.4561770  26.4164080  25.1231250
  37.6911500  12.0106990  18.8190620  37.5626130  12.0024890  19.7675540
  36.8673520  12.3490080  18.4681630  45.3664410  25.1808030  24.2937850
  46.0086640  24.4801190  24.4070020  45.8913760  25.9606470  24.1134740
  49.2120130  25.4656650  14.0176990  48.9857710  24.7487090  14.6101630
  48.8216330  25.2169090  13.1798740  47.1402030  25.9802930  27.4973910
  47.4758270  26.5669620  28.1751830  46.2202370  25.8495640  27.7271700
  34.9936160  29.4923510  14.7921450  35.3533800  30.0912850  14.1378720
  34.8528500  30.0383400  15.5656480  34.6905430  13.7698110  28.2797320
  33.9763950  13.9695030  28.8849930  35.1100470  12.9937680  28.6512120
  48.7936380  23.3828590  15.6791150  48.5058080  23.8441280  16.4669030
  49.5888550  22.9226360  15.9475370  42.9690610  26.0294260  30.6661970
  42.6487480  25.3103500  31.2107660  42.2948970  26.7049330  30.7398030
  41.0104780  26.8754710  15.6095120  41.0014880  27.6084400  14.9939630
  40.0903140  26.6286290  15.7022080  36.6111420  22.0969600  16.3541880
  36.0039370  22.8368500  16.3637180  37.0860770  22.1868960  15.5280080
  46.1844210  16.2620420  26.0298770  46.5525030  15.4415630  26.3578340
  45.3242410  16.3222310  26.4454420  49.5506240  15.2177360  16.8386330
  48.9219400  15.3223030  16.1244560  49.0558160  15.4374140  17.6280210
  43.9964380  26.9382950  14.2720310  44.0976360  26.7346940  13.3422290
  43.0966120  26.6841230  14.4768090  41.5190270  17.4963310  18.2544210
  40.8106420  17.9649650  18.6957820  41.8034750  16.8385320  18.8889400
  43.1446200  18.9160010  26.2536740  43.6431450  19.3905830  26.9188590
  43.2869150  17.9923530  26.4606770  45.5505700  14.2213970  19.6940000
  45.4273480  14.2400100  18.7449510  46.4990260  14.2692910  19.8138400
  42.6382490  29.4569270  18.9667980  42.8923990  29.4190660  18.0447350
  41.6894970  29.3302600  18.9596230  39.7225290  15.8048390  15.6294920
  40.5715820  16.2418540  15.5635110  39.3556560  16.1168650  16.4566980
  50.3513060  15.1327970  27.0965130  49.8486660  15.8733370  27.4358940
  51.1669720  15.5211970  26.7801920  48.6435070  20.3761150  20.5426490
  47.7025210  20.3911380  20.7174180  48.9579140  19.5897110  20.9886790
  38.6216710  22.0580750  14.1030450  39.3879980  21.9462110  14.6655880
  38.6991400  21.3618720  13.4507220  37.3163470  19.4905820  14.7863340
  37.3967060  18.5433330  14.8980740  38.2083220  19.8212700  14.8924000
  50.6460650  27.5470000  22.2180750  50.7708070  28.3701170  22.6904560
  51.5126210  27.3360730  21.8704900  38.1178180  29.6401210  21.8897880
  38.8540660  29.0916670  22.1606450  38.5019100  30.5057220  21.7503870
  35.0023660  25.7074780  17.7639390  34.0763440  25.9495920  17.7544800
  35.4680090  26.5349040  17.6424140  41.2280490  28.8131520  13.7123450
  42.0209100  29.1020350  13.2605240  40.7084840  28.3823690  13.0335930
  45.9601090  24.9327150  31.0258870  45.3539250  24.9558750  30.2854620
  45.6555200  24.2010190  31.5626120  47.3901460  28.6607440  29.6368280
  48.3423210  28.5765460  29.5868520  47.2429680  29.3249150  30.3102070
  50.2810660  28.0401650  15.1360190  49.9952170  27.6266790  14.3214370
  50.0830210  28.9689360  15.0160710  41.7457890  24.0334930  13.5765800
  41.6408530  23.4187280  14.3027180  41.5782110  23.5100820  12.7928810
  44.9860620  23.0954960  14.1807790  44.4370720  23.5424260  14.8250530
  45.6079880  22.5904210  14.7045460  49.0395560  24.4497060  30.1130050
  49.7805030  24.7872820  29.6097510  48.2768240  24.6189120  29.5599820
  40.6535740  22.0545880  16.0773090  41.0752160  21.8885750  16.9204480
  40.7786580  21.2446110  15.5828230  43.1663380  21.0783490  13.3250190
  43.6869040  20.3632510  12.9591340  43.8131780  21.7169360  13.6250700
  47.7141220  22.5011890  28.6485260  48.1282240  22.6556970  29.4975680
  46.7792220  22.6267110  28.8111040  48.1863390  19.8408050  30.6524410
  48.7684160  19.0860370  30.5644890  48.3625160  20.3715490  29.8755890
  39.3035460  15.0004800  28.9641360  39.2092330  14.3825550  28.2392230
  38.7232850  15.7271090  28.7371270  42.0696900  13.5578040  25.9968750
  41.6214200  13.5802300  25.1514300  41.4362100  13.1597060  26.5939050
  42.4756450  22.4532370  26.6181190  42.8944560  23.2965100  26.4457430
  41.5565080  22.5904410  26.3887970  44.8120350  20.1848550  28.0019030
  44.9316560  19.5889690  28.7413870  45.6714350  20.2218240  27.5820330
  47.1508250  20.7385740  26.5781540  46.6243470  21.2628360  25.9746680
  47.4939590  21.3713130  27.2091270  39.5494640  18.1279110  13.0231250
  39.3483700  17.2646470  13.3844590  39.3786690  18.0412470  12.0852850
  40.3263870  28.7585380  27.7338920  39.7884960  29.4831440  27.4147620
  40.5797830  28.2815720  26.9436260  41.5789120  16.7269900  29.2594850
  42.1688810  16.4185750  29.9472670  40.7609360  16.2549650  29.4154750
  46.3982550  16.3435710  29.4927870  45.7098070  15.6817250  29.4277860
  47.1188570  15.8973980  29.9376330  47.0282950  12.9387340  15.5518130
  47.3085240  12.0955240  15.9077550  46.2548680  13.1710450  16.0656880
  38.3477440  15.2279730  13.0109130  38.6503340  15.2347160  12.1028280
  39.0872030  14.8777590  13.5076790  43.1826080  29.9936590  27.9925570
  43.1084780  30.8971730  28.2997940  42.2804920  29.6748490  27.9647640
  41.5662370  14.1714350  13.9965330  41.2184370  13.4938340  13.4167780
  41.7675140  13.7103860  14.8108720  43.7311410  29.1595100  15.6151930
  44.6262200  29.4980070  15.6370690  43.7629040  28.4374510  14.9876210
  37.3707570  24.5322150  13.8438930  37.8082440  25.0751820  14.4996510
  37.8555300  23.7069100  13.8535270  39.1815290  25.6520190  18.9561160
  38.8810830  25.5285160  19.8565070  39.0752780  24.7928780  18.5476890
  50.7105760  27.6898770  28.3218130  50.1107750  27.7491330  27.5782050
  50.8399660  26.7503750  28.4514980  51.9507210  25.4316590  13.6587840
  51.1200170  25.4993240  14.1295070  52.1279040  26.3220710  13.3554700
  51.4063670  22.1764070  16.1622040  52.1682580  22.7460720  16.2681730
  51.4218040  21.6091270  16.9330350  52.4123640  23.0314170  21.0063970
  52.7832470  22.2481490  20.5999940  53.0525570  23.7203270  20.8281270
  49.3957400  24.4150750  26.4194290  48.5817240  24.8447910  26.6820080
  49.8031600  25.0269160  25.8063340  51.4582840  22.4698440  13.3194560
  51.7331680  23.3777320  13.1913780  51.2693580  22.4060970  14.2556550
  47.8558450  15.4943290  14.6148190  48.2743330  15.3074270  13.7744850
  47.5494510  14.6422340  14.9251120  51.3548180  20.4067430  18.3123990
  50.9791780  19.6395360  17.8805280  50.6251300  20.7890130  18.7998920
  50.7447800  19.5538950  27.9463510  50.5133890  19.3251700  27.0461460
  51.0052350  20.4738500  27.9008400  49.1835870  14.7795380  30.7243210
  50.0606050  14.7878780  31.1077210  49.1956710  14.0426220  30.1135560
  34.1206090  17.9100930  16.3355030  33.2170170  18.1731130  16.1606690
  34.6046710  18.1812100  15.5554990  50.6299140  18.6324920  21.6131230
  51.1536620  18.1387570  20.9821400  51.2158560  18.7675280  22.3578800
  50.8088860  18.7164790  25.1350780  49.8591570  18.6828330  25.2495770
  50.9901870  19.6264900  24.9000550  36.6633300  16.9666470  14.2449410
  37.3725000  16.5449690  13.7596690  35.9473240  17.0341700  13.6132760
  36.3107460  13.0205800  13.2852060  37.0335590  13.5614740  13.6033280
  36.5831980  12.7469220  12.4093600  50.1199110  17.8898270  17.5523640
  50.6158230  17.6569140  18.3372520  49.9215180  17.0510110  17.1361280
  35.9999650  12.2711990  23.1874680  36.6475840  11.7209370  22.7469840
  36.4201490  12.5255140  24.0090490  51.5486270  16.5259220  20.0861320
  51.4385550  16.3715260  21.0243590  52.3093860  15.9980160  19.8436730
  49.8951990  12.4653350  26.5444320  50.5324210  13.0787490  26.9103510
  50.0426880  12.5014010  25.5993550  52.4376540  14.3567140  13.3267460
  53.3625850  14.2248320  13.1185750  52.4152330  14.4359960  14.2803910
  52.5115030  15.1277800  15.9524170  51.7166530  15.0622920  16.4817080
  52.7158310  16.0628440  15.9409520  49.4533450  29.1669350  19.9462560
  50.0492520  28.8453920  19.2696980  49.7111600  28.6941170  20.7375830
  35.7531650  12.4267660  25.9300000  35.4046470  12.8831480  26.6958180
  35.4219350  11.5324790  26.0122430  41.0602050  27.1546850  25.6962910
  40.8193410  27.4221410  24.8093430  42.0004690  27.3252580  25.7513770
  43.2656470  13.6179540  29.4519420  43.2045360  14.2101370  30.2014830
  44.2056850  13.5105500  29.3069680  45.9031030  13.2749600  29.0911710
  46.5171440  13.5928890  28.4292790  46.4480590  12.7898190  29.7107570
  52.3206210  29.1741230  26.4973550  51.8264490  29.5710100  25.7800680
  51.7119500  28.5490440  26.8910830  36.4252290  11.9543860  29.2050770
  36.9735280  11.7731910  28.4416880  36.4907600  11.1637970  29.7407080
  37.1984050  28.5449510  27.2150970  36.6044370  28.4134210  27.9541010
  37.1907890  27.7087650  26.7493070  46.6439070  11.8381740  25.4181000
  45.7698910  12.1716850  25.2153930  46.5349820  11.3654920  26.2432870
  47.5511050  14.0452610  26.8022720  47.2224410  13.2304370  26.4224450
  48.4993350  14.0022420  26.6788410  50.0045660  29.8164650  23.7760290
  49.5448630  30.5680460  23.4018310  49.3758120  29.0971120  23.7175090
  40.4341380  28.1252890  22.9508420  40.9506400  27.5140250  22.4256680
  41.0838760  28.6281670  23.4419430  43.1736880  29.0161380  23.7777400
  43.4614690  28.7615680  22.9010410  43.6860100  28.4638740  24.3682970
  44.3913890  12.7551580  24.3573910  43.6085680  13.2297080  24.6370670
  44.0976820  11.8506410  24.2487090  48.9434960  13.4574680  22.4023000
  49.3843050  13.4019780  21.5544600  48.6742550  14.3732690  22.4733180
  50.8073530  13.0889920  20.4131820  50.7461930  12.1451140  20.2662840
  51.5865560  13.1970010  20.9585280  35.1126280  29.2282280  19.3755770
  34.9448320  28.5952960  20.0737660  34.2460790  29.4341680  19.0249960
  35.7354300  13.0599060  16.8787630  36.4933660  13.1727940  16.3051660
  35.2731470  13.8968260  16.8331060  42.2768110  15.1738330  19.8689940
  41.4642620  14.7995220  19.5285820  42.7809750  14.4183410  20.1711130
  46.7793090  11.8380780  21.1073010  47.3822460  12.4100990  21.5821530
  46.0386080  12.4020220  20.8846910  49.9227690  12.2402340  16.3813290
  50.1178320  13.1385790  16.6480720  49.1357560  12.0089420  16.8746240
  36.7188980  27.9215510  16.8205910  36.1936600  28.3023540  16.1167870
  36.6433560  28.5466280  17.5415620  38.1079450  13.5863110  15.4189600
  38.6372210  12.7992910  15.2897550  38.7407770  14.2654300  15.6525130
  40.3017290  13.3238250  18.4734990  39.6720030  12.6225560  18.6405120
  39.7622430  14.0842380  18.2568150  43.2409240  29.9377480  31.1445600
  44.1676550  29.7021750  31.1881560  43.2259670  30.7649480  30.6631630
  51.4754300  29.4803050  18.1419850  51.6506490  28.7940790  17.4980770
  50.7775870  30.0050100  17.7496520  40.4272850  12.6022230  30.9087480
  40.1457120  13.1055830  30.1448300  40.8092550  11.8043980  30.5429610
  39.3181950  29.8697890  15.6955160  40.0500770  29.5857170  15.1479050
  39.5775620  29.6311170  16.5854540  38.4796740  25.9862620  15.7001490
  37.8505620  26.4547720  16.2487320  38.5944570  25.1411840  16.1347680
  47.0288310  12.0175810  31.4867950  46.9153760  12.3370420  32.3819470
  47.8458050  12.4188320  31.1905230  49.8086800  29.1647340  30.9686640
  50.6012120  28.6696570  30.7612600  50.1019950  29.8437480  31.5762250
  44.0664500  21.8147300   3.7311960  43.2906600  21.3347740   4.0210530
  44.7177430  21.1352950   3.5568120  38.0830330  22.1267110   4.6087720
  37.2515210  21.8715820   5.0084230  38.6911310  22.1977880   5.3445640
  48.0871930  26.2207490   2.5111090  47.6253460  25.4494730   2.8398260
  48.8997480  26.2473560   3.0163540  38.0631590  26.1607200   4.8045740
  38.3659630  25.2704940   4.6255960  38.8075180  26.7177420   4.5767990
  34.4555290  19.6874650   4.2769810  35.0271400  18.9196850   4.2773450
  34.4556830  19.9863410   3.3676420  43.5073490  24.4904490   3.7382120
  43.4381770  23.5494430   3.5771250  44.2693350  24.5805900   4.3104690
  35.6980160  15.0959010   6.0638740  35.5183000  14.1984760   6.3441500
  35.2960240  15.6430880   6.7385690  44.5378660  17.2974870   3.9651050
  44.9143480  16.4246750   3.8524720  44.4398170  17.6333570   3.0741490
  36.3166830  17.5919510   4.6721080  36.9976940  17.8557880   5.2908480
  36.0014880  16.7520380   5.0059090  40.5091400  18.6386870   3.7593670
  41.0169620  19.1367840   4.3998690  41.0404640  17.8622070   3.5833030
  52.6102330  16.8092060   7.4623020  51.9054500  17.1973770   6.9438130
  52.8760250  17.5042350   8.0643950  38.7927500  13.2785430   8.0257090
  38.7945940  13.7957820   7.2202990  37.9631810  12.8015610   8.0027020
  40.0430350  22.9180610   6.2030590  39.7099730  23.5449530   6.8451660
  40.2197030  23.4442490   5.4232260  48.5564260  16.7325690   3.6706930
  47.8519830  17.0210580   4.2510040  48.9176420  17.5425800   3.3106490
  38.4742830  14.9895390   6.0327540  38.8159640  15.8337440   5.7381410
  37.5358640  15.1379130   6.1492880  39.2549450  24.8861410   8.0179770
  39.8723450  25.5612490   7.7364220  38.3942570  25.2949390   7.9267270
  50.1727040  26.3500820   5.9334410  49.4890560  27.0199930   5.9251080
  50.7121330  26.5481470   5.1679270  51.6251180  16.1780480   4.0616140
  50.6776090  16.2119460   4.1931570  51.9501170  16.9919430   4.4465500
  47.7085780  28.1944950   4.6479590  47.7212940  27.7907240   3.7801850
  47.1561000  28.9692240   4.5441020  47.1071220  23.0974790   5.9762200
  47.5240010  22.8834900   5.1415660  47.8311040  23.3547580   6.5470820
  51.0533320  21.4962010   6.0678440  50.2251950  21.5655100   5.5928570
  51.6483800  22.0816320   5.5994270  48.0175330  18.2831330   7.0133310
  47.6046510  19.1085040   7.2673300  47.2851280  17.6976370   6.8209670
  40.6189820  24.7558790   4.0391190  40.3218110  24.1504260   3.3598970
  41.5689640  24.7936100   3.9280550  38.8636740  17.8434440   5.6551020
  39.4151330  17.9529780   4.8804270  39.3780250  18.2172040   6.3706250
  48.7075430  28.3290660   7.7014290  48.2305990  29.1362850   7.5086900
  48.0237220  27.6768990   7.8540500  39.7108250  24.4940480  10.6898990
  38.8136780  24.7180450  10.9372390  39.7361120  24.6175420   9.7410390
  38.5379470  21.3653800   9.2656360  38.3987240  22.2376600   9.6343760
  37.6560830  21.0226610   9.1204300  40.3359820  27.3075500  11.4741510
  40.3075250  27.7118450  10.6069940  40.1724790  26.3785860  11.3113110
  52.2874640  28.0902600  12.7705680  52.7634360  28.5685490  13.4494760
  52.9081800  28.0220090  12.0451180  34.4898120  23.1351350   5.1827270
  34.5678540  23.2700120   4.2382990  35.1039800  22.4267240   5.3755390
  51.6907890  25.2815450   9.9305690  51.8170950  25.0427330   9.0122870
  51.7329270  24.4499990  10.4027770  45.5524630  28.9843450   8.5000500
  46.0669300  28.8951460   9.3022930  44.7093710  29.3303150   8.7928410
  51.5431900  17.3347910  10.8955430  50.9276170  17.8427580  10.3670890
  51.2228320  16.4346240  10.8381370  34.5457640  24.1765520   7.7221730
  34.7088680  23.7070880   6.9041100  35.0110090  23.6689080   8.3870570
  39.3176410  13.3071280   2.7582300  38.8744560  14.0880820   2.4266820
  39.8761400  13.6301170   3.4653240  43.6046220  16.1739800   8.3617620
  43.1425590  16.3822820   9.1737560  43.2024330  15.3599150   8.0588290
  48.6050730  17.3948750   9.4914280  47.7544320  17.0954500   9.8123350
  48.4452520  17.6390760   8.5798100  45.7000440  18.8950500  11.5913070
  46.0253850  18.0614250  11.2515300  46.4880770  19.4179020  11.7391400
  41.3552310  13.8518610   4.6171900  41.6524640  14.7581440   4.5363920
  41.9037870  13.3637390   4.0031470  41.5489840  19.3290430  11.1523820
  41.4533440  18.3885160  11.0024220  42.3921820  19.5505500  10.7571890
  36.6800380  15.7404100   9.3057600  36.2863770  16.5879310   9.5130380
  35.9918780  15.1030470   9.4966240  43.2545430  15.8239070  12.3754340
  42.5643750  15.6311270  13.0100430  43.9977730  16.1073710  12.9078640
  33.9817430  13.6632560   3.3387680  33.6930480  14.2335420   4.0512660
  34.7263190  13.1837010   3.7018910  45.5308400  19.6637510   5.2108260
  44.7989520  20.1724320   5.5598360  45.1332740  18.8467490   4.9097040
  41.9685790  16.3391710   3.6160750  41.9721850  15.8981660   2.7665290
  42.8636910  16.6609040   3.7232570  37.8188170  16.2218200   2.5754960
  37.4788220  16.6993430   3.3322010  37.0565490  15.7683320   2.2156060
  45.9934310  15.1171190   4.6231200  46.0107050  15.5679840   5.4673050
  45.7449890  14.2176830   4.8364640  49.4205060  12.5303370  10.4617580
  49.7450830  11.7993030  10.9875560  49.4561570  12.2117010   9.5598570
  36.1196620  23.5516950   9.8817540  35.7351410  22.9110620  10.4800500
  36.4308810  24.2553070  10.4512270  42.2693760  20.3993490   5.3626160
  42.6363890  19.9252060   6.1087500  42.0798820  21.2735060   5.7034500
  40.0593130  19.4402130   7.6810370  39.7550200  20.3194110   7.9060730
  41.0139590  19.5001920   7.7167810  49.3462900  22.6428480   4.0703610
  50.0662020  23.1383770   3.6799720  49.1444720  21.9646370   3.4257480
  44.7281700  22.7137540   9.9572610  44.6619010  21.7933210   9.7030200
  44.0986840  22.8112980  10.6717250  38.6312320  23.3143500   1.9156030
  39.1490990  22.5111760   1.8612920  38.1796340  23.2522640   2.7572860
  36.1156860  20.2804870   8.8281730  35.7571800  20.9458720   9.4155070
  35.8211420  19.4488420   9.1994350  39.3169980  20.7389110  11.7121280
  39.0170120  20.8846290  10.8149100  40.0881220  20.1794400  11.6194670
  44.6598430  25.5358110   9.7076410  44.6742970  24.6039070   9.4895320
  43.9523530  25.6217870  10.3466180  50.8709640  22.1765450   9.0544990
  50.1457830  22.7694230   8.8574380  51.3985100  22.1688990   8.2558360
  46.4009230  23.9025620   2.5528840  46.7533050  23.3053750   1.8930210
  45.5171560  23.5769850   2.7237090  44.0932330  27.1775680   6.8016910
  44.7374550  27.3835060   7.4790330  44.4561770  26.4164080   6.3487760
  45.3664410  25.1808030   5.5194360  46.0086640  24.4801190   5.6326530
  45.8913760  25.9606470   5.3391250  47.1402030  25.9802930   8.7230420
  47.4758270  26.5669620   9.4008340  46.2202370  25.8495640   8.9528210
  34.6905430  13.7698110   9.5053830  33.9763950  13.9695030  10.1106440
  35.1100470  12.9937680   9.8768630  34.9778020  27.7578370  10.4920360
  35.0869140  26.8173110  10.3515750  34.3258580  28.0233120   9.8434090
  42.9690610  26.0294260  11.8918480  42.6487480  25.3103500  12.4364170
  42.2948970  26.7049330  11.9654540  46.1844210  16.2620420   7.2555280
  46.5525030  15.4415630   7.5834850  45.3242410  16.3222310   7.6710930
  43.1446200  18.9160010   7.4793250  43.6431450  19.3905830   8.1445100
  43.2869150  17.9923530   7.6863280  50.3513060  15.1327970   8.3221640
  49.8486660  15.8733370   8.6615450  51.1669720  15.5211970   8.0058430
  48.6435070  20.3761150   1.7683000  47.7025210  20.3911380   1.9430690
  48.9579140  19.5897110   2.2143300  50.6460650  27.5470000   3.4437260
  50.7708070  28.3701170   3.9161070  51.5126210  27.3360730   3.0961410
  38.1178180  29.6401210   3.1154390  38.8540660  29.0916670   3.3862960
  38.5019100  30.5057220   2.9760380  37.1236460  28.8247280  12.3039970
  37.9249190  29.1459330  12.7175370  36.6088280  28.4642860  13.0259880
  45.9601090  24.9327150  12.2515380  45.3539250  24.9558750  11.5111130
  45.6555200  24.2010190  12.7882630  47.3901460  28.6607440  10.8624790
  48.3423210  28.5765460  10.8125030  47.2429680  29.3249150  11.5358580
  34.8434270  21.3120740  11.2476020  35.3473290  20.7328020  11.8192250
  34.1041690  21.5960970  11.7852390  41.8972210  22.7191730  10.7811540
  41.1317880  23.2876730  10.6966210  42.0788170  22.4267940   9.8879770
  49.0395560  24.4497060  11.3386560  49.7805030  24.7872820  10.8354020
  48.2768240  24.6189120  10.7856330  36.8757350  19.4550330  12.1426090
  36.9162690  19.1564200  13.0511320  37.7302850  19.8557940  11.9833610
  38.8163160  18.0342430  10.1100580  38.2859620  17.5433380   9.4823920
  39.4851230  18.4626630   9.5758510  47.7141220  22.5011890   9.8741770
  48.1282240  22.6556970  10.7232190  46.7792220  22.6267110  10.0367550
  48.1863390  19.8408050  11.8780920  48.7684160  19.0860370  11.7901400
  48.3625160  20.3715490  11.1012400  39.3035460  15.0004800  10.1897870
  39.2092330  14.3825550   9.4648740  38.7232850  15.7271090   9.9627780
  42.0696900  13.5578040   7.2225260  41.6214200  13.5802300   6.3770810
  41.4362100  13.1597060   7.8195560  42.4756450  22.4532370   7.8437700
  42.8944560  23.2965100   7.6713940  41.5565080  22.5904410   7.6144480
  44.8120350  20.1848550   9.2275540  44.9316560  19.5889690   9.9670380
  45.6714350  20.2218240   8.8076840  47.1508250  20.7385740   7.8038050
  46.6243470  21.2628360   7.2003190  47.4939590  21.3713130   8.4347780
  40.3263870  28.7585380   8.9595430  39.7884960  29.4831440   8.6404130
  40.5797830  28.2815720   8.1692770  41.5789120  16.7269900  10.4851360
  42.1688810  16.4185750  11.1729180  40.7609360  16.2549650  10.6411260
  46.3982550  16.3435710  10.7184380  45.7098070  15.6817250  10.6534370
  47.1188570  15.8973980  11.1632840  43.1826080  29.9936590   9.2182080
  43.1084780  30.8971730   9.5254450  42.2804920  29.6748490   9.1904150
  34.5853370  27.3211180   2.5215700  34.9156380  26.4532240   2.2894340
  35.0144370  27.5269700   3.3520660  35.0743580  28.1881770   5.2597330
  34.6374570  28.3682570   6.0921480  35.6421260  28.9456390   5.1179050
  50.7105760  27.6898770   9.5474640  50.1107750  27.7491330   8.8038560
  50.8399660  26.7503750   9.6771490  52.4123640  23.0314170   2.2320480
  52.7832470  22.2481490   1.8256450  53.0525570  23.7203270   2.0537780
  49.3957400  24.4150750   7.6450800  48.5817240  24.8447910   7.9076590
  49.8031600  25.0269160   7.0319850  35.9443940  21.0854570   6.1589550
  36.3116980  20.9981970   7.0385570  35.3754760  20.3221120   6.0596410
  50.7447800  19.5538950   9.1720020  50.5133890  19.3251700   8.2717970
  51.0052350  20.4738500   9.1264910  35.4959940  17.9963660  10.0647970
  34.6015990  17.9630420  10.4041680  36.0357490  18.1950450  10.8299220
  49.1835870  14.7795380  11.9499720  50.0606050  14.7878780  12.3333720
  49.1956710  14.0426220  11.3392070  50.6299140  18.6324920   2.8387740
  51.1536620  18.1387570   2.2077910  51.2158560  18.7675280   3.5835310
  50.8088860  18.7164790   6.3607290  49.8591570  18.6828330   6.4752280
  50.9901870  19.6264900   6.1257060  35.9999650  12.2711990   4.4131190
  36.6475840  11.7209370   3.9726350  36.4201490  12.5255140   5.2347000
  49.8951990  12.4653350   7.7700830  50.5324210  13.0787490   8.1360020
  50.0426880  12.5014010   6.8250060  35.7531650  12.4267660   7.1556510
  35.4046470  12.8831480   7.9214690  35.4219350  11.5324790   7.2378940
  37.3596020  25.5987260  11.3209700  37.3165650  25.2280170  12.2024160
  37.4907030  26.5364830  11.4611520  41.0602050  27.1546850   6.9219420
  40.8193410  27.4221410   6.0349940  42.0004690  27.3252580   6.9770280
  43.2656470  13.6179540  10.6775930  43.2045360  14.2101370  11.4271340
  44.2056850  13.5105500  10.5326190  45.9031030  13.2749600  10.3168220
  46.5171440  13.5928890   9.6549300  46.4480590  12.7898190  10.9364080
  52.3206210  29.1741230   7.7230060  51.8264490  29.5710100   7.0057190
  51.7119500  28.5490440   8.1167340  36.4252290  11.9543860  10.4307280
  36.9735280  11.7731910   9.6673390  36.4907600  11.1637970  10.9663590
  37.1984050  28.5449510   8.4407480  36.6044370  28.4134210   9.1797520
  37.1907890  27.7087650   7.9749580  46.6439070  11.8381740   6.6437510
  45.7698910  12.1716850   6.4410440  46.5349820  11.3654920   7.4689380
  47.5511050  14.0452610   8.0279230  47.2224410  13.2304370   7.6480960
  48.4993350  14.0022420   7.9044920  50.0045660  29.8164650   5.0016800
  49.5448630  30.5680460   4.6274820  49.3758120  29.0971120   4.9431600
  36.8296280  25.9107890   7.3915520  36.1030340  25.2913180   7.3241470
  36.8905430  26.3048500   6.5213600  40.4341380  28.1252890   4.1764930
  40.9506400  27.5140250   3.6513190  41.0838760  28.6281670   4.6675940
  43.1736880  29.0161380   5.0033910  43.4614690  28.7615680   4.1266920
  43.6860100  28.4638740   5.5939480  44.3913890  12.7551580   5.5830420
  43.6085680  13.2297080   5.8627180  44.0976820  11.8506410   5.4743600
  48.9434960  13.4574680   3.6279510  49.3843050  13.4019780   2.7801110
  48.6742550  14.3732690   3.6989690  46.7793090  11.8380780   2.3329520
  47.3822460  12.4100990   2.8078040  46.0386080  12.4020220   2.1103420
  43.2409240  29.9377480  12.3702110  44.1676550  29.7021750  12.4138070
  43.2259670  30.7649480  11.8888140  40.4272850  12.6022230  12.1343990
  40.1457120  13.1055830  11.3704810  40.8092550  11.8043980  11.7686120
  47.0288310  12.0175810  12.7124460  46.9153760  12.3370420  13.6075980
  47.8458050  12.4188320  12.4161740  49.8086800  29.1647340  12.1943150
  50.6012120  28.6696570  11.9869110  50.1019950  29.8437480  12.8018760
  44.0664500   3.0403810  60.0542430  43.2906600   2.5604250  60.3441000
  44.7177430   2.3609460  59.8798590  48.0871930   7.4464000  58.8341560
  47.6253460   6.6751240  59.1628730  48.8997480   7.4730070  59.3394010
  38.0631590   7.3863710  61.1276210  38.3659630   6.4961450  60.9486430
  38.8075180   7.9433930  60.8998460  44.3135240   9.7322010  58.4545550
  43.6946680  10.1879510  57.8839990  45.1687020   9.8873470  58.0535250
  43.5073490   5.7161000  60.0612590  43.4381770   4.7750940  59.9001720
  44.2693350   5.8062410  60.6335160  45.1798590   4.6161250  55.8477460
  44.5615860   5.0810700  55.2840180  45.6921840   5.3088730  56.2646970
  34.5481790   5.3017780  53.2217090  34.1709770   5.7904880  52.4901990
  34.8054860   5.9743060  53.8523620  47.7085780   9.4201460  60.9710060
  47.7212940   9.0163750  60.1032320  47.1561000  10.1948750  60.8671490
  49.0031200   6.1417680  56.0600230  48.8927530   5.1992010  56.1849650
  48.9999450   6.5033320  56.9462990  44.5451480   1.7683000  55.4162720
  43.6180760   1.7020380  55.6451190  44.6976300   2.7063130  55.3017960
  48.5748770   3.3303300  55.9197970  47.9561190   2.9922850  55.2724270
  48.5573220   2.6863060  56.6277160  40.1508120   2.2947740  58.1982450
  39.7465120   1.5824990  57.7028350  40.2371240   1.9500980  59.0870490
  40.6189820   5.9815300  60.3621660  40.3218110   5.3760770  59.6829440
  41.5689640   6.0192610  60.2511020  46.7513470   2.5690110  52.9270720
  47.1906750   1.7312540  52.7808540  47.4641890   3.2019510  53.0134860
  44.8608850   7.5086180  56.8951960  45.3004760   8.2510510  56.4807350
  44.7995740   7.7512750  57.8190920  35.7345750   6.0608050  57.9163920
  35.3273830   6.2022640  57.0617520  36.6258760   5.7768210  57.7135130
  47.5279030  10.4955300  54.2514970  47.3680170  10.2058240  55.1496800
  47.3625740   9.7195430  53.7160200  40.0067410  10.2753830  56.0286590
  39.8309890   9.3589370  55.8154390  39.1523150  10.6341120  56.2684390
  47.2305160   8.0042860  52.8112970  46.5370320   8.0020150  52.1515250
  47.9728020   7.5802180  52.3807140  46.7955090   9.6305570  56.8861460
  47.2512040   8.8494950  57.2000080  47.1347610  10.3412390  57.4302640
  38.5874920   4.8719630  54.6007690  37.8137180   4.3317250  54.4406410
  39.3169550   4.3526240  54.2625450  49.3462900   3.8684990  60.3934080
  50.0662020   4.3640280  60.0030190  49.1444720   3.1902880  59.7487950
  38.6312320   4.5400010  58.2386500  39.1490990   3.7368270  58.1843390
  38.1796340   4.4779150  59.0803330  43.5181820   5.8066290  53.5113800
  43.8597520   6.5508520  53.0157120  42.6894530   6.1197410  53.8738630
  50.8222750   7.7996700  55.0287620  50.1798910   7.1452320  55.3031340
  50.4353410   8.2051790  54.2528290  46.4009230   5.1282130  58.8759310
  46.7533050   4.5310260  58.2160680  45.5171560   4.8026360  59.0467560
  42.4872510   5.8879820  56.2829720  43.1743640   6.4349030  56.6637310
  41.7004930   6.4320550  56.3179330  41.7899720   2.8925850  55.8955080
  42.2462500   3.7031100  56.1215270  41.4387930   2.5748990  56.7273570
  49.2120130   6.6913160  51.5663970  48.9857710   5.9743600  52.1588610
  48.8216330   6.4425600  50.7285720  34.9936160  10.7180020  52.3408430
  35.3533800  11.3169360  51.6865700  34.8528500  11.2639910  53.1143460
  48.7936380   4.6085100  53.2278130  48.5058080   5.0697790  54.0156010
  49.5888550   4.1482870  53.4962350  41.0104780   8.1011220  53.1582100
  41.0014880   8.8340910  52.5426610  40.0903140   7.8542800  53.2509060
  36.6111420   3.3226110  53.9028860  36.0039370   4.0625010  53.9124160
  37.0860770   3.4125470  53.0767060  43.9964380   8.1639460  51.8207290
  44.0976360   7.9603450  50.8909270  43.0966120   7.9097740  52.0255070
  42.6382490  10.6825780  56.5154960  42.8923990  10.6447170  55.5934330
  41.6894970  10.5559110  56.5083210  38.6216710   3.2837260  51.6517430
  39.3879980   3.1718620  52.2142860  38.6991400   2.5875230  50.9994200
  50.6460650   8.7726510  59.7667730  50.7708070   9.5957680  60.2391540
  51.5126210   8.5617240  59.4191880  38.1178180  10.8657720  59.4384860
  38.8540660  10.3173180  59.7093430  38.5019100  11.7313730  59.2990850
  35.0023660   6.9331290  55.3126370  34.0763440   7.1752430  55.3031780
  35.4680090   7.7605550  55.1911120  41.2280490  10.0388030  51.2610430
  42.0209100  10.3276860  50.8092220  40.7084840   9.6080200  50.5822910
  50.2810660   9.2658160  52.6847170  49.9952170   8.8523300  51.8701350
  50.0830210  10.1945870  52.5647690  41.7457890   5.2591440  51.1252780
  41.6408530   4.6443790  51.8514160  41.5782110   4.7357330  50.3415790
  44.9860620   4.3211470  51.7294770  44.4370720   4.7680770  52.3737510
  45.6079880   3.8160720  52.2532440  40.6535740   3.2802390  53.6260070
  41.0752160   3.1142260  54.4691460  40.7786580   2.4702620  53.1315210
  43.1663380   2.3040000  50.8737170  43.6869040   1.5889020  50.5078320
  43.8131780   2.9425870  51.1737680  43.7311410  10.3851610  53.1638910
  44.6262200  10.7236580  53.1857670  43.7629040   9.6631020  52.5363190
  37.3707570   5.7578660  51.3925910  37.8082440   6.3008330  52.0483490
  37.8555300   4.9325610  51.4022250  34.5853370   8.5467690  58.8446170
  34.9156380   7.6788750  58.6124810  35.0144370   8.7526210  59.6751130
  39.1815290   6.8776700  56.5048140  38.8810830   6.7541670  57.4052050
  39.0752780   6.0185290  56.0963870  51.9507210   6.6573100  51.2074820
  51.1200170   6.7249750  51.6782050  52.1279040   7.5477220  50.9041680
  51.4063670   3.4020580  53.7109020  52.1682580   3.9717230  53.8168710
  51.4218040   2.8347780  54.4817330  34.9068010   1.9258510  57.9416680
  34.2516850   1.6570150  57.2976380  35.7445960   1.8162990  57.4918660
  52.4123640   4.2570680  58.5550950  52.7832470   3.4738000  58.1486920
  53.0525570   4.9459780  58.3768250  51.4582840   3.6954950  50.8681540
  51.7331680   4.6033830  50.7400760  51.2693580   3.6317480  51.8043530
  49.4533450  10.3925860  57.4949540  50.0492520  10.0710430  56.8183960
  49.7111600   9.9197680  58.2862810  50.0045660  11.0421160  61.3247270
  49.5448630  11.7936970  60.9505290  49.3758120  10.3227630  61.2662070
  40.4341380   9.3509400  60.4995400  40.9506400   8.7396760  59.9743660
  41.0838760   9.8538180  60.9906410  35.1126280  10.4538790  56.9242750
  34.9448320   9.8209470  57.6224640  34.2460790  10.6598190  56.5736940
  36.7188980   9.1472020  54.3692890  36.1936600   9.5280050  53.6654850
  36.6433560   9.7722790  55.0902600  51.4754300  10.7059560  55.6906830
  51.6506490  10.0197300  55.0467750  50.7775870  11.2306610  55.2983500
  39.3181950  11.0954400  53.2442140  40.0500770  10.8113680  52.6966030
  39.5775620  10.8567680  54.1341520  38.4796740   7.2119130  53.2488470
  37.8505620   7.6804230  53.7974300  38.5944570   6.3668350  53.6834660
  44.0664500   3.0403810  41.2798940  43.2906600   2.5604250  41.5697510
  44.7177430   2.3609460  41.1055100  38.0830330   3.3523620  42.1574700
  37.2515210   3.0972330  42.5571210  38.6911310   3.4234390  42.8932620
  48.0871930   7.4464000  40.0598070  47.6253460   6.6751240  40.3885240
  48.8997480   7.4730070  40.5650520  38.0631590   7.3863710  42.3532720
  38.3659630   6.4961450  42.1742940  38.8075180   7.9433930  42.1254970
  44.3135240   9.7322010  39.6802060  43.6946680  10.1879510  39.1096500
  45.1687020   9.8873470  39.2791760  43.5073490   5.7161000  41.2869100
  43.4381770   4.7750940  41.1258230  44.2693350   5.8062410  41.8591670
  45.1798590   4.6161250  37.0733970  44.5615860   5.0810700  36.5096690
  45.6921840   5.3088730  37.4903480  40.0430350   4.1437120  43.7517570
  39.7099730   4.7706040  44.3938640  40.2197030   4.6699000  42.9719240
  39.2549450   6.1117920  45.5666750  39.8723450   6.7869000  45.2851200
  38.3942570   6.5205900  45.4754250  34.5481790   5.3017780  34.4473600
  34.1709770   5.7904880  33.7158500  34.8054860   5.9743060  35.0780130
  50.1727040   7.5757330  43.4821390  49.4890560   8.2456440  43.4738060
  50.7121330   7.7737980  42.7166250  47.7085780   9.4201460  42.1966570
  47.7212940   9.0163750  41.3288830  47.1561000  10.1948750  42.0928000
  49.0031200   6.1417680  37.2856740  48.8927530   5.1992010  37.4106160
  48.9999450   6.5033320  38.1719500  47.1071220   4.3231300  43.5249180
  47.5240010   4.1091410  42.6902640  47.8311040   4.5804090  44.0957800
  44.5451480   1.7683000  36.6419230  43.6180760   1.7020380  36.8707700
  44.6976300   2.7063130  36.5274470  51.0533320   2.7218520  43.6165420
  50.2251950   2.7911610  43.1415550  51.6483800   3.3072830  43.1481250
  48.5748770   3.3303300  37.1454480  47.9561190   2.9922850  36.4980780
  48.5573220   2.6863060  37.8533670  40.1508120   2.2947740  39.4238960
  39.7465120   1.5824990  38.9284860  40.2371240   1.9500980  40.3127000
  40.6189820   5.9815300  41.5878170  40.3218110   5.3760770  40.9085950
  41.5689640   6.0192610  41.4767530  48.7075430   9.5547170  45.2501270
  48.2305990  10.3619360  45.0573880  48.0237220   8.9025500  45.4027480
  39.7108250   5.7196990  48.2385970  38.8136780   5.9436960  48.4859370
  39.7361120   5.8431930  47.2897370  46.7513470   2.5690110  34.1527230
  47.1906750   1.7312540  34.0065050  47.4641890   3.2019510  34.2391370
  38.5379470   2.5910310  46.8143340  38.3987240   3.4633110  47.1830740
  37.6560830   2.2483120  46.6691280  44.8608850   7.5086180  38.1208470
  45.3004760   8.2510510  37.7063860  44.7995740   7.7512750  39.0447430
  40.3359820   8.5332010  49.0228490  40.3075250   8.9374960  48.1556920
  40.1724790   7.6042370  48.8600090  52.2874640   9.3159110  50.3192660
  52.7634360   9.7942000  50.9981740  52.9081800   9.2476600  49.5938160
  34.4898120   4.3607860  42.7314250  34.5678540   4.4956630  41.7869970
  35.1039800   3.6523750  42.9242370  35.7345750   6.0608050  39.1420430
  35.3273830   6.2022640  38.2874030  36.6258760   5.7768210  38.9391640
  51.6907890   6.5071960  47.4792670  51.8170950   6.2683840  46.5609850
  51.7329270   5.6756500  47.9514750  45.5524630  10.2099960  46.0487480
  46.0669300  10.1207970  46.8509910  44.7093710  10.5559660  46.3415390
  47.5279030  10.4955300  35.4771480  47.3680170  10.2058240  36.3753310
  47.3625740   9.7195430  34.9416710  40.0067410  10.2753830  37.2543100
  39.8309890   9.3589370  37.0410900  39.1523150  10.6341120  37.4940900
  47.2305160   8.0042860  34.0369480  46.5370320   8.0020150  33.3771760
  47.9728020   7.5802180  33.6063650  46.7955090   9.6305570  38.1117970
  47.2512040   8.8494950  38.4256590  47.1347610  10.3412390  38.6559150
  34.5457640   5.4022030  45.2708710  34.7088680   4.9327390  44.4528080
  35.0110090   4.8945590  45.9357550  36.1196620   4.7773460  47.4304520
  35.7351410   4.1367130  48.0287480  36.4308810   5.4809580  47.9999250
  38.5874920   4.8719630  35.8264200  37.8137180   4.3317250  35.6662920
  39.3169550   4.3526240  35.4881960  49.3462900   3.8684990  41.6190590
  50.0662020   4.3640280  41.2286700  49.1444720   3.1902880  40.9744460
  44.7281700   3.9394050  47.5059590  44.6619010   3.0189720  47.2517180
  44.0986840   4.0369490  48.2204230  38.6312320   4.5400010  39.4643010
  39.1490990   3.7368270  39.4099900  38.1796340   4.4779150  40.3059840
  43.5181820   5.8066290  34.7370310  43.8597520   6.5508520  34.2413630
  42.6894530   6.1197410  35.0995140  44.6598430   6.7614620  47.2563390
  44.6742970   5.8295580  47.0382300  43.9523530   6.8474380  47.8953160
  50.8709640   3.4021960  46.6031970  50.1457830   3.9950740  46.4061360
  51.3985100   3.3945500  45.8045340  50.8222750   7.7996700  36.2544130
  50.1798910   7.1452320  36.5287850  50.4353410   8.2051790  35.4784800
  46.4009230   5.1282130  40.1015820  46.7533050   4.5310260  39.4417190
  45.5171560   4.8026360  40.2724070  42.4872510   5.8879820  37.5086230
  43.1743640   6.4349030  37.8893820  41.7004930   6.4320550  37.5435840
  41.7899720   2.8925850  37.1211590  42.2462500   3.7031100  37.3471780
  41.4387930   2.5748990  37.9530080  44.0932330   8.4032190  44.3503890
  44.7374550   8.6091570  45.0277310  44.4561770   7.6420590  43.8974740
  45.3664410   6.4064540  43.0681340  46.0086640   5.7057700  43.1813510
  45.8913760   7.1862980  42.8878230  49.2120130   6.6913160  32.7920480
  48.9857710   5.9743600  33.3845120  48.8216330   6.4425600  31.9542230
  47.1402030   7.2059440  46.2717400  47.4758270   7.7926130  46.9495320
  46.2202370   7.0752150  46.5015190  34.9936160  10.7180020  33.5664940
  35.3533800  11.3169360  32.9122210  34.8528500  11.2639910  34.3399970
  48.7936380   4.6085100  34.4534640  48.5058080   5.0697790  35.2412520
  49.5888550   4.1482870  34.7218860  34.9778020   8.9834880  48.0407340
  35.0869140   8.0429620  47.9002730  34.3258580   9.2489630  47.3921070
  42.9690610   7.2550770  49.4405460  42.6487480   6.5360010  49.9851150
  42.2948970   7.9305840  49.5141520  41.0104780   8.1011220  34.3838610
  41.0014880   8.8340910  33.7683120  40.0903140   7.8542800  34.4765570
  36.6111420   3.3226110  35.1285370  36.0039370   4.0625010  35.1380670
  37.0860770   3.4125470  34.3023570  43.9964380   8.1639460  33.0463800
  44.0976360   7.9603450  32.1165780  43.0966120   7.9097740  33.2511580
  42.6382490  10.6825780  37.7411470  42.8923990  10.6447170  36.8190840
  41.6894970  10.5559110  37.7339720  38.6216710   3.2837260  32.8773940
  39.3879980   3.1718620  33.4399370  38.6991400   2.5875230  32.2250710
  50.6460650   8.7726510  40.9924240  50.7708070   9.5957680  41.4648050
  51.5126210   8.5617240  40.6448390  38.1178180  10.8657720  40.6641370
  38.8540660  10.3173180  40.9349940  38.5019100  11.7313730  40.5247360
  35.0023660   6.9331290  36.5382880  34.0763440   7.1752430  36.5288290
  35.4680090   7.7605550  36.4167630  37.1236460  10.0503790  49.8526950
  37.9249190  10.3715840  50.2662350  36.6088280   9.6899370  50.5746860
  41.2280490  10.0388030  32.4866940  42.0209100  10.3276860  32.0348730
  40.7084840   9.6080200  31.8079420  45.9601090   6.1583660  49.8002360
  45.3539250   6.1815260  49.0598110  45.6555200   5.4266700  50.3369610
  47.3901460   9.8863950  48.4111770  48.3423210   9.8021970  48.3612010
  47.2429680  10.5505660  49.0845560  50.2810660   9.2658160  33.9103680
  49.9952170   8.8523300  33.0957860  50.0830210  10.1945870  33.7904200
  34.8434270   2.5377250  48.7963000  35.3473290   1.9584530  49.3679230
  34.1041690   2.8217480  49.3339370  41.7457890   5.2591440  32.3509290
  41.6408530   4.6443790  33.0770670  41.5782110   4.7357330  31.5672300
  41.8972210   3.9448240  48.3298520  41.1317880   4.5133240  48.2453190
  42.0788170   3.6524450  47.4366750  44.9860620   4.3211470  32.9551280
  44.4370720   4.7680770  33.5994020  45.6079880   3.8160720  33.4788950
  49.0395560   5.6753570  48.8873540  49.7805030   6.0129330  48.3841000
  48.2768240   5.8445630  48.3343310  40.6535740   3.2802390  34.8516580
  41.0752160   3.1142260  35.6947970  40.7786580   2.4702620  34.3571720
  43.1663380   2.3040000  32.0993680  43.6869040   1.5889020  31.7334830
  43.8131780   2.9425870  32.3994190  47.7141220   3.7268400  47.4228750
  48.1282240   3.8813480  48.2719170  46.7792220   3.8523620  47.5854530
  42.4756450   3.6788880  45.3924680  42.8944560   4.5221610  45.2200920
  41.5565080   3.8160920  45.1631460  47.1508250   1.9642250  45.3525030
  46.6243470   2.4884870  44.7490170  47.4939590   2.5969640  45.9834760
  40.3263870   9.9841890  46.5082410  39.7884960  10.7087950  46.1891110
  40.5797830   9.5072230  45.7179750  43.1826080  11.2193100  46.7669060
  43.1084780  12.1228240  47.0741430  42.2804920  10.9005000  46.7391130
  43.7311410  10.3851610  34.3895420  44.6262200  10.7236580  34.4114180
  43.7629040   9.6631020  33.7619700  37.3707570   5.7578660  32.6182420
  37.8082440   6.3008330  33.2740000  37.8555300   4.9325610  32.6278760
  34.5853370   8.5467690  40.0702680  34.9156380   7.6788750  39.8381320
  35.0144370   8.7526210  40.9007640  39.1815290   6.8776700  37.7304650
  38.8810830   6.7541670  38.6308560  39.0752780   6.0185290  37.3220380
  35.0743580   9.4138280  42.8084310  34.6374570   9.5939080  43.6408460
  35.6421260  10.1712900  42.6666030  50.7105760   8.9155280  47.0961620
  50.1107750   8.9747840  46.3525540  50.8399660   7.9760260  47.2258470
  51.9507210   6.6573100  32.4331330  51.1200170   6.7249750  32.9038560
  52.1279040   7.5477220  32.1298190  51.4063670   3.4020580  34.9365530
  52.1682580   3.9717230  35.0425220  51.4218040   2.8347780  35.7073840
  34.9068010   1.9258510  39.1673190  34.2516850   1.6570150  38.5232890
  35.7445960   1.8162990  38.7175170  52.4123640   4.2570680  39.7807460
  52.7832470   3.4738000  39.3743430  53.0525570   4.9459780  39.6024760
  49.3957400   5.6407260  45.1937780  48.5817240   6.0704420  45.4563570
  49.8031600   6.2525670  44.5806830  51.4582840   3.6954950  32.0938050
  51.7331680   4.6033830  31.9657270  51.2693580   3.6317480  33.0300040
  49.4533450  10.3925860  38.7206050  50.0492520  10.0710430  38.0440470
  49.7111600   9.9197680  39.5119320  37.3596020   6.8243770  48.8696680
  37.3165650   6.4536680  49.7511140  37.4907030   7.7621340  49.0098500
  41.0602050   8.3803360  44.4706400  40.8193410   8.6477920  43.5836920
  42.0004690   8.5509090  44.5257260  52.3206210  10.3997740  45.2717040
  51.8264490  10.7966610  44.5544170  51.7119500   9.7746950  45.6654320
  37.1984050   9.7706020  45.9894460  36.6044370   9.6390720  46.7284500
  37.1907890   8.9344160  45.5236560  50.0045660  11.0421160  42.5503780
  49.5448630  11.7936970  42.1761800  49.3758120  10.3227630  42.4918580
  36.8296280   7.1364400  44.9402500  36.1030340   6.5169690  44.8728450
  36.8905430   7.5305010  44.0700580  40.4341380   9.3509400  41.7251910
  40.9506400   8.7396760  41.2000170  41.0838760   9.8538180  42.2162920
  43.1736880  10.2417890  42.5520890  43.4614690   9.9872190  41.6753900
  43.6860100   9.6895250  43.1426460  35.1126280  10.4538790  38.1499260
  34.9448320   9.8209470  38.8481150  34.2460790  10.6598190  37.7993450
  36.7188980   9.1472020  35.5949400  36.1936600   9.5280050  34.8911360
  36.6433560   9.7722790  36.3159110  43.2409240  11.1633990  49.9189090
  44.1676550  10.9278260  49.9625050  43.2259670  11.9905990  49.4375120
  51.4754300  10.7059560  36.9163340  51.6506490  10.0197300  36.2724260
  50.7775870  11.2306610  36.5240010  39.3181950  11.0954400  34.4698650
  40.0500770  10.8113680  33.9222540  39.5775620  10.8567680  35.3598030
  38.4796740   7.2119130  34.4744980  37.8505620   7.6804230  35.0230810
  38.5944570   6.3668350  34.9091170  49.8086800  10.3903850  49.7430130
  50.6012120   9.8953080  49.5356090  50.1019950  11.0693990  50.3505740
  44.0664500   3.0403810  22.5055450  43.2906600   2.5604250  22.7954020
  44.7177430   2.3609460  22.3311610  38.0830330   3.3523620  23.3831210
  37.2515210   3.0972330  23.7827720  38.6911310   3.4234390  24.1189130
  48.0871930   7.4464000  21.2854580  47.6253460   6.6751240  21.6141750
  48.8997480   7.4730070  21.7907030  38.0631590   7.3863710  23.5789230
  38.3659630   6.4961450  23.3999450  38.8075180   7.9433930  23.3511480
  44.3135240   9.7322010  20.9058570  43.6946680  10.1879510  20.3353010
  45.1687020   9.8873470  20.5048270  43.5073490   5.7161000  22.5125610
  43.4381770   4.7750940  22.3514740  44.2693350   5.8062410  23.0848180
  45.1798590   4.6161250  18.2990480  44.5615860   5.0810700  17.7353200
  45.6921840   5.3088730  18.7159990  40.0430350   4.1437120  24.9774080
  39.7099730   4.7706040  25.6195150  40.2197030   4.6699000  24.1975750
  39.2549450   6.1117920  26.7923260  39.8723450   6.7869000  26.5107710
  38.3942570   6.5205900  26.7010760  34.5481790   5.3017780  15.6730110
  34.1709770   5.7904880  14.9415010  34.8054860   5.9743060  16.3036640
  50.1727040   7.5757330  24.7077900  49.4890560   8.2456440  24.6994570
  50.7121330   7.7737980  23.9422760  47.7085780   9.4201460  23.4223080
  47.7212940   9.0163750  22.5545340  47.1561000  10.1948750  23.3184510
  49.0031200   6.1417680  18.5113250  48.8927530   5.1992010  18.6362670
  48.9999450   6.5033320  19.3976010  47.1071220   4.3231300  24.7505690
  47.5240010   4.1091410  23.9159150  47.8311040   4.5804090  25.3214310
  44.5451480   1.7683000  17.8675740  43.6180760   1.7020380  18.0964210
  44.6976300   2.7063130  17.7530980  51.0533320   2.7218520  24.8421930
  50.2251950   2.7911610  24.3672060  51.6483800   3.3072830  24.3737760
  48.5748770   3.3303300  18.3710990  47.9561190   2.9922850  17.7237290
  48.5573220   2.6863060  19.0790180  40.1508120   2.2947740  20.6495470
  39.7465120   1.5824990  20.1541370  40.2371240   1.9500980  21.5383510
  40.6189820   5.9815300  22.8134680  40.3218110   5.3760770  22.1342460
  41.5689640   6.0192610  22.7024040  48.7075430   9.5547170  26.4757780
  48.2305990  10.3619360  26.2830390  48.0237220   8.9025500  26.6283990
  39.7108250   5.7196990  29.4642480  38.8136780   5.9436960  29.7115880
  39.7361120   5.8431930  28.5153880  46.7513470   2.5690110  15.3783740
  47.1906750   1.7312540  15.2321560  47.4641890   3.2019510  15.4647880
  38.5379470   2.5910310  28.0399850  38.3987240   3.4633110  28.4087250
  37.6560830   2.2483120  27.8947790  44.8608850   7.5086180  19.3464980
  45.3004760   8.2510510  18.9320370  44.7995740   7.7512750  20.2703940
  40.3359820   8.5332010  30.2485000  40.3075250   8.9374960  29.3813430
  40.1724790   7.6042370  30.0856600  52.2874640   9.3159110  31.5449170
  52.7634360   9.7942000  32.2238250  52.9081800   9.2476600  30.8194670
  34.4898120   4.3607860  23.9570760  34.5678540   4.4956630  23.0126480
  35.1039800   3.6523750  24.1498880  35.7345750   6.0608050  20.3676940
  35.3273830   6.2022640  19.5130540  36.6258760   5.7768210  20.1648150
  51.6907890   6.5071960  28.7049180  51.8170950   6.2683840  27.7866360
  51.7329270   5.6756500  29.1771260  45.5524630  10.2099960  27.2743990
  46.0669300  10.1207970  28.0766420  44.7093710  10.5559660  27.5671900
  47.5279030  10.4955300  16.7027990  47.3680170  10.2058240  17.6009820
  47.3625740   9.7195430  16.1673220  40.0067410  10.2753830  18.4799610
  39.8309890   9.3589370  18.2667410  39.1523150  10.6341120  18.7197410
  47.2305160   8.0042860  15.2625990  46.5370320   8.0020150  14.6028270
  47.9728020   7.5802180  14.8320160  46.7955090   9.6305570  19.3374480
  47.2512040   8.8494950  19.6513100  47.1347610  10.3412390  19.8815660
  34.5457640   5.4022030  26.4965220  34.7088680   4.9327390  25.6784590
  35.0110090   4.8945590  27.1614060  36.1196620   4.7773460  28.6561030
  35.7351410   4.1367130  29.2543990  36.4308810   5.4809580  29.2255760
  38.5874920   4.8719630  17.0520710  37.8137180   4.3317250  16.8919430
  39.3169550   4.3526240  16.7138470  49.3462900   3.8684990  22.8447100
  50.0662020   4.3640280  22.4543210  49.1444720   3.1902880  22.2000970
  44.7281700   3.9394050  28.7316100  44.6619010   3.0189720  28.4773690
  44.0986840   4.0369490  29.4460740  38.6312320   4.5400010  20.6899520
  39.1490990   3.7368270  20.6356410  38.1796340   4.4779150  21.5316350
  43.5181820   5.8066290  15.9626820  43.8597520   6.5508520  15.4670140
  42.6894530   6.1197410  16.3251650  44.6598430   6.7614620  28.4819900
  44.6742970   5.8295580  28.2638810  43.9523530   6.8474380  29.1209670
  50.8709640   3.4021960  27.8288480  50.1457830   3.9950740  27.6317870
  51.3985100   3.3945500  27.0301850  50.8222750   7.7996700  17.4800640
  50.1798910   7.1452320  17.7544360  50.4353410   8.2051790  16.7041310
  46.4009230   5.1282130  21.3272330  46.7533050   4.5310260  20.6673700
  45.5171560   4.8026360  21.4980580  42.4872510   5.8879820  18.7342740
  43.1743640   6.4349030  19.1150330  41.7004930   6.4320550  18.7692350
  41.7899720   2.8925850  18.3468100  42.2462500   3.7031100  18.5728290
  41.4387930   2.5748990  19.1786590  44.0932330   8.4032190  25.5760400
  44.7374550   8.6091570  26.2533820  44.4561770   7.6420590  25.1231250
  45.3664410   6.4064540  24.2937850  46.0086640   5.7057700  24.4070020
  45.8913760   7.1862980  24.1134740  49.2120130   6.6913160  14.0176990
  48.9857710   5.9743600  14.6101630  48.8216330   6.4425600  13.1798740
  47.1402030   7.2059440  27.4973910  47.4758270   7.7926130  28.1751830
  46.2202370   7.0752150  27.7271700  34.9936160  10.7180020  14.7921450
  35.3533800  11.3169360  14.1378720  34.8528500  11.2639910  15.5656480
  48.7936380   4.6085100  15.6791150  48.5058080   5.0697790  16.4669030
  49.5888550   4.1482870  15.9475370  34.9778020   8.9834880  29.2663850
  35.0869140   8.0429620  29.1259240  34.3258580   9.2489630  28.6177580
  42.9690610   7.2550770  30.6661970  42.6487480   6.5360010  31.2107660
  42.2948970   7.9305840  30.7398030  41.0104780   8.1011220  15.6095120
  41.0014880   8.8340910  14.9939630  40.0903140   7.8542800  15.7022080
  36.6111420   3.3226110  16.3541880  36.0039370   4.0625010  16.3637180
  37.0860770   3.4125470  15.5280080  43.9964380   8.1639460  14.2720310
  44.0976360   7.9603450  13.3422290  43.0966120   7.9097740  14.4768090
  42.6382490  10.6825780  18.9667980  42.8923990  10.6447170  18.0447350
  41.6894970  10.5559110  18.9596230  38.6216710   3.2837260  14.1030450
  39.3879980   3.1718620  14.6655880  38.6991400   2.5875230  13.4507220
  50.6460650   8.7726510  22.2180750  50.7708070   9.5957680  22.6904560
  51.5126210   8.5617240  21.8704900  38.1178180  10.8657720  21.8897880
  38.8540660  10.3173180  22.1606450  38.5019100  11.7313730  21.7503870
  35.0023660   6.9331290  17.7639390  34.0763440   7.1752430  17.7544800
  35.4680090   7.7605550  17.6424140  37.1236460  10.0503790  31.0783460
  37.9249190  10.3715840  31.4918860  36.6088280   9.6899370  31.8003370
  41.2280490  10.0388030  13.7123450  42.0209100  10.3276860  13.2605240
  40.7084840   9.6080200  13.0335930  45.9601090   6.1583660  31.0258870
  45.3539250   6.1815260  30.2854620  45.6555200   5.4266700  31.5626120
  47.3901460   9.8863950  29.6368280  48.3423210   9.8021970  29.5868520
  47.2429680  10.5505660  30.3102070  50.2810660   9.2658160  15.1360190
  49.9952170   8.8523300  14.3214370  50.0830210  10.1945870  15.0160710
  34.8434270   2.5377250  30.0219510  35.3473290   1.9584530  30.5935740
  34.1041690   2.8217480  30.5595880  41.7457890   5.2591440  13.5765800
  41.6408530   4.6443790  14.3027180  41.5782110   4.7357330  12.7928810
  41.8972210   3.9448240  29.5555030  41.1317880   4.5133240  29.4709700
  42.0788170   3.6524450  28.6623260  44.9860620   4.3211470  14.1807790
  44.4370720   4.7680770  14.8250530  45.6079880   3.8160720  14.7045460
  49.0395560   5.6753570  30.1130050  49.7805030   6.0129330  29.6097510
  48.2768240   5.8445630  29.5599820  40.6535740   3.2802390  16.0773090
  41.0752160   3.1142260  16.9204480  40.7786580   2.4702620  15.5828230
  43.1663380   2.3040000  13.3250190  43.6869040   1.5889020  12.9591340
  43.8131780   2.9425870  13.6250700  47.7141220   3.7268400  28.6485260
  48.1282240   3.8813480  29.4975680  46.7792220   3.8523620  28.8111040
  42.4756450   3.6788880  26.6181190  42.8944560   4.5221610  26.4457430
  41.5565080   3.8160920  26.3887970  47.1508250   1.9642250  26.5781540
  46.6243470   2.4884870  25.9746680  47.4939590   2.5969640  27.2091270
  40.3263870   9.9841890  27.7338920  39.7884960  10.7087950  27.4147620
  40.5797830   9.5072230  26.9436260  43.1826080  11.2193100  27.9925570
  43.1084780  12.1228240  28.2997940  42.2804920  10.9005000  27.9647640
  43.7311410  10.3851610  15.6151930  44.6262200  10.7236580  15.6370690
  43.7629040   9.6631020  14.9876210  37.3707570   5.7578660  13.8438930
  37.8082440   6.3008330  14.4996510  37.8555300   4.9325610  13.8535270
  34.5853370   8.5467690  21.2959190  34.9156380   7.6788750  21.0637830
  35.0144370   8.7526210  22.1264150  39.1815290   6.8776700  18.9561160
  38.8810830   6.7541670  19.8565070  39.0752780   6.0185290  18.5476890
  35.0743580   9.4138280  24.0340820  34.6374570   9.5939080  24.8664970
  35.6421260  10.1712900  23.8922540  50.7105760   8.9155280  28.3218130
  50.1107750   8.9747840  27.5782050  50.8399660   7.9760260  28.4514980
  51.9507210   6.6573100  13.6587840  51.1200170   6.7249750  14.1295070
  52.1279040   7.5477220  13.3554700  51.4063670   3.4020580  16.1622040
  52.1682580   3.9717230  16.2681730  51.4218040   2.8347780  16.9330350
  34.9068010   1.9258510  20.3929700  34.2516850   1.6570150  19.7489400
  35.7445960   1.8162990  19.9431680  52.4123640   4.2570680  21.0063970
  52.7832470   3.4738000  20.5999940  53.0525570   4.9459780  20.8281270
  49.3957400   5.6407260  26.4194290  48.5817240   6.0704420  26.6820080
  49.8031600   6.2525670  25.8063340  51.4582840   3.6954950  13.3194560
  51.7331680   4.6033830  13.1913780  51.2693580   3.6317480  14.2556550
  49.4533450  10.3925860  19.9462560  50.0492520  10.0710430  19.2696980
  49.7111600   9.9197680  20.7375830  37.3596020   6.8243770  30.0953190
  37.3165650   6.4536680  30.9767650  37.4907030   7.7621340  30.2355010
  41.0602050   8.3803360  25.6962910  40.8193410   8.6477920  24.8093430
  42.0004690   8.5509090  25.7513770  52.3206210  10.3997740  26.4973550
  51.8264490  10.7966610  25.7800680  51.7119500   9.7746950  26.8910830
  37.1984050   9.7706020  27.2150970  36.6044370   9.6390720  27.9541010
  37.1907890   8.9344160  26.7493070  50.0045660  11.0421160  23.7760290
  49.5448630  11.7936970  23.4018310  49.3758120  10.3227630  23.7175090
  36.8296280   7.1364400  26.1659010  36.1030340   6.5169690  26.0984960
  36.8905430   7.5305010  25.2957090  40.4341380   9.3509400  22.9508420
  40.9506400   8.7396760  22.4256680  41.0838760   9.8538180  23.4419430
  43.1736880  10.2417890  23.7777400  43.4614690   9.9872190  22.9010410
  43.6860100   9.6895250  24.3682970  35.1126280  10.4538790  19.3755770
  34.9448320   9.8209470  20.0737660  34.2460790  10.6598190  19.0249960
  36.7188980   9.1472020  16.8205910  36.1936600   9.5280050  16.1167870
  36.6433560   9.7722790  17.5415620  43.2409240  11.1633990  31.1445600
  44.1676550  10.9278260  31.1881560  43.2259670  11.9905990  30.6631630
  51.4754300  10.7059560  18.1419850  51.6506490  10.0197300  17.4980770
  50.7775870  11.2306610  17.7496520  39.3181950  11.0954400  15.6955160
  40.0500770  10.8113680  15.1479050  39.5775620  10.8567680  16.5854540
  38.4796740   7.2119130  15.7001490  37.8505620   7.6804230  16.2487320
  38.5944570   6.3668350  16.1347680  49.8086800  10.3903850  30.9686640
  50.6012120   9.8953080  30.7612600  50.1019950  11.0693990  31.5762250
  44.0664500   3.0403810   3.7311960  43.2906600   2.5604250   4.0210530
  44.7177430   2.3609460   3.5568120  38.0830330   3.3523620   4.6087720
  37.2515210   3.0972330   5.0084230  38.6911310   3.4234390   5.3445640
  48.0871930   7.4464000   2.5111090  47.6253460   6.6751240   2.8398260
  48.8997480   7.4730070   3.0163540  38.0631590   7.3863710   4.8045740
  38.3659630   6.4961450   4.6255960  38.8075180   7.9433930   4.5767990
  43.5073490   5.7161000   3.7382120  43.4381770   4.7750940   3.5771250
  44.2693350   5.8062410   4.3104690  40.0430350   4.1437120   6.2030590
  39.7099730   4.7706040   6.8451660  40.2197030   4.6699000   5.4232260
  39.2549450   6.1117920   8.0179770  39.8723450   6.7869000   7.7364220
  38.3942570   6.5205900   7.9267270  50.1727040   7.5757330   5.9334410
  49.4890560   8.2456440   5.9251080  50.7121330   7.7737980   5.1679270
  47.7085780   9.4201460   4.6479590  47.7212940   9.0163750   3.7801850
  47.1561000  10.1948750   4.5441020  47.1071220   4.3231300   5.9762200
  47.5240010   4.1091410   5.1415660  47.8311040   4.5804090   6.5470820
  51.0533320   2.7218520   6.0678440  50.2251950   2.7911610   5.5928570
  51.6483800   3.3072830   5.5994270  40.6189820   5.9815300   4.0391190
  40.3218110   5.3760770   3.3598970  41.5689640   6.0192610   3.9280550
  48.7075430   9.5547170   7.7014290  48.2305990  10.3619360   7.5086900
  48.0237220   8.9025500   7.8540500  39.7108250   5.7196990  10.6898990
  38.8136780   5.9436960  10.9372390  39.7361120   5.8431930   9.7410390
  38.5379470   2.5910310   9.2656360  38.3987240   3.4633110   9.6343760
  37.6560830   2.2483120   9.1204300  40.3359820   8.5332010  11.4741510
  40.3075250   8.9374960  10.6069940  40.1724790   7.6042370  11.3113110
  52.2874640   9.3159110  12.7705680  52.7634360   9.7942000  13.4494760
  52.9081800   9.2476600  12.0451180  34.4898120   4.3607860   5.1827270
  34.5678540   4.4956630   4.2382990  35.1039800   3.6523750   5.3755390
  51.6907890   6.5071960   9.9305690  51.8170950   6.2683840   9.0122870
  51.7329270   5.6756500  10.4027770  45.5524630  10.2099960   8.5000500
  46.0669300  10.1207970   9.3022930  44.7093710  10.5559660   8.7928410
  34.5457640   5.4022030   7.7221730  34.7088680   4.9327390   6.9041100
  35.0110090   4.8945590   8.3870570  36.1196620   4.7773460   9.8817540
  35.7351410   4.1367130  10.4800500  36.4308810   5.4809580  10.4512270
  49.3462900   3.8684990   4.0703610  50.0662020   4.3640280   3.6799720
  49.1444720   3.1902880   3.4257480  44.7281700   3.9394050   9.9572610
  44.6619010   3.0189720   9.7030200  44.0986840   4.0369490  10.6717250
  38.6312320   4.5400010   1.9156030  39.1490990   3.7368270   1.8612920
  38.1796340   4.4779150   2.7572860  44.6598430   6.7614620   9.7076410
  44.6742970   5.8295580   9.4895320  43.9523530   6.8474380  10.3466180
  50.8709640   3.4021960   9.0544990  50.1457830   3.9950740   8.8574380
  51.3985100   3.3945500   8.2558360  46.4009230   5.1282130   2.5528840
  46.7533050   4.5310260   1.8930210  45.5171560   4.8026360   2.7237090
  44.0932330   8.4032190   6.8016910  44.7374550   8.6091570   7.4790330
  44.4561770   7.6420590   6.3487760  45.3664410   6.4064540   5.5194360
  46.0086640   5.7057700   5.6326530  45.8913760   7.1862980   5.3391250
  47.1402030   7.2059440   8.7230420  47.4758270   7.7926130   9.4008340
  46.2202370   7.0752150   8.9528210  34.9778020   8.9834880  10.4920360
  35.0869140   8.0429620  10.3515750  34.3258580   9.2489630   9.8434090
  42.9690610   7.2550770  11.8918480  42.6487480   6.5360010  12.4364170
  42.2948970   7.9305840  11.9654540  50.6460650   8.7726510   3.4437260
  50.7708070   9.5957680   3.9161070  51.5126210   8.5617240   3.0961410
  38.1178180  10.8657720   3.1154390  38.8540660  10.3173180   3.3862960
  38.5019100  11.7313730   2.9760380  37.1236460  10.0503790  12.3039970
  37.9249190  10.3715840  12.7175370  36.6088280   9.6899370  13.0259880
  45.9601090   6.1583660  12.2515380  45.3539250   6.1815260  11.5111130
  45.6555200   5.4266700  12.7882630  47.3901460   9.8863950  10.8624790
  48.3423210   9.8021970  10.8125030  47.2429680  10.5505660  11.5358580
  34.8434270   2.5377250  11.2476020  35.3473290   1.9584530  11.8192250
  34.1041690   2.8217480  11.7852390  41.8972210   3.9448240  10.7811540
  41.1317880   4.5133240  10.6966210  42.0788170   3.6524450   9.8879770
  49.0395560   5.6753570  11.3386560  49.7805030   6.0129330  10.8354020
  48.2768240   5.8445630  10.7856330  47.7141220   3.7268400   9.8741770
  48.1282240   3.8813480  10.7232190  46.7792220   3.8523620  10.0367550
  42.4756450   3.6788880   7.8437700  42.8944560   4.5221610   7.6713940
  41.5565080   3.8160920   7.6144480  47.1508250   1.9642250   7.8038050
  46.6243470   2.4884870   7.2003190  47.4939590   2.5969640   8.4347780
  40.3263870   9.9841890   8.9595430  39.7884960  10.7087950   8.6404130
  40.5797830   9.5072230   8.1692770  43.1826080  11.2193100   9.2182080
  43.1084780  12.1228240   9.5254450  42.2804920  10.9005000   9.1904150
  34.5853370   8.5467690   2.5215700  34.9156380   7.6788750   2.2894340
  35.0144370   8.7526210   3.3520660  35.0743580   9.4138280   5.2597330
  34.6374570   9.5939080   6.0921480  35.6421260  10.1712900   5.1179050
  50.7105760   8.9155280   9.5474640  50.1107750   8.9747840   8.8038560
  50.8399660   7.9760260   9.6771490  52.4123640   4.2570680   2.2320480
  52.7832470   3.4738000   1.8256450  53.0525570   4.9459780   2.0537780
  49.3957400   5.6407260   7.6450800  48.5817240   6.0704420   7.9076590
  49.8031600   6.2525670   7.0319850  37.3596020   6.8243770  11.3209700
  37.3165650   6.4536680  12.2024160  37.4907030   7.7621340  11.4611520
  41.0602050   8.3803360   6.9219420  40.8193410   8.6477920   6.0349940
  42.0004690   8.5509090   6.9770280  52.3206210  10.3997740   7.7230060
  51.8264490  10.7966610   7.0057190  51.7119500   9.7746950   8.1167340
  37.1984050   9.7706020   8.4407480  36.6044370   9.6390720   9.1797520
  37.1907890   8.9344160   7.9749580  50.0045660  11.0421160   5.0016800
  49.5448630  11.7936970   4.6274820  49.3758120  10.3227630   4.9431600
  36.8296280   7.1364400   7.3915520  36.1030340   6.5169690   7.3241470
  36.8905430   7.5305010   6.5213600  40.4341380   9.3509400   4.1764930
  40.9506400   8.7396760   3.6513190  41.0838760   9.8538180   4.6675940
  43.1736880  10.2417890   5.0033910  43.4614690   9.9872190   4.1266920
  43.6860100   9.6895250   5.5939480  43.2409240  11.1633990  12.3702110
  44.1676550  10.9278260  12.4138070  43.2259670  11.9905990  11.8888140
  49.8086800  10.3903850  12.1943150  50.6012120   9.8953080  11.9869110
  50.1019950  11.0693990  12.8018760  27.1602970  57.5855260  58.1733160
  27.0797020  56.6709870  57.9024870  26.7467390  58.0822330  57.4672870
  17.7178790  54.6355980  54.7160580  16.8295490  54.9771950  54.6140460
  18.0019980  54.4356300  53.8241410  15.6811800  57.2361630  60.6000280
  16.2527910  56.4683830  60.6003920  15.6813340  57.5350390  59.6906890
  25.7635170  54.8461850  60.2881520  26.1399990  53.9733730  60.1755190
  25.6654680  55.1820550  59.3971960  19.8940180  53.2187480  55.7498960
  20.0006930  54.1191210  56.0567720  18.9832540  53.1705450  55.4593610
  29.5459290  52.3412290  57.2209860  30.3668910  51.8508860  57.2635340
  29.5793370  52.9309950  57.9741700  21.7347910  56.1873850  60.0824140
  22.2426130  56.6854820  60.7229160  22.2661150  55.4109050  59.9063500
  29.7820770  54.2812670  59.9937400  29.0776340  54.5697560  60.5740510
  30.1432930  55.0912780  59.6336960  32.8507690  53.7267460  60.3846610
  31.9032600  53.7606440  60.5162040  33.1757680  54.5406410  60.7695970
  23.3827230  50.0264640  58.6802600  23.6902210  49.4711530  57.9638100
  22.4527930  50.1609100  58.4975590  25.7577070  54.3630470  52.4129880
  24.8180740  54.5244430  52.4982340  26.0760330  55.0816150  51.8665870
  21.3764630  58.6178210  58.1982450  20.9721630  57.9055460  57.7028350
  21.4627750  58.2731450  59.0870490  31.5587120  50.1463390  51.2411760
  31.2459780  50.2390220  52.1410830  32.3199590  50.7244420  51.1909190
  18.0769260  57.5123190  55.6989100  17.9566860  58.2385280  55.0870370
  17.7670150  56.7426100  55.2217010  20.5432920  50.8558260  59.0812770
  20.1001070  51.6367800  58.7497290  21.1017910  51.1788150  59.7883710
  23.6591740  50.4768960  53.9618600  23.0345920  50.4728830  54.6871910
  23.5721860  49.6099920  53.5654570  22.5808820  51.4005590  60.9402370
  22.8781150  52.3068420  60.8594390  23.1294380  50.9124370  60.3261940
  20.3347140  55.9791830  56.8094020  20.1088060  55.7629000  57.7140640
  19.5539670  56.4120290  56.4639990  27.5644900  55.9855200  55.4084670
  26.9653790  56.7091000  55.2248290  28.1124510  55.9231980  54.6261120
  26.1709770  54.6218740  57.4387950  26.5639340  54.9390940  56.6256640
  26.5326620  53.7430620  57.5532470  15.2073940  51.2119540  59.6618150
  14.9186990  51.7822400  60.3743130  15.9519700  50.7323990  60.0249380
  15.3944170  55.1539660  50.8720870  15.3118840  56.0970420  51.0135860
  15.0427230  55.0114570  49.9933220  23.1942300  53.8878690  59.9391220
  23.1978360  53.4468640  59.0895760  24.0893420  54.2096020  60.0463040
  19.0444680  53.7705180  58.8985430  18.7044730  54.2480410  59.6552480
  18.2822000  53.3170300  58.5386530  23.2562450  54.8890770  52.9297980
  23.3775270  54.8477250  53.8783800  22.8710960  55.7514920  52.7744710
  22.2683950  57.1991910  52.3281280  21.7000850  56.7510160  51.7017190
  22.9772950  57.5584690  51.7946430  16.3590760  52.6924160  57.8150100
  16.0737680  52.3279830  58.6528720  16.2969620  51.9604620  57.2013240
  26.0329350  51.5853420  54.5363470  25.2193960  51.0866590  54.4608780
  25.8391300  52.4251670  54.1199820  28.7477740  55.9573070  52.8325630
  29.6357360  56.2690300  52.6576970  28.7182830  55.0845320  52.4406210
  31.0192010  57.2684910  52.3005490  30.9355730  57.6999130  51.4501930
  31.7386200  57.7283260  52.7332310  15.8521420  57.8283110  51.7746800
  16.7216270  58.1107910  52.0582720  15.3611740  58.6418980  51.6595610
  18.9168010  49.5593970  56.3677600  18.7882640  49.5511870  57.3162520
  18.0930030  49.8977060  56.0168610  30.7762750  52.7664340  54.3873310
  30.1475910  52.8710010  53.6731540  30.2814670  52.9861120  55.1767190
  22.7446780  55.0450290  55.8031190  22.0362930  55.5136630  56.2444800
  23.0291260  54.3872300  56.4376380  26.7762210  51.7700950  57.2426980
  26.6529990  51.7887080  56.2936490  27.7246770  51.8179890  57.3625380
  20.9481800  53.3535370  53.1781900  21.7972330  53.7905520  53.1122090
  20.5813070  53.6655630  54.0053960  29.8691580  57.9248130  58.0913470
  28.9281720  57.9398360  58.2661160  30.1835650  57.1384090  58.5373770
  18.5419980  57.0392800  52.3350320  18.6223570  56.0920310  52.4467720
  19.4339730  57.3699680  52.4410980  20.7751150  55.6766090  50.5718230
  20.5740210  54.8133450  50.9331570  20.6043200  55.5899450  49.6339830
  28.2539460  50.4874320  53.1005110  28.5341750  49.6442220  53.4564530
  27.4805190  50.7197430  53.6143860  19.5733950  52.7766710  50.5596110
  19.8759850  52.7834140  49.6515260  20.3128540  52.4264570  51.0563770
  22.7918880  51.7201330  51.5452310  22.4440880  51.0425320  50.9654760
  22.9931650  51.2590840  52.3595700  16.1324520  58.2488980  57.9416680
  15.4773360  57.9800620  57.2976380  16.9702470  58.1393460  57.4918660
  29.0814960  53.0430270  52.1635170  29.4999840  52.8561250  51.3231830
  28.7751020  52.1909320  52.4738100  32.5804690  57.9554410  55.8610970
  32.2048290  57.1882340  55.4292260  31.8507810  58.3377110  56.3485900
  15.3462600  55.4587910  53.8842010  14.4426680  55.7218110  53.7093670
  15.8303220  55.7299080  53.1041970  31.8555650  56.1811900  59.1618210
  32.3793130  55.6874550  58.5308380  32.4415070  56.3162260  59.9065780
  17.8889810  54.5153450  51.7936390  18.5981510  54.0936670  51.3083670
  17.1729750  54.5828680  51.1619740  17.5363970  50.5692780  50.8339040
  18.2592100  51.1101720  51.1520260  17.8088490  50.2956200  49.9580580
  31.3455620  55.4385250  55.1010620  31.8414740  55.2056120  55.8859500
  31.1471690  54.5997090  54.6848260  32.7742780  54.0746200  57.6348300
  32.6642060  53.9202240  58.5730570  33.5350370  53.5467140  57.3923710
  33.6633050  51.9054120  50.8754440  34.5882360  51.7735300  50.6672730
  33.6408840  51.9846940  51.8290890  33.7371540  52.6764780  53.5011150
  32.9423040  52.6109900  54.0304060  33.9414820  53.6115420  53.4896500
  30.1691470  51.0061660  59.9509980  30.6099560  50.9506760  59.1031580
  29.8999060  51.9219670  60.0220160  32.0330040  50.6376900  57.9618800
  31.9718440  49.6938120  57.8149820  32.8122070  50.7456990  58.5072260
  16.9610810  50.6086040  54.4274610  17.7190170  50.7214920  53.8538640
  16.4987980  51.4455240  54.3818040  23.5024620  52.7225310  57.4176920
  22.6899130  52.3482200  57.0772800  24.0066260  51.9670390  57.7198110
  28.0049600  49.3867760  58.6559990  28.6078970  49.9587970  59.1308510
  27.2642590  49.9507200  58.4333890  31.1484200  49.7889320  53.9300270
  31.3434830  50.6872770  54.1967700  30.3614070  49.5576400  54.4233220
  19.3335960  51.1350090  52.9676580  19.8628720  50.3479890  52.8384530
  19.9664280  51.8141280  53.2012110  21.5273800  50.8725230  56.0221970
  20.8976540  50.1712540  56.1892100  20.9878940  51.6329360  55.8055130
  27.1602970  57.5855260  39.3989670  27.0797020  56.6709870  39.1281380
  26.7467390  58.0822330  38.6929380  17.7178790  54.6355980  35.9417090
  16.8295490  54.9771950  35.8396970  18.0019980  54.4356300  35.0497920
  15.6811800  57.2361630  41.8256790  16.2527910  56.4683830  41.8260430
  15.6813340  57.5350390  40.9163400  16.9236670  52.6445990  43.6125720
  16.7439510  51.7471740  43.8928480  16.5216750  53.1917860  44.2872670
  25.7635170  54.8461850  41.5138030  26.1399990  53.9733730  41.4011700
  25.6654680  55.1820550  40.6228470  19.8940180  53.2187480  36.9755470
  20.0006930  54.1191210  37.2824230  18.9832540  53.1705450  36.6850120
  29.5459290  52.3412290  38.4466370  30.3668910  51.8508860  38.4891850
  29.5793370  52.9309950  39.1998210  17.5423340  55.1406490  42.2208060
  18.2233450  55.4044860  42.8395460  17.2271390  54.3007360  42.5546070
  21.7347910  56.1873850  41.3080650  22.2426130  56.6854820  41.9485670
  22.2661150  55.4109050  41.1320010  33.8358840  54.3579040  45.0110000
  33.1311010  54.7460750  44.4925110  34.1016760  55.0529330  45.6130930
  20.0184010  50.8272410  45.5744070  20.0202450  51.3444800  44.7689970
  19.1888320  50.3502590  45.5514000  29.7820770  54.2812670  41.2193910
  29.0776340  54.5697560  41.7997020  30.1432930  55.0912780  40.8593470
  19.6999340  52.5382370  43.5814520  20.0416150  53.3824420  43.2868390
  18.7615150  52.6866110  43.6979860  32.8507690  53.7267460  41.6103120
  31.9032600  53.7606440  41.7418550  33.1757680  54.5406410  41.9952480
  23.3827230  50.0264640  39.9059110  23.6902210  49.4711530  39.1894610
  22.4527930  50.1609100  39.7232100  25.7577070  54.3630470  33.6386390
  24.8180740  54.5244430  33.7238850  26.0760330  55.0816150  33.0922380
  29.2431840  55.8318310  44.5620290  28.8303020  56.6572020  44.8160280
  28.5107790  55.2463350  44.3696650  21.3764630  58.6178210  39.4238960
  20.9721630  57.9055460  38.9284860  21.4627750  58.2731450  40.3127000
  20.0893250  55.3921420  43.2038000  20.6407840  55.5016760  42.4291250
  20.6036760  55.7659020  43.9193230  31.5587120  50.1463390  32.4668270
  31.2459780  50.2390220  33.3667340  32.3199590  50.7244420  32.4165700
  18.0769260  57.5123190  36.9245610  17.9566860  58.2385280  36.3126880
  17.7670150  56.7426100  36.4473520  32.7688410  54.8834890  48.4442410
  32.1532680  55.3914560  47.9157870  32.4484830  53.9833220  48.3868350
  20.5432920  50.8558260  40.3069280  20.1001070  51.6367800  39.9753800
  21.1017910  51.1788150  41.0140220  24.8302730  53.7226780  45.9104600
  24.3682100  53.9309800  46.7224540  24.4280840  52.9086130  45.6075270
  29.8307240  54.9435730  47.0401260  28.9800830  54.6441480  47.3610330
  29.6709030  55.1877740  46.1285080  26.9256950  56.4437480  49.1400050
  27.2510360  55.6101230  48.8002280  27.7137280  56.9666000  49.2878380
  23.6591740  50.4768960  35.1875110  23.0345920  50.4728830  35.9128420
  23.5721860  49.6099920  34.7911080  22.5808820  51.4005590  42.1658880
  22.8781150  52.3068420  42.0850900  23.1294380  50.9124370  41.5518450
  20.3347140  55.9791830  38.0350530  20.1088060  55.7629000  38.9397150
  19.5539670  56.4120290  37.6896500  27.5644900  55.9855200  36.6341180
  26.9653790  56.7091000  36.4504800  28.1124510  55.9231980  35.8517630
  22.7746350  56.8777410  48.7010800  22.6789950  55.9372140  48.5511200
  23.6178330  57.0992480  48.3058870  26.1709770  54.6218740  38.6644460
  26.5639340  54.9390940  37.8513150  26.5326620  53.7430620  38.7788980
  17.9056890  53.2891080  46.8544580  17.5120280  54.1366290  47.0617360
  17.2175290  52.6517450  47.0453220  24.4801940  53.3726050  49.9241320
  23.7900260  53.1798250  50.5587410  25.2234240  53.6560690  50.4565620
  15.2073940  51.2119540  40.8874660  14.9186990  51.7822400  41.5999640
  15.9519700  50.7323990  41.2505890  15.3944170  55.1539660  32.0977380
  15.3118840  56.0970420  32.2392370  15.0427230  55.0114570  31.2189730
  26.7564910  57.2124490  42.7595240  26.0246030  57.7211300  43.1085340
  26.3589250  56.3954470  42.4584020  23.1942300  53.8878690  41.1647730
  23.1978360  53.4468640  40.3152270  24.0893420  54.2096020  41.2719550
  19.0444680  53.7705180  40.1241940  18.7044730  54.2480410  40.8808990
  18.2822000  53.3170300  39.7643040  23.2562450  54.8890770  34.1554490
  23.3775270  54.8477250  35.1040310  22.8710960  55.7514920  34.0001220
  27.2190820  52.6658170  42.1718180  27.2363560  53.1166820  43.0160030
  26.9706400  51.7663810  42.3851620  22.2683950  57.1991910  33.5537790
  21.7000850  56.7510160  32.9273700  22.9772950  57.5584690  33.0202940
  30.6461570  50.0790350  48.0104560  30.9707340  49.3480010  48.5362540
  30.6818080  49.7603990  47.1085550  23.4950270  57.9480470  42.9113140
  23.8620400  57.4739040  43.6574480  23.3055330  58.8222040  43.2521480
  16.3590760  52.6924160  39.0406610  16.0737680  52.3279830  39.8785230
  16.2969620  51.9604620  38.4269750  21.2849640  56.9889110  45.2297350
  20.9806710  57.8681090  45.4547710  22.2396100  57.0488900  45.2654790
  26.0329350  51.5853420  35.7619980  25.2193960  51.0866590  35.6865290
  25.8391300  52.4251670  35.3456330  28.7477740  55.9573070  34.0582140
  29.6357360  56.2690300  33.8833480  28.7182830  55.0845320  33.6662720
  17.3413370  57.8291850  46.3768710  16.9828310  58.4945700  46.9642050
  17.0467930  56.9975400  46.7481330  20.5426490  58.2876090  49.2608260
  20.2426630  58.4333270  48.3636080  21.3137730  57.7281380  49.1681650
  31.0192010  57.2684910  33.5262000  30.9355730  57.6999130  32.6758440
  31.7386200  57.7283260  33.9588820  15.8521420  57.8283110  33.0003310
  16.7216270  58.1107910  33.2839230  15.3611740  58.6418980  32.8852120
  18.9168010  49.5593970  37.5934110  18.7882640  49.5511870  38.5419030
  18.0930030  49.8977060  37.2425120  15.9161940  51.3185090  47.0540810
  15.2020460  51.5182010  47.6593420  16.3356980  50.5424660  47.4255610
  27.4100720  53.8107400  44.8042260  27.7781540  52.9902610  45.1321830
  26.5498920  53.8709290  45.2197910  30.7762750  52.7664340  35.6129820
  30.1475910  52.8710010  34.8988050  30.2814670  52.9861120  36.4023700
  22.7446780  55.0450290  37.0287700  22.0362930  55.5136630  37.4701310
  23.0291260  54.3872300  37.6632890  24.3702710  56.4646990  45.0280230
  24.8687960  56.9392810  45.6932080  24.5125660  55.5410510  45.2350260
  26.7762210  51.7700950  38.4683490  26.6529990  51.7887080  37.5193000
  27.7246770  51.8179890  38.5881890  20.9481800  53.3535370  34.4038410
  21.7972330  53.7905520  34.3378600  20.5813070  53.6655630  35.2310470
  31.5769570  52.6814950  45.8708620  31.0743170  53.4220350  46.2102430
  32.3926230  53.0698950  45.5545410  29.8691580  57.9248130  39.3169980
  28.9281720  57.9398360  39.4917670  30.1835650  57.1384090  39.7630280
  18.5419980  57.0392800  33.5606830  18.6223570  56.0920310  33.6724230
  19.4339730  57.3699680  33.6667490  18.1013860  57.0037310  49.6913070
  18.1419200  56.7051180  50.5998300  18.9559360  57.4044920  49.5320590
  20.0419670  55.5829410  47.6587560  19.5116130  55.0920360  47.0310900
  20.7107740  56.0113610  47.1245490  29.4119900  57.3895030  49.4267900
  29.9940670  56.6347350  49.3388380  29.5881670  57.9202470  48.6499380
  20.5291970  52.5491780  47.7384850  20.4348840  51.9312530  47.0135720
  19.9489360  53.2758070  47.5114760  23.2953410  51.1065020  44.7712240
  22.8470710  51.1289280  43.9257790  22.6618610  50.7084040  45.3682540
  26.0376860  57.7335530  46.7762520  26.1573070  57.1376670  47.5157360
  26.8970860  57.7705220  46.3563820  20.7751150  55.6766090  31.7974740
  20.5740210  54.8133450  32.1588080  20.6043200  55.5899450  30.8596340
  22.8045630  54.2756880  48.0338340  23.3945320  53.9672730  48.7216160
  21.9865870  53.8036630  48.1898240  27.6239060  53.8922690  48.2671360
  26.9354580  53.2304230  48.2021350  28.3445080  53.4460960  48.7119820
  28.2539460  50.4874320  34.3261620  28.5341750  49.6442220  34.6821040
  27.4805190  50.7197430  34.8400370  19.5733950  52.7766710  31.7852620
  19.8759850  52.7834140  30.8771770  20.3128540  52.4264570  32.2820280
  22.7918880  51.7201330  32.7708820  22.4440880  51.0425320  32.1911270
  22.9931650  51.2590840  33.5852210  16.1324520  58.2488980  39.1673190
  15.4773360  57.9800620  38.5232890  16.9702470  58.1393460  38.7175170
  29.0814960  53.0430270  33.3891680  29.4999840  52.8561250  32.5488340
  28.7751020  52.1909320  33.6994610  32.5804690  57.9554410  37.0867480
  32.2048290  57.1882340  36.6548770  31.8507810  58.3377110  37.5742410
  17.1700450  58.6341550  43.7076530  17.5373490  58.5468950  44.5872550
  16.6011270  57.8708100  43.6083390  31.9704310  57.1025930  46.7207000
  31.7390400  56.8738680  45.8204950  32.2308860  58.0225480  46.6751890
  16.7216450  55.5450640  47.6134950  15.8272500  55.5117400  47.9528660
  17.2614000  55.7437430  48.3786200  30.4092380  52.3282360  49.4986700
  31.2862560  52.3365760  49.8820700  30.4213220  51.5913200  48.8879050
  15.3462600  55.4587910  35.1098520  14.4426680  55.7218110  34.9350180
  15.8303220  55.7299080  34.3298480  31.8555650  56.1811900  40.3874720
  32.3793130  55.6874550  39.7564890  32.4415070  56.3162260  41.1322290
  32.0345370  56.2651770  43.9094270  31.0848080  56.2315310  44.0239260
  32.2158380  57.1751880  43.6744040  17.8889810  54.5153450  33.0192900
  18.5981510  54.0936670  32.5340180  17.1729750  54.5828680  32.3876250
  17.5363970  50.5692780  32.0595550  18.2592100  51.1101720  32.3776770
  17.8088490  50.2956200  31.1837090  31.3455620  55.4385250  36.3267130
  31.8414740  55.2056120  37.1116010  31.1471690  54.5997090  35.9104770
  17.2256160  49.8198970  41.9618170  17.8732350  49.2696350  41.5213330
  17.6458000  50.0742120  42.7833980  32.7742780  54.0746200  38.8604810
  32.6642060  53.9202240  39.7987080  33.5350370  53.5467140  38.6180220
  31.1208500  50.0140330  45.3187810  31.7580720  50.6274470  45.6847000
  31.2683390  50.0500990  44.3737040  33.6633050  51.9054120  32.1010950
  34.5882360  51.7735300  31.8929240  33.6408840  51.9846940  33.0547400
  33.7371540  52.6764780  34.7267660  32.9423040  52.6109900  35.2560570
  33.9414820  53.6115420  34.7153010  16.9788160  49.9754640  44.7043490
  16.6302980  50.4318460  45.4701670  16.6475860  49.0811770  44.7865920
  24.4912980  51.1666520  48.2262910  24.4301870  51.7588350  48.9758320
  25.4313360  51.0592480  48.0813170  27.1287540  50.8236580  47.8655200
  27.7427950  51.1415870  47.2036280  27.6737100  50.3385170  48.4851060
  17.6508800  49.5030840  47.9794260  18.1991790  49.3218890  47.2160370
  17.7164110  48.7124950  48.5150570  27.8695580  49.3868720  44.1924490
  26.9955420  49.7203830  43.9897420  27.7606330  48.9141900  45.0176360
  28.7767560  51.5939590  45.5766210  28.4480920  50.7791350  45.1967940
  29.7249860  51.5509400  45.4531900  25.6170400  50.3038560  43.1317400
  24.8342190  50.7784060  43.4114160  25.3233330  49.3993390  43.0230580
  30.1691470  51.0061660  41.1766490  30.6099560  50.9506760  40.3288090
  29.8999060  51.9219670  41.2476670  32.0330040  50.6376900  39.1875310
  31.9718440  49.6938120  39.0406330  32.8122070  50.7456990  39.7328770
  16.9610810  50.6086040  35.6531120  17.7190170  50.7214920  35.0795150
  16.4987980  51.4455240  35.6074550  23.5024620  52.7225310  38.6433430
  22.6899130  52.3482200  38.3029310  24.0066260  51.9670390  38.9454620
  28.0049600  49.3867760  39.8816500  28.6078970  49.9587970  40.3565020
  27.2642590  49.9507200  39.6590400  31.1484200  49.7889320  35.1556780
  31.3434830  50.6872770  35.4224210  30.3614070  49.5576400  35.6489730
  19.3335960  51.1350090  34.1933090  19.8628720  50.3479890  34.0641040
  19.9664280  51.8141280  34.4268620  21.5273800  50.8725230  37.2478480
  20.8976540  50.1712540  37.4148610  20.9878940  51.6329360  37.0311640
  21.6529360  50.1509210  49.6830970  21.3713630  50.6542810  48.9191790
  22.0349060  49.3530960  49.3173100  28.2544820  49.5662790  50.2611440
  28.1410270  49.8857400  51.1562960  29.0714560  49.9675300  49.9648720
  27.1602970  57.5855260  20.6246180  27.0797020  56.6709870  20.3537890
  26.7467390  58.0822330  19.9185890  17.7178790  54.6355980  17.1673600
  16.8295490  54.9771950  17.0653480  18.0019980  54.4356300  16.2754430
  15.6811800  57.2361630  23.0513300  16.2527910  56.4683830  23.0516940
  15.6813340  57.5350390  22.1419910  16.9236670  52.6445990  24.8382230
  16.7439510  51.7471740  25.1184990  16.5216750  53.1917860  25.5129180
  25.7635170  54.8461850  22.7394540  26.1399990  53.9733730  22.6268210
  25.6654680  55.1820550  21.8484980  19.8940180  53.2187480  18.2011980
  20.0006930  54.1191210  18.5080740  18.9832540  53.1705450  17.9106630
  29.5459290  52.3412290  19.6722880  30.3668910  51.8508860  19.7148360
  29.5793370  52.9309950  20.4254720  17.5423340  55.1406490  23.4464570
  18.2233450  55.4044860  24.0651970  17.2271390  54.3007360  23.7802580
  21.7347910  56.1873850  22.5337160  22.2426130  56.6854820  23.1742180
  22.2661150  55.4109050  22.3576520  33.8358840  54.3579040  26.2366510
  33.1311010  54.7460750  25.7181620  34.1016760  55.0529330  26.8387440
  20.0184010  50.8272410  26.8000580  20.0202450  51.3444800  25.9946480
  19.1888320  50.3502590  26.7770510  29.7820770  54.2812670  22.4450420
  29.0776340  54.5697560  23.0253530  30.1432930  55.0912780  22.0849980
  19.6999340  52.5382370  24.8071030  20.0416150  53.3824420  24.5124900
  18.7615150  52.6866110  24.9236370  32.8507690  53.7267460  22.8359630
  31.9032600  53.7606440  22.9675060  33.1757680  54.5406410  23.2208990
  23.3827230  50.0264640  21.1315620  23.6902210  49.4711530  20.4151120
  22.4527930  50.1609100  20.9488610  25.7577070  54.3630470  14.8642900
  24.8180740  54.5244430  14.9495360  26.0760330  55.0816150  14.3178890
  29.2431840  55.8318310  25.7876800  28.8303020  56.6572020  26.0416790
  28.5107790  55.2463350  25.5953160  21.3764630  58.6178210  20.6495470
  20.9721630  57.9055460  20.1541370  21.4627750  58.2731450  21.5383510
  20.0893250  55.3921420  24.4294510  20.6407840  55.5016760  23.6547760
  20.6036760  55.7659020  25.1449740  31.5587120  50.1463390  13.6924780
  31.2459780  50.2390220  14.5923850  32.3199590  50.7244420  13.6422210
  18.0769260  57.5123190  18.1502120  17.9566860  58.2385280  17.5383390
  17.7670150  56.7426100  17.6730030  32.7688410  54.8834890  29.6698920
  32.1532680  55.3914560  29.1414380  32.4484830  53.9833220  29.6124860
  20.5432920  50.8558260  21.5325790  20.1001070  51.6367800  21.2010310
  21.1017910  51.1788150  22.2396730  24.8302730  53.7226780  27.1361110
  24.3682100  53.9309800  27.9481050  24.4280840  52.9086130  26.8331780
  29.8307240  54.9435730  28.2657770  28.9800830  54.6441480  28.5866840
  29.6709030  55.1877740  27.3541590  26.9256950  56.4437480  30.3656560
  27.2510360  55.6101230  30.0258790  27.7137280  56.9666000  30.5134890
  23.6591740  50.4768960  16.4131620  23.0345920  50.4728830  17.1384930
  23.5721860  49.6099920  16.0167590  22.5808820  51.4005590  23.3915390
  22.8781150  52.3068420  23.3107410  23.1294380  50.9124370  22.7774960
  20.3347140  55.9791830  19.2607040  20.1088060  55.7629000  20.1653660
  19.5539670  56.4120290  18.9153010  27.5644900  55.9855200  17.8597690
  26.9653790  56.7091000  17.6761310  28.1124510  55.9231980  17.0774140
  22.7746350  56.8777410  29.9267310  22.6789950  55.9372140  29.7767710
  23.6178330  57.0992480  29.5315380  26.1709770  54.6218740  19.8900970
  26.5639340  54.9390940  19.0769660  26.5326620  53.7430620  20.0045490
  17.9056890  53.2891080  28.0801090  17.5120280  54.1366290  28.2873870
  17.2175290  52.6517450  28.2709730  24.4801940  53.3726050  31.1497830
  23.7900260  53.1798250  31.7843920  25.2234240  53.6560690  31.6822130
  15.2073940  51.2119540  22.1131170  14.9186990  51.7822400  22.8256150
  15.9519700  50.7323990  22.4762400  15.3944170  55.1539660  13.3233890
  15.3118840  56.0970420  13.4648880  15.0427230  55.0114570  12.4446240
  26.7564910  57.2124490  23.9851750  26.0246030  57.7211300  24.3341850
  26.3589250  56.3954470  23.6840530  23.1942300  53.8878690  22.3904240
  23.1978360  53.4468640  21.5408780  24.0893420  54.2096020  22.4976060
  19.0444680  53.7705180  21.3498450  18.7044730  54.2480410  22.1065500
  18.2822000  53.3170300  20.9899550  23.2562450  54.8890770  15.3811000
  23.3775270  54.8477250  16.3296820  22.8710960  55.7514920  15.2257730
  27.2190820  52.6658170  23.3974690  27.2363560  53.1166820  24.2416540
  26.9706400  51.7663810  23.6108130  22.2683950  57.1991910  14.7794300
  21.7000850  56.7510160  14.1530210  22.9772950  57.5584690  14.2459450
  30.6461570  50.0790350  29.2361070  30.9707340  49.3480010  29.7619050
  30.6818080  49.7603990  28.3342060  23.4950270  57.9480470  24.1369650
  23.8620400  57.4739040  24.8830990  23.3055330  58.8222040  24.4777990
  16.3590760  52.6924160  20.2663120  16.0737680  52.3279830  21.1041740
  16.2969620  51.9604620  19.6526260  21.2849640  56.9889110  26.4553860
  20.9806710  57.8681090  26.6804220  22.2396100  57.0488900  26.4911300
  26.0329350  51.5853420  16.9876490  25.2193960  51.0866590  16.9121800
  25.8391300  52.4251670  16.5712840  28.7477740  55.9573070  15.2838650
  29.6357360  56.2690300  15.1089990  28.7182830  55.0845320  14.8919230
  17.3413370  57.8291850  27.6025220  16.9828310  58.4945700  28.1898560
  17.0467930  56.9975400  27.9737840  20.5426490  58.2876090  30.4864770
  20.2426630  58.4333270  29.5892590  21.3137730  57.7281380  30.3938160
  31.0192010  57.2684910  14.7518510  30.9355730  57.6999130  13.9014950
  31.7386200  57.7283260  15.1845330  15.8521420  57.8283110  14.2259820
  16.7216270  58.1107910  14.5095740  15.3611740  58.6418980  14.1108630
  18.9168010  49.5593970  18.8190620  18.7882640  49.5511870  19.7675540
  18.0930030  49.8977060  18.4681630  15.9161940  51.3185090  28.2797320
  15.2020460  51.5182010  28.8849930  16.3356980  50.5424660  28.6512120
  27.4100720  53.8107400  26.0298770  27.7781540  52.9902610  26.3578340
  26.5498920  53.8709290  26.4454420  30.7762750  52.7664340  16.8386330
  30.1475910  52.8710010  16.1244560  30.2814670  52.9861120  17.6280210
  22.7446780  55.0450290  18.2544210  22.0362930  55.5136630  18.6957820
  23.0291260  54.3872300  18.8889400  24.3702710  56.4646990  26.2536740
  24.8687960  56.9392810  26.9188590  24.5125660  55.5410510  26.4606770
  26.7762210  51.7700950  19.6940000  26.6529990  51.7887080  18.7449510
  27.7246770  51.8179890  19.8138400  20.9481800  53.3535370  15.6294920
  21.7972330  53.7905520  15.5635110  20.5813070  53.6655630  16.4566980
  31.5769570  52.6814950  27.0965130  31.0743170  53.4220350  27.4358940
  32.3926230  53.0698950  26.7801920  29.8691580  57.9248130  20.5426490
  28.9281720  57.9398360  20.7174180  30.1835650  57.1384090  20.9886790
  18.5419980  57.0392800  14.7863340  18.6223570  56.0920310  14.8980740
  19.4339730  57.3699680  14.8924000  18.1013860  57.0037310  30.9169580
  18.1419200  56.7051180  31.8254810  18.9559360  57.4044920  30.7577100
  20.0419670  55.5829410  28.8844070  19.5116130  55.0920360  28.2567410
  20.7107740  56.0113610  28.3502000  29.4119900  57.3895030  30.6524410
  29.9940670  56.6347350  30.5644890  29.5881670  57.9202470  29.8755890
  20.5291970  52.5491780  28.9641360  20.4348840  51.9312530  28.2392230
  19.9489360  53.2758070  28.7371270  23.2953410  51.1065020  25.9968750
  22.8470710  51.1289280  25.1514300  22.6618610  50.7084040  26.5939050
  26.0376860  57.7335530  28.0019030  26.1573070  57.1376670  28.7413870
  26.8970860  57.7705220  27.5820330  20.7751150  55.6766090  13.0231250
  20.5740210  54.8133450  13.3844590  20.6043200  55.5899450  12.0852850
  22.8045630  54.2756880  29.2594850  23.3945320  53.9672730  29.9472670
  21.9865870  53.8036630  29.4154750  27.6239060  53.8922690  29.4927870
  26.9354580  53.2304230  29.4277860  28.3445080  53.4460960  29.9376330
  28.2539460  50.4874320  15.5518130  28.5341750  49.6442220  15.9077550
  27.4805190  50.7197430  16.0656880  19.5733950  52.7766710  13.0109130
  19.8759850  52.7834140  12.1028280  20.3128540  52.4264570  13.5076790
  22.7918880  51.7201330  13.9965330  22.4440880  51.0425320  13.4167780
  22.9931650  51.2590840  14.8108720  16.1324520  58.2488980  20.3929700
  15.4773360  57.9800620  19.7489400  16.9702470  58.1393460  19.9431680
  29.0814960  53.0430270  14.6148190  29.4999840  52.8561250  13.7744850
  28.7751020  52.1909320  14.9251120  32.5804690  57.9554410  18.3123990
  32.2048290  57.1882340  17.8805280  31.8507810  58.3377110  18.7998920
  17.1700450  58.6341550  24.9333040  17.5373490  58.5468950  25.8129060
  16.6011270  57.8708100  24.8339900  31.9704310  57.1025930  27.9463510
  31.7390400  56.8738680  27.0461460  32.2308860  58.0225480  27.9008400
  16.7216450  55.5450640  28.8391460  15.8272500  55.5117400  29.1785170
  17.2614000  55.7437430  29.6042710  30.4092380  52.3282360  30.7243210
  31.2862560  52.3365760  31.1077210  30.4213220  51.5913200  30.1135560
  15.3462600  55.4587910  16.3355030  14.4426680  55.7218110  16.1606690
  15.8303220  55.7299080  15.5554990  31.8555650  56.1811900  21.6131230
  32.3793130  55.6874550  20.9821400  32.4415070  56.3162260  22.3578800
  32.0345370  56.2651770  25.1350780  31.0848080  56.2315310  25.2495770
  32.2158380  57.1751880  24.9000550  17.8889810  54.5153450  14.2449410
  18.5981510  54.0936670  13.7596690  17.1729750  54.5828680  13.6132760
  17.5363970  50.5692780  13.2852060  18.2592100  51.1101720  13.6033280
  17.8088490  50.2956200  12.4093600  31.3455620  55.4385250  17.5523640
  31.8414740  55.2056120  18.3372520  31.1471690  54.5997090  17.1361280
  17.2256160  49.8198970  23.1874680  17.8732350  49.2696350  22.7469840
  17.6458000  50.0742120  24.0090490  32.7742780  54.0746200  20.0861320
  32.6642060  53.9202240  21.0243590  33.5350370  53.5467140  19.8436730
  31.1208500  50.0140330  26.5444320  31.7580720  50.6274470  26.9103510
  31.2683390  50.0500990  25.5993550  33.6633050  51.9054120  13.3267460
  34.5882360  51.7735300  13.1185750  33.6408840  51.9846940  14.2803910
  33.7371540  52.6764780  15.9524170  32.9423040  52.6109900  16.4817080
  33.9414820  53.6115420  15.9409520  16.9788160  49.9754640  25.9300000
  16.6302980  50.4318460  26.6958180  16.6475860  49.0811770  26.0122430
  24.4912980  51.1666520  29.4519420  24.4301870  51.7588350  30.2014830
  25.4313360  51.0592480  29.3069680  27.1287540  50.8236580  29.0911710
  27.7427950  51.1415870  28.4292790  27.6737100  50.3385170  29.7107570
  17.6508800  49.5030840  29.2050770  18.1991790  49.3218890  28.4416880
  17.7164110  48.7124950  29.7407080  27.8695580  49.3868720  25.4181000
  26.9955420  49.7203830  25.2153930  27.7606330  48.9141900  26.2432870
  28.7767560  51.5939590  26.8022720  28.4480920  50.7791350  26.4224450
  29.7249860  51.5509400  26.6788410  25.6170400  50.3038560  24.3573910
  24.8342190  50.7784060  24.6370670  25.3233330  49.3993390  24.2487090
  30.1691470  51.0061660  22.4023000  30.6099560  50.9506760  21.5544600
  29.8999060  51.9219670  22.4733180  32.0330040  50.6376900  20.4131820
  31.9718440  49.6938120  20.2662840  32.8122070  50.7456990  20.9585280
  16.9610810  50.6086040  16.8787630  17.7190170  50.7214920  16.3051660
  16.4987980  51.4455240  16.8331060  23.5024620  52.7225310  19.8689940
  22.6899130  52.3482200  19.5285820  24.0066260  51.9670390  20.1711130
  28.0049600  49.3867760  21.1073010  28.6078970  49.9587970  21.5821530
  27.2642590  49.9507200  20.8846910  31.1484200  49.7889320  16.3813290
  31.3434830  50.6872770  16.6480720  30.3614070  49.5576400  16.8746240
  19.3335960  51.1350090  15.4189600  19.8628720  50.3479890  15.2897550
  19.9664280  51.8141280  15.6525130  21.5273800  50.8725230  18.4734990
  20.8976540  50.1712540  18.6405120  20.9878940  51.6329360  18.2568150
  21.6529360  50.1509210  30.9087480  21.3713630  50.6542810  30.1448300
  22.0349060  49.3530960  30.5429610  28.2544820  49.5662790  31.4867950
  28.1410270  49.8857400  32.3819470  29.0714560  49.9675300  31.1905230
  15.6811800  57.2361630   4.2769810  16.2527910  56.4683830   4.2773450
  15.6813340  57.5350390   3.3676420  16.9236670  52.6445990   6.0638740
  16.7439510  51.7471740   6.3441500  16.5216750  53.1917860   6.7385690
  25.7635170  54.8461850   3.9651050  26.1399990  53.9733730   3.8524720
  25.6654680  55.1820550   3.0741490  17.5423340  55.1406490   4.6721080
  18.2233450  55.4044860   5.2908480  17.2271390  54.3007360   5.0059090
  21.7347910  56.1873850   3.7593670  22.2426130  56.6854820   4.3998690
  22.2661150  55.4109050   3.5833030  33.8358840  54.3579040   7.4623020
  33.1311010  54.7460750   6.9438130  34.1016760  55.0529330   8.0643950
  20.0184010  50.8272410   8.0257090  20.0202450  51.3444800   7.2202990
  19.1888320  50.3502590   8.0027020  29.7820770  54.2812670   3.6706930
  29.0776340  54.5697560   4.2510040  30.1432930  55.0912780   3.3106490
  19.6999340  52.5382370   6.0327540  20.0416150  53.3824420   5.7381410
  18.7615150  52.6866110   6.1492880  32.8507690  53.7267460   4.0616140
  31.9032600  53.7606440   4.1931570  33.1757680  54.5406410   4.4465500
  29.2431840  55.8318310   7.0133310  28.8303020  56.6572020   7.2673300
  28.5107790  55.2463350   6.8209670  20.0893250  55.3921420   5.6551020
  20.6407840  55.5016760   4.8804270  20.6036760  55.7659020   6.3706250
  32.7688410  54.8834890  10.8955430  32.1532680  55.3914560  10.3670890
  32.4484830  53.9833220  10.8381370  20.5432920  50.8558260   2.7582300
  20.1001070  51.6367800   2.4266820  21.1017910  51.1788150   3.4653240
  24.8302730  53.7226780   8.3617620  24.3682100  53.9309800   9.1737560
  24.4280840  52.9086130   8.0588290  29.8307240  54.9435730   9.4914280
  28.9800830  54.6441480   9.8123350  29.6709030  55.1877740   8.5798100
  26.9256950  56.4437480  11.5913070  27.2510360  55.6101230  11.2515300
  27.7137280  56.9666000  11.7391400  22.5808820  51.4005590   4.6171900
  22.8781150  52.3068420   4.5363920  23.1294380  50.9124370   4.0031470
  22.7746350  56.8777410  11.1523820  22.6789950  55.9372140  11.0024220
  23.6178330  57.0992480  10.7571890  17.9056890  53.2891080   9.3057600
  17.5120280  54.1366290   9.5130380  17.2175290  52.6517450   9.4966240
  24.4801940  53.3726050  12.3754340  23.7900260  53.1798250  13.0100430
  25.2234240  53.6560690  12.9078640  15.2073940  51.2119540   3.3387680
  14.9186990  51.7822400   4.0512660  15.9519700  50.7323990   3.7018910
  26.7564910  57.2124490   5.2108260  26.0246030  57.7211300   5.5598360
  26.3589250  56.3954470   4.9097040  23.1942300  53.8878690   3.6160750
  23.1978360  53.4468640   2.7665290  24.0893420  54.2096020   3.7232570
  19.0444680  53.7705180   2.5754960  18.7044730  54.2480410   3.3322010
  18.2822000  53.3170300   2.2156060  27.2190820  52.6658170   4.6231200
  27.2363560  53.1166820   5.4673050  26.9706400  51.7663810   4.8364640
  30.6461570  50.0790350  10.4617580  30.9707340  49.3480010  10.9875560
  30.6818080  49.7603990   9.5598570  23.4950270  57.9480470   5.3626160
  23.8620400  57.4739040   6.1087500  23.3055330  58.8222040   5.7034500
  21.2849640  56.9889110   7.6810370  20.9806710  57.8681090   7.9060730
  22.2396100  57.0488900   7.7167810  17.3413370  57.8291850   8.8281730
  16.9828310  58.4945700   9.4155070  17.0467930  56.9975400   9.1994350
  20.5426490  58.2876090  11.7121280  20.2426630  58.4333270  10.8149100
  21.3137730  57.7281380  11.6194670  15.9161940  51.3185090   9.5053830
  15.2020460  51.5182010  10.1106440  16.3356980  50.5424660   9.8768630
  27.4100720  53.8107400   7.2555280  27.7781540  52.9902610   7.5834850
  26.5498920  53.8709290   7.6710930  24.3702710  56.4646990   7.4793250
  24.8687960  56.9392810   8.1445100  24.5125660  55.5410510   7.6863280
  31.5769570  52.6814950   8.3221640  31.0743170  53.4220350   8.6615450
  32.3926230  53.0698950   8.0058430  29.8691580  57.9248130   1.7683000
  28.9281720  57.9398360   1.9430690  30.1835650  57.1384090   2.2143300
  18.1013860  57.0037310  12.1426090  18.1419200  56.7051180  13.0511320
  18.9559360  57.4044920  11.9833610  20.0419670  55.5829410  10.1100580
  19.5116130  55.0920360   9.4823920  20.7107740  56.0113610   9.5758510
  29.4119900  57.3895030  11.8780920  29.9940670  56.6347350  11.7901400
  29.5881670  57.9202470  11.1012400  20.5291970  52.5491780  10.1897870
  20.4348840  51.9312530   9.4648740  19.9489360  53.2758070   9.9627780
  23.2953410  51.1065020   7.2225260  22.8470710  51.1289280   6.3770810
  22.6618610  50.7084040   7.8195560  26.0376860  57.7335530   9.2275540
  26.1573070  57.1376670   9.9670380  26.8970860  57.7705220   8.8076840
  22.8045630  54.2756880  10.4851360  23.3945320  53.9672730  11.1729180
  21.9865870  53.8036630  10.6411260  27.6239060  53.8922690  10.7184380
  26.9354580  53.2304230  10.6534370  28.3445080  53.4460960  11.1632840
  17.1700450  58.6341550   6.1589550  17.5373490  58.5468950   7.0385570
  16.6011270  57.8708100   6.0596410  31.9704310  57.1025930   9.1720020
  31.7390400  56.8738680   8.2717970  32.2308860  58.0225480   9.1264910
  16.7216450  55.5450640  10.0647970  15.8272500  55.5117400  10.4041680
  17.2614000  55.7437430  10.8299220  30.4092380  52.3282360  11.9499720
  31.2862560  52.3365760  12.3333720  30.4213220  51.5913200  11.3392070
  31.8555650  56.1811900   2.8387740  32.3793130  55.6874550   2.2077910
  32.4415070  56.3162260   3.5835310  32.0345370  56.2651770   6.3607290
  31.0848080  56.2315310   6.4752280  32.2158380  57.1751880   6.1257060
  17.2256160  49.8198970   4.4131190  17.8732350  49.2696350   3.9726350
  17.6458000  50.0742120   5.2347000  31.1208500  50.0140330   7.7700830
  31.7580720  50.6274470   8.1360020  31.2683390  50.0500990   6.8250060
  16.9788160  49.9754640   7.1556510  16.6302980  50.4318460   7.9214690
  16.6475860  49.0811770   7.2378940  24.4912980  51.1666520  10.6775930
  24.4301870  51.7588350  11.4271340  25.4313360  51.0592480  10.5326190
  27.1287540  50.8236580  10.3168220  27.7427950  51.1415870   9.6549300
  27.6737100  50.3385170  10.9364080  17.6508800  49.5030840  10.4307280
  18.1991790  49.3218890   9.6673390  17.7164110  48.7124950  10.9663590
  27.8695580  49.3868720   6.6437510  26.9955420  49.7203830   6.4410440
  27.7606330  48.9141900   7.4689380  28.7767560  51.5939590   8.0279230
  28.4480920  50.7791350   7.6480960  29.7249860  51.5509400   7.9044920
  25.6170400  50.3038560   5.5830420  24.8342190  50.7784060   5.8627180
  25.3233330  49.3993390   5.4743600  30.1691470  51.0061660   3.6279510
  30.6099560  50.9506760   2.7801110  29.8999060  51.9219670   3.6989690
  28.0049600  49.3867760   2.3329520  28.6078970  49.9587970   2.8078040
  27.2642590  49.9507200   2.1103420  21.6529360  50.1509210  12.1343990
  21.3713630  50.6542810  11.3704810  22.0349060  49.3530960  11.7686120
  28.2544820  49.5662790  12.7124460  28.1410270  49.8857400  13.6075980
  29.0714560  49.9675300  12.4161740  27.1602970  38.8111770  58.1733160
  27.0797020  37.8966380  57.9024870  26.7467390  39.3078840  57.4672870
  25.2921010  40.5890790  60.0542430  24.5163110  40.1091230  60.3441000
  25.9433940  39.9096440  59.8798590  29.3128440  44.9950980  58.8341560
  28.8509970  44.2238220  59.1628730  30.1253990  45.0217050  59.3394010
  19.2888100  44.9350690  61.1276210  19.5916140  44.0448430  60.9486430
  20.0331690  45.4920910  60.8998460  17.7178790  35.8612490  54.7160580
  16.8295490  36.2028460  54.6140460  18.0019980  35.6612810  53.8241410
  15.6811800  38.4618140  60.6000280  16.2527910  37.6940340  60.6003920
  15.6813340  38.7606900  59.6906890  25.5391750  47.2808990  58.4545550
  24.9203190  47.7366490  57.8839990  26.3943530  47.4360450  58.0535250
  24.7330000  43.2647980  60.0612590  24.6638280  42.3237920  59.9001720
  25.4949860  43.3549390  60.6335160  25.7635170  36.0718360  60.2881520
  26.1399990  35.1990240  60.1755190  25.6654680  36.4077060  59.3971960
  19.8940180  34.4443990  55.7498960  20.0006930  35.3447720  56.0567720
  18.9832540  34.3961960  55.4593610  29.5459290  33.5668800  57.2209860
  30.3668910  33.0765370  57.2635340  29.5793370  34.1566460  57.9741700
  21.7347910  37.4130360  60.0824140  22.2426130  37.9111330  60.7229160
  22.2661150  36.6365560  59.9063500  26.4055100  42.1648230  55.8477460
  25.7872370  42.6297680  55.2840180  26.9178350  42.8575710  56.2646970
  29.7820770  35.5069180  59.9937400  29.0776340  35.7954070  60.5740510
  30.1432930  36.3169290  59.6336960  15.7738300  42.8504760  53.2217090
  15.3966280  43.3391860  52.4901990  16.0311370  43.5230040  53.8523620
  32.8507690  34.9523970  60.3846610  31.9032600  34.9862950  60.5162040
  33.1757680  35.7662920  60.7695970  23.3827230  31.2521150  58.6802600
  23.6902210  30.6968040  57.9638100  22.4527930  31.3865610  58.4975590
  28.9342290  46.9688440  60.9710060  28.9469450  46.5650730  60.1032320
  28.3817510  47.7435730  60.8671490  30.2287710  43.6904660  56.0600230
  30.1184040  42.7478990  56.1849650  30.2255960  44.0520300  56.9462990
  25.7707990  39.3169980  55.4162720  24.8437270  39.2507360  55.6451190
  25.9232810  40.2550110  55.3017960  25.7577070  35.5886980  52.4129880
  24.8180740  35.7500940  52.4982340  26.0760330  36.3072660  51.8665870
  29.8005280  40.8790280  55.9197970  29.1817700  40.5409830  55.2724270
  29.7829730  40.2350040  56.6277160  21.3764630  39.8434720  58.1982450
  20.9721630  39.1311970  57.7028350  21.4627750  39.4987960  59.0870490
  21.8446330  43.5302280  60.3621660  21.5474620  42.9247750  59.6829440
  22.7946150  43.5679590  60.2511020  27.9769980  40.1177090  52.9270720
  28.4163260  39.2799520  52.7808540  28.6898400  40.7506490  53.0134860
  26.0865360  45.0573160  56.8951960  26.5261270  45.7997490  56.4807350
  26.0252250  45.2999730  57.8190920  31.5587120  31.3719900  51.2411760
  31.2459780  31.4646730  52.1410830  32.3199590  31.9500930  51.1909190
  18.0769260  38.7379700  55.6989100  17.9566860  39.4641790  55.0870370
  17.7670150  37.9682610  55.2217010  16.9602260  43.6095030  57.9163920
  16.5530340  43.7509620  57.0617520  17.8515270  43.3255190  57.7135130
  28.7535540  48.0442280  54.2514970  28.5936680  47.7545220  55.1496800
  28.5882250  47.2682410  53.7160200  21.2323920  47.8240810  56.0286590
  21.0566400  46.9076350  55.8154390  20.3779660  48.1828100  56.2684390
  28.4561670  45.5529840  52.8112970  27.7626830  45.5507130  52.1515250
  29.1984530  45.1289160  52.3807140  28.0211600  47.1792550  56.8861460
  28.4768550  46.3981930  57.2000080  28.3604120  47.8899370  57.4302640
  20.5432920  32.0814770  59.0812770  20.1001070  32.8624310  58.7497290
  21.1017910  32.4044660  59.7883710  23.6591740  31.7025470  53.9618600
  23.0345920  31.6985340  54.6871910  23.5721860  30.8356430  53.5654570
  22.5808820  32.6262100  60.9402370  22.8781150  33.5324930  60.8594390
  23.1294380  32.1380880  60.3261940  20.3347140  37.2048340  56.8094020
  20.1088060  36.9885510  57.7140640  19.5539670  37.6376800  56.4639990
  27.5644900  37.2111710  55.4084670  26.9653790  37.9347510  55.2248290
  28.1124510  37.1488490  54.6261120  26.1709770  35.8475250  57.4387950
  26.5639340  36.1647450  56.6256640  26.5326620  34.9687130  57.5532470
  15.2073940  32.4376050  59.6618150  14.9186990  33.0078910  60.3743130
  15.9519700  31.9580500  60.0249380  15.3944170  36.3796170  50.8720870
  15.3118840  37.3226930  51.0135860  15.0427230  36.2371080  49.9933220
  23.1942300  35.1135200  59.9391220  23.1978360  34.6725150  59.0895760
  24.0893420  35.4352530  60.0463040  19.0444680  34.9961690  58.8985430
  18.7044730  35.4736920  59.6552480  18.2822000  34.5426810  58.5386530
  23.2562450  36.1147280  52.9297980  23.3775270  36.0733760  53.8783800
  22.8710960  36.9771430  52.7744710  22.2683950  38.4248420  52.3281280
  21.7000850  37.9766670  51.7017190  22.9772950  38.7841200  51.7946430
  16.3590760  33.9180670  57.8150100  16.0737680  33.5536340  58.6528720
  16.2969620  33.1861130  57.2013240  19.8131430  42.4206610  54.6007690
  19.0393690  41.8804230  54.4406410  20.5426060  41.9013220  54.2625450
  30.5719410  41.4171970  60.3934080  31.2918530  41.9127260  60.0030190
  30.3701230  40.7389860  59.7487950  26.0329350  32.8109930  54.5363470
  25.2193960  32.3123100  54.4608780  25.8391300  33.6508180  54.1199820
  28.7477740  37.1829580  52.8325630  29.6357360  37.4946810  52.6576970
  28.7182830  36.3101830  52.4406210  19.8568830  42.0886990  58.2386500
  20.3747500  41.2855250  58.1843390  19.4052850  42.0266130  59.0803330
  24.7438330  43.3553270  53.5113800  25.0854030  44.0995500  53.0157120
  23.9151040  43.6684390  53.8738630  31.0192010  38.4941420  52.3005490
  30.9355730  38.9255640  51.4501930  31.7386200  38.9539770  52.7332310
  32.0479260  45.3483680  55.0287620  31.4055420  44.6939300  55.3031340
  31.6609920  45.7538770  54.2528290  27.6265740  42.6769110  58.8759310
  27.9789560  42.0797240  58.2160680  26.7428070  42.3513340  59.0467560
  23.7129020  43.4366800  56.2829720  24.4000150  43.9836010  56.6637310
  22.9261440  43.9807530  56.3179330  15.8521420  39.0539620  51.7746800
  16.7216270  39.3364420  52.0582720  15.3611740  39.8675490  51.6595610
  23.0156230  40.4412830  55.8955080  23.4719010  41.2518080  56.1215270
  22.6644440  40.1235970  56.7273570  18.9168010  30.7850480  56.3677600
  18.7882640  30.7768380  57.3162520  18.0930030  31.1233570  56.0168610
  30.4376640  44.2400140  51.5663970  30.2114220  43.5230580  52.1588610
  30.0472840  43.9912580  50.7285720  16.2192670  48.2667000  52.3408430
  16.5790310  48.8656340  51.6865700  16.0785010  48.8126890  53.1143460
  30.0192890  42.1572080  53.2278130  29.7314590  42.6184770  54.0156010
  30.8145060  41.6969850  53.4962350  22.2361290  45.6498200  53.1582100
  22.2271390  46.3827890  52.5426610  21.3159650  45.4029780  53.2509060
  17.8367930  40.8713090  53.9028860  17.2295880  41.6111990  53.9124160
  18.3117280  40.9612450  53.0767060  30.7762750  33.9920850  54.3873310
  30.1475910  34.0966520  53.6731540  30.2814670  34.2117630  55.1767190
  25.2220890  45.7126440  51.8207290  25.3232870  45.5090430  50.8909270
  24.3222630  45.4584720  52.0255070  22.7446780  36.2706800  55.8031190
  22.0362930  36.7393140  56.2444800  23.0291260  35.6128810  56.4376380
  26.7762210  32.9957460  57.2426980  26.6529990  33.0143590  56.2936490
  27.7246770  33.0436400  57.3625380  23.8639000  48.2312760  56.5154960
  24.1180500  48.1934150  55.5934330  22.9151480  48.1046090  56.5083210
  20.9481800  34.5791880  53.1781900  21.7972330  35.0162030  53.1122090
  20.5813070  34.8912140  54.0053960  29.8691580  39.1504640  58.0913470
  28.9281720  39.1654870  58.2661160  30.1835650  38.3640600  58.5373770
  19.8473220  40.8324240  51.6517430  20.6136490  40.7205600  52.2142860
  19.9247910  40.1362210  50.9994200  18.5419980  38.2649310  52.3350320
  18.6223570  37.3176820  52.4467720  19.4339730  38.5956190  52.4410980
  31.8717160  46.3213490  59.7667730  31.9964580  47.1444660  60.2391540
  32.7382720  46.1104220  59.4191880  19.3434690  48.4144700  59.4384860
  20.0797170  47.8660160  59.7093430  19.7275610  49.2800710  59.2990850
  16.2280170  44.4818270  55.3126370  15.3019950  44.7239410  55.3031780
  16.6936600  45.3092530  55.1911120  22.4537000  47.5875010  51.2610430
  23.2465610  47.8763840  50.8092220  21.9341350  47.1567180  50.5822910
  31.5067170  46.8145140  52.6847170  31.2208680  46.4010280  51.8701350
  31.3086720  47.7432850  52.5647690  22.9714400  42.8078420  51.1252780
  22.8665040  42.1930770  51.8514160  22.8038620  42.2844310  50.3415790
  26.2117130  41.8698450  51.7294770  25.6627230  42.3167750  52.3737510
  26.8336390  41.3647700  52.2532440  21.8792250  40.8289370  53.6260070
  22.3008670  40.6629240  54.4691460  22.0043090  40.0189600  53.1315210
  24.3919890  39.8526980  50.8737170  24.9125550  39.1376000  50.5078320
  25.0388290  40.4912850  51.1737680  20.7751150  36.9022600  50.5718230
  20.5740210  36.0389960  50.9331570  20.6043200  36.8155960  49.6339830
  28.2539460  31.7130830  53.1005110  28.5341750  30.8698730  53.4564530
  27.4805190  31.9453940  53.6143860  19.5733950  34.0023220  50.5596110
  19.8759850  34.0090650  49.6515260  20.3128540  33.6521080  51.0563770
  22.7918880  32.9457840  51.5452310  22.4440880  32.2681830  50.9654760
  22.9931650  32.4847350  52.3595700  24.9567920  47.9338590  53.1638910
  25.8518710  48.2723560  53.1857670  24.9885550  47.2118000  52.5363190
  18.5964080  43.3065640  51.3925910  19.0338950  43.8495310  52.0483490
  19.0811810  42.4812590  51.4022250  15.8109880  46.0954670  58.8446170
  16.1412890  45.2275730  58.6124810  16.2400880  46.3013190  59.6751130
  20.4071800  44.4263680  56.5048140  20.1067340  44.3028650  57.4052050
  20.3009290  43.5672270  56.0963870  33.1763720  44.2060080  51.2074820
  32.3456680  44.2736730  51.6782050  33.3535550  45.0964200  50.9041680
  32.6320180  40.9507560  53.7109020  33.3939090  41.5204210  53.8168710
  32.6474550  40.3834760  54.4817330  16.1324520  39.4745490  57.9416680
  15.4773360  39.2057130  57.2976380  16.9702470  39.3649970  57.4918660
  33.6380150  41.8057660  58.5550950  34.0088980  41.0224980  58.1486920
  34.2782080  42.4946760  58.3768250  32.6839350  41.2441930  50.8681540
  32.9588190  42.1520810  50.7400760  32.4950090  41.1804460  51.8043530
  29.0814960  34.2686780  52.1635170  29.4999840  34.0817760  51.3231830
  28.7751020  33.4165830  52.4738100  32.5804690  39.1810920  55.8610970
  32.2048290  38.4138850  55.4292260  31.8507810  39.5633620  56.3485900
  15.3462600  36.6844420  53.8842010  14.4426680  36.9474620  53.7093670
  15.8303220  36.9555590  53.1041970  31.8555650  37.4068410  59.1618210
  32.3793130  36.9131060  58.5308380  32.4415070  37.5418770  59.9065780
  17.8889810  35.7409960  51.7936390  18.5981510  35.3193180  51.3083670
  17.1729750  35.8085190  51.1619740  17.5363970  31.7949290  50.8339040
  18.2592100  32.3358230  51.1520260  17.8088490  31.5212710  49.9580580
  31.3455620  36.6641760  55.1010620  31.8414740  36.4312630  55.8859500
  31.1471690  35.8253600  54.6848260  32.7742780  35.3002710  57.6348300
  32.6642060  35.1458750  58.5730570  33.5350370  34.7723650  57.3923710
  33.6633050  33.1310630  50.8754440  34.5882360  32.9991810  50.6672730
  33.6408840  33.2103450  51.8290890  33.7371540  33.9021290  53.5011150
  32.9423040  33.8366410  54.0304060  33.9414820  34.8371930  53.4896500
  30.6789960  47.9412840  57.4949540  31.2749030  47.6197410  56.8183960
  30.9368110  47.4684660  58.2862810  31.2302170  48.5908140  61.3247270
  30.7705140  49.3423950  60.9505290  30.6014630  47.8714610  61.2662070
  21.6597890  46.8996380  60.4995400  22.1762910  46.2883740  59.9743660
  22.3095270  47.4025160  60.9906410  30.1691470  32.2318170  59.9509980
  30.6099560  32.1763270  59.1031580  29.8999060  33.1476180  60.0220160
  32.0330040  31.8633410  57.9618800  31.9718440  30.9194630  57.8149820
  32.8122070  31.9713500  58.5072260  16.3382790  48.0025770  56.9242750
  16.1704830  47.3696450  57.6224640  15.4717300  48.2085170  56.5736940
  16.9610810  31.8342550  54.4274610  17.7190170  31.9471430  53.8538640
  16.4987980  32.6711750  54.3818040  23.5024620  33.9481820  57.4176920
  22.6899130  33.5738710  57.0772800  24.0066260  33.1926900  57.7198110
  28.0049600  30.6124270  58.6559990  28.6078970  31.1844480  59.1308510
  27.2642590  31.1763710  58.4333890  31.1484200  31.0145830  53.9300270
  31.3434830  31.9129280  54.1967700  30.3614070  30.7832910  54.4233220
  17.9445490  46.6959000  54.3692890  17.4193110  47.0767030  53.6654850
  17.8690070  47.3209770  55.0902600  19.3335960  32.3606600  52.9676580
  19.8628720  31.5736400  52.8384530  19.9664280  33.0397790  53.2012110
  21.5273800  32.0981740  56.0221970  20.8976540  31.3969050  56.1892100
  20.9878940  32.8585870  55.8055130  32.7010810  48.2546540  55.6906830
  32.8763000  47.5684280  55.0467750  32.0032380  48.7793590  55.2983500
  20.5438460  48.6441380  53.2442140  21.2757280  48.3600660  52.6966030
  20.8032130  48.4054660  54.1341520  19.7053250  44.7606110  53.2488470
  19.0762130  45.2291210  53.7974300  19.8201080  43.9155330  53.6834660
  27.1602970  38.8111770  39.3989670  27.0797020  37.8966380  39.1281380
  26.7467390  39.3078840  38.6929380  25.2921010  40.5890790  41.2798940
  24.5163110  40.1091230  41.5697510  25.9433940  39.9096440  41.1055100
  19.3086840  40.9010600  42.1574700  18.4771720  40.6459310  42.5571210
  19.9167820  40.9721370  42.8932620  29.3128440  44.9950980  40.0598070
  28.8509970  44.2238220  40.3885240  30.1253990  45.0217050  40.5650520
  19.2888100  44.9350690  42.3532720  19.5916140  44.0448430  42.1742940
  20.0331690  45.4920910  42.1254970  17.7178790  35.8612490  35.9417090
  16.8295490  36.2028460  35.8396970  18.0019980  35.6612810  35.0497920
  15.6811800  38.4618140  41.8256790  16.2527910  37.6940340  41.8260430
  15.6813340  38.7606900  40.9163400  25.5391750  47.2808990  39.6802060
  24.9203190  47.7366490  39.1096500  26.3943530  47.4360450  39.2791760
  24.7330000  43.2647980  41.2869100  24.6638280  42.3237920  41.1258230
  25.4949860  43.3549390  41.8591670  16.9236670  33.8702500  43.6125720
  16.7439510  32.9728250  43.8928480  16.5216750  34.4174370  44.2872670
  19.8940180  34.4443990  36.9755470  20.0006930  35.3447720  37.2824230
  18.9832540  34.3961960  36.6850120  29.5459290  33.5668800  38.4466370
  30.3668910  33.0765370  38.4891850  29.5793370  34.1566460  39.1998210
  17.5423340  36.3663000  42.2208060  18.2233450  36.6301370  42.8395460
  17.2271390  35.5263870  42.5546070  21.7347910  37.4130360  41.3080650
  22.2426130  37.9111330  41.9485670  22.2661150  36.6365560  41.1320010
  33.8358840  35.5835550  45.0110000  33.1311010  35.9717260  44.4925110
  34.1016760  36.2785840  45.6130930  20.0184010  32.0528920  45.5744070
  20.0202450  32.5701310  44.7689970  19.1888320  31.5759100  45.5514000
  26.4055100  42.1648230  37.0733970  25.7872370  42.6297680  36.5096690
  26.9178350  42.8575710  37.4903480  21.2686860  41.6924100  43.7517570
  20.9356240  42.3193020  44.3938640  21.4453540  42.2185980  42.9719240
  29.7820770  35.5069180  41.2193910  29.0776340  35.7954070  41.7997020
  30.1432930  36.3169290  40.8593470  19.6999340  33.7638880  43.5814520
  20.0416150  34.6080930  43.2868390  18.7615150  33.9122620  43.6979860
  20.4805960  43.6604900  45.5666750  21.0979960  44.3355980  45.2851200
  19.6199080  44.0692880  45.4754250  15.7738300  42.8504760  34.4473600
  15.3966280  43.3391860  33.7158500  16.0311370  43.5230040  35.0780130
  31.3983550  45.1244310  43.4821390  30.7147070  45.7943420  43.4738060
  31.9377840  45.3224960  42.7166250  28.9342290  46.9688440  42.1966570
  28.9469450  46.5650730  41.3288830  28.3817510  47.7435730  42.0928000
  30.2287710  43.6904660  37.2856740  30.1184040  42.7478990  37.4106160
  30.2255960  44.0520300  38.1719500  28.3327730  41.8718280  43.5249180
  28.7496520  41.6578390  42.6902640  29.0567550  42.1291070  44.0957800
  25.7707990  39.3169980  36.6419230  24.8437270  39.2507360  36.8707700
  25.9232810  40.2550110  36.5274470  25.7577070  35.5886980  33.6386390
  24.8180740  35.7500940  33.7238850  26.0760330  36.3072660  33.0922380
  32.2789830  40.2705500  43.6165420  31.4508460  40.3398590  43.1415550
  32.8740310  40.8559810  43.1481250  29.8005280  40.8790280  37.1454480
  29.1817700  40.5409830  36.4980780  29.7829730  40.2350040  37.8533670
  29.2431840  37.0574820  44.5620290  28.8303020  37.8828530  44.8160280
  28.5107790  36.4719860  44.3696650  21.3764630  39.8434720  39.4238960
  20.9721630  39.1311970  38.9284860  21.4627750  39.4987960  40.3127000
  21.8446330  43.5302280  41.5878170  21.5474620  42.9247750  40.9085950
  22.7946150  43.5679590  41.4767530  20.0893250  36.6177930  43.2038000
  20.6407840  36.7273270  42.4291250  20.6036760  36.9915530  43.9193230
  29.9331940  47.1034150  45.2501270  29.4562500  47.9106340  45.0573880
  29.2493730  46.4512480  45.4027480  20.9364760  43.2683970  48.2385970
  20.0393290  43.4923940  48.4859370  20.9617630  43.3918910  47.2897370
  27.9769980  40.1177090  34.1527230  28.4163260  39.2799520  34.0065050
  28.6898400  40.7506490  34.2391370  19.7635980  40.1397290  46.8143340
  19.6243750  41.0120090  47.1830740  18.8817340  39.7970100  46.6691280
  26.0865360  45.0573160  38.1208470  26.5261270  45.7997490  37.7063860
  26.0252250  45.2999730  39.0447430  21.5616330  46.0818990  49.0228490
  21.5331760  46.4861940  48.1556920  21.3981300  45.1529350  48.8600090
  18.0769260  38.7379700  36.9245610  17.9566860  39.4641790  36.3126880
  17.7670150  37.9682610  36.4473520  33.5131150  46.8646090  50.3192660
  33.9890870  47.3428980  50.9981740  34.1338310  46.7963580  49.5938160
  15.7154630  41.9094840  42.7314250  15.7935050  42.0443610  41.7869970
  16.3296310  41.2010730  42.9242370  16.9602260  43.6095030  39.1420430
  16.5530340  43.7509620  38.2874030  17.8515270  43.3255190  38.9391640
  32.9164400  44.0558940  47.4792670  33.0427460  43.8170820  46.5609850
  32.9585780  43.2243480  47.9514750  26.7781140  47.7586940  46.0487480
  27.2925810  47.6694950  46.8509910  25.9350220  48.1046640  46.3415390
  28.7535540  48.0442280  35.4771480  28.5936680  47.7545220  36.3753310
  28.5882250  47.2682410  34.9416710  21.2323920  47.8240810  37.2543100
  21.0566400  46.9076350  37.0410900  20.3779660  48.1828100  37.4940900
  28.4561670  45.5529840  34.0369480  27.7626830  45.5507130  33.3771760
  29.1984530  45.1289160  33.6063650  28.0211600  47.1792550  38.1117970
  28.4768550  46.3981930  38.4256590  28.3604120  47.8899370  38.6559150
  32.7688410  36.1091400  48.4442410  32.1532680  36.6171070  47.9157870
  32.4484830  35.2089730  48.3868350  15.7714150  42.9509010  45.2708710
  15.9345190  42.4814370  44.4528080  16.2366600  42.4432570  45.9357550
  24.8302730  34.9483290  45.9104600  24.3682100  35.1566310  46.7224540
  24.4280840  34.1342640  45.6075270  29.8307240  36.1692240  47.0401260
  28.9800830  35.8697990  47.3610330  29.6709030  36.4134250  46.1285080
  26.9256950  37.6693990  49.1400050  27.2510360  36.8357740  48.8002280
  27.7137280  38.1922510  49.2878380  20.3347140  37.2048340  38.0350530
  20.1088060  36.9885510  38.9397150  19.5539670  37.6376800  37.6896500
  27.5644900  37.2111710  36.6341180  26.9653790  37.9347510  36.4504800
  28.1124510  37.1488490  35.8517630  22.7746350  38.1033920  48.7010800
  22.6789950  37.1628650  48.5511200  23.6178330  38.3248990  48.3058870
  17.9056890  34.5147590  46.8544580  17.5120280  35.3622800  47.0617360
  17.2175290  33.8773960  47.0453220  24.4801940  34.5982560  49.9241320
  23.7900260  34.4054760  50.5587410  25.2234240  34.8817200  50.4565620
  15.2073940  32.4376050  40.8874660  14.9186990  33.0078910  41.5999640
  15.9519700  31.9580500  41.2505890  15.3944170  36.3796170  32.0977380
  15.3118840  37.3226930  32.2392370  15.0427230  36.2371080  31.2189730
  26.7564910  38.4381000  42.7595240  26.0246030  38.9467810  43.1085340
  26.3589250  37.6210980  42.4584020  19.0444680  34.9961690  40.1241940
  18.7044730  35.4736920  40.8808990  18.2822000  34.5426810  39.7643040
  23.2562450  36.1147280  34.1554490  23.3775270  36.0733760  35.1040310
  22.8710960  36.9771430  34.0001220  22.2683950  38.4248420  33.5537790
  21.7000850  37.9766670  32.9273700  22.9772950  38.7841200  33.0202940
  30.6461570  31.3046860  48.0104560  30.9707340  30.5736520  48.5362540
  30.6818080  30.9860500  47.1085550  17.3453130  42.3260440  47.4304520
  16.9607920  41.6854110  48.0287480  17.6565320  43.0296560  47.9999250
  23.4950270  39.1736980  42.9113140  23.8620400  38.6995550  43.6574480
  23.3055330  40.0478550  43.2521480  16.3590760  33.9180670  39.0406610
  16.0737680  33.5536340  39.8785230  16.2969620  33.1861130  38.4269750
  21.2849640  38.2145620  45.2297350  20.9806710  39.0937600  45.4547710
  22.2396100  38.2745410  45.2654790  19.8131430  42.4206610  35.8264200
  19.0393690  41.8804230  35.6662920  20.5426060  41.9013220  35.4881960
  30.5719410  41.4171970  41.6190590  31.2918530  41.9127260  41.2286700
  30.3701230  40.7389860  40.9744460  25.9538210  41.4881030  47.5059590
  25.8875520  40.5676700  47.2517180  25.3243350  41.5856470  48.2204230
  28.7477740  37.1829580  34.0582140  29.6357360  37.4946810  33.8833480
  28.7182830  36.3101830  33.6662720  19.8568830  42.0886990  39.4643010
  20.3747500  41.2855250  39.4099900  19.4052850  42.0266130  40.3059840
  24.7438330  43.3553270  34.7370310  25.0854030  44.0995500  34.2413630
  23.9151040  43.6684390  35.0995140  17.3413370  39.0548360  46.3768710
  16.9828310  39.7202210  46.9642050  17.0467930  38.2231910  46.7481330
  20.5426490  39.5132600  49.2608260  20.2426630  39.6589780  48.3636080
  21.3137730  38.9537890  49.1681650  25.8854940  44.3101600  47.2563390
  25.8999480  43.3782560  47.0382300  25.1780040  44.3961360  47.8953160
  32.0966150  40.9508940  46.6031970  31.3714340  41.5437720  46.4061360
  32.6241610  40.9432480  45.8045340  32.0479260  45.3483680  36.2544130
  31.4055420  44.6939300  36.5287850  31.6609920  45.7538770  35.4784800
  27.6265740  42.6769110  40.1015820  27.9789560  42.0797240  39.4417190
  26.7428070  42.3513340  40.2724070  23.7129020  43.4366800  37.5086230
  24.4000150  43.9836010  37.8893820  22.9261440  43.9807530  37.5435840
  15.8521420  39.0539620  33.0003310  16.7216270  39.3364420  33.2839230
  15.3611740  39.8675490  32.8852120  23.0156230  40.4412830  37.1211590
  23.4719010  41.2518080  37.3471780  22.6644440  40.1235970  37.9530080
  25.3188840  45.9519170  44.3503890  25.9631060  46.1578550  45.0277310
  25.6818280  45.1907570  43.8974740  26.5920920  43.9551520  43.0681340
  27.2343150  43.2544680  43.1813510  27.1170270  44.7349960  42.8878230
  30.4376640  44.2400140  32.7920480  30.2114220  43.5230580  33.3845120
  30.0472840  43.9912580  31.9542230  28.3658540  44.7546420  46.2717400
  28.7014780  45.3413110  46.9495320  27.4458880  44.6239130  46.5015190
  16.2192670  48.2667000  33.5664940  16.5790310  48.8656340  32.9122210
  16.0785010  48.8126890  34.3399970  15.9161940  32.5441600  47.0540810
  15.2020460  32.7438520  47.6593420  16.3356980  31.7681170  47.4255610
  30.0192890  42.1572080  34.4534640  29.7314590  42.6184770  35.2412520
  30.8145060  41.6969850  34.7218860  16.2034530  46.5321860  48.0407340
  16.3125650  45.5916600  47.9002730  15.5515090  46.7976610  47.3921070
  24.1947120  44.8037750  49.4405460  23.8743990  44.0846990  49.9851150
  23.5205480  45.4792820  49.5141520  22.2361290  45.6498200  34.3838610
  22.2271390  46.3827890  33.7683120  21.3159650  45.4029780  34.4765570
  17.8367930  40.8713090  35.1285370  17.2295880  41.6111990  35.1380670
  18.3117280  40.9612450  34.3023570  27.4100720  35.0363910  44.8042260
  27.7781540  34.2159120  45.1321830  26.5498920  35.0965800  45.2197910
  25.2220890  45.7126440  33.0463800  25.3232870  45.5090430  32.1165780
  24.3222630  45.4584720  33.2511580  24.3702710  37.6903500  45.0280230
  24.8687960  38.1649320  45.6932080  24.5125660  36.7667020  45.2350260
  23.8639000  48.2312760  37.7411470  24.1180500  48.1934150  36.8190840
  22.9151480  48.1046090  37.7339720  20.9481800  34.5791880  34.4038410
  21.7972330  35.0162030  34.3378600  20.5813070  34.8912140  35.2310470
  31.5769570  33.9071460  45.8708620  31.0743170  34.6476860  46.2102430
  32.3926230  34.2955460  45.5545410  29.8691580  39.1504640  39.3169980
  28.9281720  39.1654870  39.4917670  30.1835650  38.3640600  39.7630280
  19.8473220  40.8324240  32.8773940  20.6136490  40.7205600  33.4399370
  19.9247910  40.1362210  32.2250710  18.5419980  38.2649310  33.5606830
  18.6223570  37.3176820  33.6724230  19.4339730  38.5956190  33.6667490
  31.8717160  46.3213490  40.9924240  31.9964580  47.1444660  41.4648050
  32.7382720  46.1104220  40.6448390  19.3434690  48.4144700  40.6641370
  20.0797170  47.8660160  40.9349940  19.7275610  49.2800710  40.5247360
  16.2280170  44.4818270  36.5382880  15.3019950  44.7239410  36.5288290
  16.6936600  45.3092530  36.4167630  18.3492970  47.5990770  49.8526950
  19.1505700  47.9202820  50.2662350  17.8344790  47.2386350  50.5746860
  22.4537000  47.5875010  32.4866940  23.2465610  47.8763840  32.0348730
  21.9341350  47.1567180  31.8079420  27.1857600  43.7070640  49.8002360
  26.5795760  43.7302240  49.0598110  26.8811710  42.9753680  50.3369610
  28.6157970  47.4350930  48.4111770  29.5679720  47.3508950  48.3612010
  28.4686190  48.0992640  49.0845560  31.5067170  46.8145140  33.9103680
  31.2208680  46.4010280  33.0957860  31.3086720  47.7432850  33.7904200
  16.0690780  40.0864230  48.7963000  16.5729800  39.5071510  49.3679230
  15.3298200  40.3704460  49.3339370  22.9714400  42.8078420  32.3509290
  22.8665040  42.1930770  33.0770670  22.8038620  42.2844310  31.5672300
  23.1228720  41.4935220  48.3298520  22.3574390  42.0620220  48.2453190
  23.3044680  41.2011430  47.4366750  26.2117130  41.8698450  32.9551280
  25.6627230  42.3167750  33.5994020  26.8336390  41.3647700  33.4788950
  30.2652070  43.2240550  48.8873540  31.0061540  43.5616310  48.3841000
  29.5024750  43.3932610  48.3343310  18.1013860  38.2293820  49.6913070
  18.1419200  37.9307690  50.5998300  18.9559360  38.6301430  49.5320590
  21.8792250  40.8289370  34.8516580  22.3008670  40.6629240  35.6947970
  22.0043090  40.0189600  34.3571720  20.0419670  36.8085920  47.6587560
  19.5116130  36.3176870  47.0310900  20.7107740  37.2370120  47.1245490
  24.3919890  39.8526980  32.0993680  24.9125550  39.1376000  31.7334830
  25.0388290  40.4912850  32.3994190  28.9397730  41.2755380  47.4228750
  29.3538750  41.4300460  48.2719170  28.0048730  41.4010600  47.5854530
  29.4119900  38.6151540  49.4267900  29.9940670  37.8603860  49.3388380
  29.5881670  39.1458980  48.6499380  20.5291970  33.7748290  47.7384850
  20.4348840  33.1569040  47.0135720  19.9489360  34.5014580  47.5114760
  23.2953410  32.3321530  44.7712240  22.8470710  32.3545790  43.9257790
  22.6618610  31.9340550  45.3682540  23.7012960  41.2275860  45.3924680
  24.1201070  42.0708590  45.2200920  22.7821590  41.3647900  45.1631460
  26.0376860  38.9592040  46.7762520  26.1573070  38.3633180  47.5157360
  26.8970860  38.9961730  46.3563820  28.3764760  39.5129230  45.3525030
  27.8499980  40.0371850  44.7490170  28.7196100  40.1456620  45.9834760
  20.7751150  36.9022600  31.7974740  20.5740210  36.0389960  32.1588080
  20.6043200  36.8155960  30.8596340  21.5520380  47.5328870  46.5082410
  21.0141470  48.2574930  46.1891110  21.8054340  47.0559210  45.7179750
  22.8045630  35.5013390  48.0338340  23.3945320  35.1929240  48.7216160
  21.9865870  35.0293140  48.1898240  27.6239060  35.1179200  48.2671360
  26.9354580  34.4560740  48.2021350  28.3445080  34.6717470  48.7119820
  19.5733950  34.0023220  31.7852620  19.8759850  34.0090650  30.8771770
  20.3128540  33.6521080  32.2820280  24.4082590  48.7680080  46.7669060
  24.3341290  49.6715220  47.0741430  23.5061430  48.4491980  46.7391130
  24.9567920  47.9338590  34.3895420  25.8518710  48.2723560  34.4114180
  24.9885550  47.2118000  33.7619700  18.5964080  43.3065640  32.6182420
  19.0338950  43.8495310  33.2740000  19.0811810  42.4812590  32.6278760
  15.8109880  46.0954670  40.0702680  16.1412890  45.2275730  39.8381320
  16.2400880  46.3013190  40.9007640  20.4071800  44.4263680  37.7304650
  20.1067340  44.3028650  38.6308560  20.3009290  43.5672270  37.3220380
  16.3000090  46.9625260  42.8084310  15.8631080  47.1426060  43.6408460
  16.8677770  47.7199880  42.6666030  31.9362270  46.4642260  47.0961620
  31.3364260  46.5234820  46.3525540  32.0656170  45.5247240  47.2258470
  33.1763720  44.2060080  32.4331330  32.3456680  44.2736730  32.9038560
  33.3535550  45.0964200  32.1298190  16.1324520  39.4745490  39.1673190
  15.4773360  39.2057130  38.5232890  16.9702470  39.3649970  38.7175170
  33.6380150  41.8057660  39.7807460  34.0088980  41.0224980  39.3743430
  34.2782080  42.4946760  39.6024760  30.6213910  43.1894240  45.1937780
  29.8073750  43.6191400  45.4563570  31.0288110  43.8012650  44.5806830
  32.6839350  41.2441930  32.0938050  32.9588190  42.1520810  31.9657270
  32.4950090  41.1804460  33.0300040  17.1700450  39.8598060  43.7076530
  17.5373490  39.7725460  44.5872550  16.6011270  39.0964610  43.6083390
  31.9704310  38.3282440  46.7207000  31.7390400  38.0995190  45.8204950
  32.2308860  39.2481990  46.6751890  16.7216450  36.7707150  47.6134950
  15.8272500  36.7373910  47.9528660  17.2614000  36.9693940  48.3786200
  30.4092380  33.5538870  49.4986700  31.2862560  33.5622270  49.8820700
  30.4213220  32.8169710  48.8879050  15.3462600  36.6844420  35.1098520
  14.4426680  36.9474620  34.9350180  15.8303220  36.9555590  34.3298480
  17.8889810  35.7409960  33.0192900  18.5981510  35.3193180  32.5340180
  17.1729750  35.8085190  32.3876250  17.5363970  31.7949290  32.0595550
  18.2592100  32.3358230  32.3776770  17.8088490  31.5212710  31.1837090
  31.1208500  31.2396840  45.3187810  31.7580720  31.8530980  45.6847000
  31.2683390  31.2757500  44.3737040  30.6789960  47.9412840  38.7206050
  31.2749030  47.6197410  38.0440470  30.9368110  47.4684660  39.5119320
  16.9788160  31.2011150  44.7043490  16.6302980  31.6574970  45.4701670
  16.6475860  30.3068280  44.7865920  18.5852530  44.3730750  48.8696680
  18.5422160  44.0023660  49.7511140  18.7163540  45.3108320  49.0098500
  22.2858560  45.9290340  44.4706400  22.0449920  46.1964900  43.5836920
  23.2261200  46.0996070  44.5257260  24.4912980  32.3923030  48.2262910
  24.4301870  32.9844860  48.9758320  25.4313360  32.2848990  48.0813170
  27.1287540  32.0493090  47.8655200  27.7427950  32.3672380  47.2036280
  27.6737100  31.5641680  48.4851060  33.5462720  47.9484720  45.2717040
  33.0521000  48.3453590  44.5544170  32.9376010  47.3233930  45.6654320
  17.6508800  30.7287350  47.9794260  18.1991790  30.5475400  47.2160370
  17.7164110  29.9381460  48.5150570  18.4240560  47.3193000  45.9894460
  17.8300880  47.1877700  46.7284500  18.4164400  46.4831140  45.5236560
  27.8695580  30.6125230  44.1924490  26.9955420  30.9460340  43.9897420
  27.7606330  30.1398410  45.0176360  28.7767560  32.8196100  45.5766210
  28.4480920  32.0047860  45.1967940  29.7249860  32.7765910  45.4531900
  31.2302170  48.5908140  42.5503780  30.7705140  49.3423950  42.1761800
  30.6014630  47.8714610  42.4918580  18.0552790  44.6851380  44.9402500
  17.3286850  44.0656670  44.8728450  18.1161940  45.0791990  44.0700580
  21.6597890  46.8996380  41.7251910  22.1762910  46.2883740  41.2000170
  22.3095270  47.4025160  42.2162920  24.3993390  47.7904870  42.5520890
  24.6871200  47.5359170  41.6753900  24.9116610  47.2382230  43.1426460
  25.6170400  31.5295070  43.1317400  24.8342190  32.0040570  43.4114160
  25.3233330  30.6249900  43.0230580  30.1691470  32.2318170  41.1766490
  30.6099560  32.1763270  40.3288090  29.8999060  33.1476180  41.2476670
  16.3382790  48.0025770  38.1499260  16.1704830  47.3696450  38.8481150
  15.4717300  48.2085170  37.7993450  16.9610810  31.8342550  35.6531120
  17.7190170  31.9471430  35.0795150  16.4987980  32.6711750  35.6074550
  17.9445490  46.6959000  35.5949400  17.4193110  47.0767030  34.8911360
  17.8690070  47.3209770  36.3159110  19.3335960  32.3606600  34.1933090
  19.8628720  31.5736400  34.0641040  19.9664280  33.0397790  34.4268620
  24.4665750  48.7120970  49.9189090  25.3933060  48.4765240  49.9625050
  24.4516180  49.5392970  49.4375120  32.7010810  48.2546540  36.9163340
  32.8763000  47.5684280  36.2724260  32.0032380  48.7793590  36.5240010
  21.6529360  31.3765720  49.6830970  21.3713630  31.8799320  48.9191790
  22.0349060  30.5787470  49.3173100  20.5438460  48.6441380  34.4698650
  21.2757280  48.3600660  33.9222540  20.8032130  48.4054660  35.3598030
  19.7053250  44.7606110  34.4744980  19.0762130  45.2291210  35.0230810
  19.8201080  43.9155330  34.9091170  28.2544820  30.7919300  50.2611440
  28.1410270  31.1113910  51.1562960  29.0714560  31.1931810  49.9648720
  31.0343310  47.9390830  49.7430130  31.8268630  47.4440060  49.5356090
  31.3276460  48.6180970  50.3505740  27.1602970  38.8111770  20.6246180
  27.0797020  37.8966380  20.3537890  26.7467390  39.3078840  19.9185890
  25.2921010  40.5890790  22.5055450  24.5163110  40.1091230  22.7954020
  25.9433940  39.9096440  22.3311610  19.3086840  40.9010600  23.3831210
  18.4771720  40.6459310  23.7827720  19.9167820  40.9721370  24.1189130
  29.3128440  44.9950980  21.2854580  28.8509970  44.2238220  21.6141750
  30.1253990  45.0217050  21.7907030  19.2888100  44.9350690  23.5789230
  19.5916140  44.0448430  23.3999450  20.0331690  45.4920910  23.3511480
  17.7178790  35.8612490  17.1673600  16.8295490  36.2028460  17.0653480
  18.0019980  35.6612810  16.2754430  15.6811800  38.4618140  23.0513300
  16.2527910  37.6940340  23.0516940  15.6813340  38.7606900  22.1419910
  25.5391750  47.2808990  20.9058570  24.9203190  47.7366490  20.3353010
  26.3943530  47.4360450  20.5048270  24.7330000  43.2647980  22.5125610
  24.6638280  42.3237920  22.3514740  25.4949860  43.3549390  23.0848180
  19.8940180  34.4443990  18.2011980  20.0006930  35.3447720  18.5080740
  18.9832540  34.3961960  17.9106630  17.5423340  36.3663000  23.4464570
  18.2233450  36.6301370  24.0651970  17.2271390  35.5263870  23.7802580
  21.7347910  37.4130360  22.5337160  22.2426130  37.9111330  23.1742180
  22.2661150  36.6365560  22.3576520  33.8358840  35.5835550  26.2366510
  33.1311010  35.9717260  25.7181620  34.1016760  36.2785840  26.8387440
  26.4055100  42.1648230  18.2990480  25.7872370  42.6297680  17.7353200
  26.9178350  42.8575710  18.7159990  21.2686860  41.6924100  24.9774080
  20.9356240  42.3193020  25.6195150  21.4453540  42.2185980  24.1975750
  20.4805960  43.6604900  26.7923260  21.0979960  44.3355980  26.5107710
  19.6199080  44.0692880  26.7010760  15.7738300  42.8504760  15.6730110
  15.3966280  43.3391860  14.9415010  16.0311370  43.5230040  16.3036640
  31.3983550  45.1244310  24.7077900  30.7147070  45.7943420  24.6994570
  31.9377840  45.3224960  23.9422760  28.9342290  46.9688440  23.4223080
  28.9469450  46.5650730  22.5545340  28.3817510  47.7435730  23.3184510
  30.2287710  43.6904660  18.5113250  30.1184040  42.7478990  18.6362670
  30.2255960  44.0520300  19.3976010  28.3327730  41.8718280  24.7505690
  28.7496520  41.6578390  23.9159150  29.0567550  42.1291070  25.3214310
  25.7707990  39.3169980  17.8675740  24.8437270  39.2507360  18.0964210
  25.9232810  40.2550110  17.7530980  25.7577070  35.5886980  14.8642900
  24.8180740  35.7500940  14.9495360  26.0760330  36.3072660  14.3178890
  32.2789830  40.2705500  24.8421930  31.4508460  40.3398590  24.3672060
  32.8740310  40.8559810  24.3737760  29.8005280  40.8790280  18.3710990
  29.1817700  40.5409830  17.7237290  29.7829730  40.2350040  19.0790180
  29.2431840  37.0574820  25.7876800  28.8303020  37.8828530  26.0416790
  28.5107790  36.4719860  25.5953160  21.3764630  39.8434720  20.6495470
  20.9721630  39.1311970  20.1541370  21.4627750  39.4987960  21.5383510
  21.8446330  43.5302280  22.8134680  21.5474620  42.9247750  22.1342460
  22.7946150  43.5679590  22.7024040  29.9331940  47.1034150  26.4757780
  29.4562500  47.9106340  26.2830390  29.2493730  46.4512480  26.6283990
  20.9364760  43.2683970  29.4642480  20.0393290  43.4923940  29.7115880
  20.9617630  43.3918910  28.5153880  27.9769980  40.1177090  15.3783740
  28.4163260  39.2799520  15.2321560  28.6898400  40.7506490  15.4647880
  19.7635980  40.1397290  28.0399850  19.6243750  41.0120090  28.4087250
  18.8817340  39.7970100  27.8947790  26.0865360  45.0573160  19.3464980
  26.5261270  45.7997490  18.9320370  26.0252250  45.2999730  20.2703940
  21.5616330  46.0818990  30.2485000  21.5331760  46.4861940  29.3813430
  21.3981300  45.1529350  30.0856600  31.5587120  31.3719900  13.6924780
  31.2459780  31.4646730  14.5923850  32.3199590  31.9500930  13.6422210
  18.0769260  38.7379700  18.1502120  17.9566860  39.4641790  17.5383390
  17.7670150  37.9682610  17.6730030  33.5131150  46.8646090  31.5449170
  33.9890870  47.3428980  32.2238250  34.1338310  46.7963580  30.8194670
  15.7154630  41.9094840  23.9570760  15.7935050  42.0443610  23.0126480
  16.3296310  41.2010730  24.1498880  16.9602260  43.6095030  20.3676940
  16.5530340  43.7509620  19.5130540  17.8515270  43.3255190  20.1648150
  32.9164400  44.0558940  28.7049180  33.0427460  43.8170820  27.7866360
  32.9585780  43.2243480  29.1771260  26.7781140  47.7586940  27.2743990
  27.2925810  47.6694950  28.0766420  25.9350220  48.1046640  27.5671900
  28.7535540  48.0442280  16.7027990  28.5936680  47.7545220  17.6009820
  28.5882250  47.2682410  16.1673220  21.2323920  47.8240810  18.4799610
  21.0566400  46.9076350  18.2667410  20.3779660  48.1828100  18.7197410
  28.4561670  45.5529840  15.2625990  27.7626830  45.5507130  14.6028270
  29.1984530  45.1289160  14.8320160  28.0211600  47.1792550  19.3374480
  28.4768550  46.3981930  19.6513100  28.3604120  47.8899370  19.8815660
  15.7714150  42.9509010  26.4965220  15.9345190  42.4814370  25.6784590
  16.2366600  42.4432570  27.1614060  29.8307240  36.1692240  28.2657770
  28.9800830  35.8697990  28.5866840  29.6709030  36.4134250  27.3541590
  26.9256950  37.6693990  30.3656560  27.2510360  36.8357740  30.0258790
  27.7137280  38.1922510  30.5134890  23.6591740  31.7025470  16.4131620
  23.0345920  31.6985340  17.1384930  23.5721860  30.8356430  16.0167590
  20.3347140  37.2048340  19.2607040  20.1088060  36.9885510  20.1653660
  19.5539670  37.6376800  18.9153010  27.5644900  37.2111710  17.8597690
  26.9653790  37.9347510  17.6761310  28.1124510  37.1488490  17.0774140
  22.7746350  38.1033920  29.9267310  22.6789950  37.1628650  29.7767710
  23.6178330  38.3248990  29.5315380  24.4801940  34.5982560  31.1497830
  23.7900260  34.4054760  31.7843920  25.2234240  34.8817200  31.6822130
  15.2073940  32.4376050  22.1131170  14.9186990  33.0078910  22.8256150
  15.9519700  31.9580500  22.4762400  15.3944170  36.3796170  13.3233890
  15.3118840  37.3226930  13.4648880  15.0427230  36.2371080  12.4446240
  26.7564910  38.4381000  23.9851750  26.0246030  38.9467810  24.3341850
  26.3589250  37.6210980  23.6840530  19.0444680  34.9961690  21.3498450
  18.7044730  35.4736920  22.1065500  18.2822000  34.5426810  20.9899550
  23.2562450  36.1147280  15.3811000  23.3775270  36.0733760  16.3296820
  22.8710960  36.9771430  15.2257730  22.2683950  38.4248420  14.7794300
  21.7000850  37.9766670  14.1530210  22.9772950  38.7841200  14.2459450
  17.3453130  42.3260440  28.6561030  16.9607920  41.6854110  29.2543990
  17.6565320  43.0296560  29.2255760  23.4950270  39.1736980  24.1369650
  23.8620400  38.6995550  24.8830990  23.3055330  40.0478550  24.4777990
  16.3590760  33.9180670  20.2663120  16.0737680  33.5536340  21.1041740
  16.2969620  33.1861130  19.6526260  21.2849640  38.2145620  26.4553860
  20.9806710  39.0937600  26.6804220  22.2396100  38.2745410  26.4911300
  19.8131430  42.4206610  17.0520710  19.0393690  41.8804230  16.8919430
  20.5426060  41.9013220  16.7138470  30.5719410  41.4171970  22.8447100
  31.2918530  41.9127260  22.4543210  30.3701230  40.7389860  22.2000970
  25.9538210  41.4881030  28.7316100  25.8875520  40.5676700  28.4773690
  25.3243350  41.5856470  29.4460740  28.7477740  37.1829580  15.2838650
  29.6357360  37.4946810  15.1089990  28.7182830  36.3101830  14.8919230
  19.8568830  42.0886990  20.6899520  20.3747500  41.2855250  20.6356410
  19.4052850  42.0266130  21.5316350  24.7438330  43.3553270  15.9626820
  25.0854030  44.0995500  15.4670140  23.9151040  43.6684390  16.3251650
  17.3413370  39.0548360  27.6025220  16.9828310  39.7202210  28.1898560
  17.0467930  38.2231910  27.9737840  20.5426490  39.5132600  30.4864770
  20.2426630  39.6589780  29.5892590  21.3137730  38.9537890  30.3938160
  25.8854940  44.3101600  28.4819900  25.8999480  43.3782560  28.2638810
  25.1780040  44.3961360  29.1209670  31.0192010  38.4941420  14.7518510
  30.9355730  38.9255640  13.9014950  31.7386200  38.9539770  15.1845330
  32.0966150  40.9508940  27.8288480  31.3714340  41.5437720  27.6317870
  32.6241610  40.9432480  27.0301850  32.0479260  45.3483680  17.4800640
  31.4055420  44.6939300  17.7544360  31.6609920  45.7538770  16.7041310
  27.6265740  42.6769110  21.3272330  27.9789560  42.0797240  20.6673700
  26.7428070  42.3513340  21.4980580  23.7129020  43.4366800  18.7342740
  24.4000150  43.9836010  19.1150330  22.9261440  43.9807530  18.7692350
  15.8521420  39.0539620  14.2259820  16.7216270  39.3364420  14.5095740
  15.3611740  39.8675490  14.1108630  23.0156230  40.4412830  18.3468100
  23.4719010  41.2518080  18.5728290  22.6644440  40.1235970  19.1786590
  25.3188840  45.9519170  25.5760400  25.9631060  46.1578550  26.2533820
  25.6818280  45.1907570  25.1231250  18.9168010  30.7850480  18.8190620
  18.7882640  30.7768380  19.7675540  18.0930030  31.1233570  18.4681630
  26.5920920  43.9551520  24.2937850  27.2343150  43.2544680  24.4070020
  27.1170270  44.7349960  24.1134740  30.4376640  44.2400140  14.0176990
  30.2114220  43.5230580  14.6101630  30.0472840  43.9912580  13.1798740
  28.3658540  44.7546420  27.4973910  28.7014780  45.3413110  28.1751830
  27.4458880  44.6239130  27.7271700  16.2192670  48.2667000  14.7921450
  16.5790310  48.8656340  14.1378720  16.0785010  48.8126890  15.5656480
  30.0192890  42.1572080  15.6791150  29.7314590  42.6184770  16.4669030
  30.8145060  41.6969850  15.9475370  16.2034530  46.5321860  29.2663850
  16.3125650  45.5916600  29.1259240  15.5515090  46.7976610  28.6177580
  24.1947120  44.8037750  30.6661970  23.8743990  44.0846990  31.2107660
  23.5205480  45.4792820  30.7398030  22.2361290  45.6498200  15.6095120
  22.2271390  46.3827890  14.9939630  21.3159650  45.4029780  15.7022080
  17.8367930  40.8713090  16.3541880  17.2295880  41.6111990  16.3637180
  18.3117280  40.9612450  15.5280080  25.2220890  45.7126440  14.2720310
  25.3232870  45.5090430  13.3422290  24.3222630  45.4584720  14.4768090
  22.7446780  36.2706800  18.2544210  22.0362930  36.7393140  18.6957820
  23.0291260  35.6128810  18.8889400  24.3702710  37.6903500  26.2536740
  24.8687960  38.1649320  26.9188590  24.5125660  36.7667020  26.4606770
  23.8639000  48.2312760  18.9667980  24.1180500  48.1934150  18.0447350
  22.9151480  48.1046090  18.9596230  20.9481800  34.5791880  15.6294920
  21.7972330  35.0162030  15.5635110  20.5813070  34.8912140  16.4566980
  31.5769570  33.9071460  27.0965130  31.0743170  34.6476860  27.4358940
  32.3926230  34.2955460  26.7801920  29.8691580  39.1504640  20.5426490
  28.9281720  39.1654870  20.7174180  30.1835650  38.3640600  20.9886790
  19.8473220  40.8324240  14.1030450  20.6136490  40.7205600  14.6655880
  19.9247910  40.1362210  13.4507220  18.5419980  38.2649310  14.7863340
  18.6223570  37.3176820  14.8980740  19.4339730  38.5956190  14.8924000
  31.8717160  46.3213490  22.2180750  31.9964580  47.1444660  22.6904560
  32.7382720  46.1104220  21.8704900  19.3434690  48.4144700  21.8897880
  20.0797170  47.8660160  22.1606450  19.7275610  49.2800710  21.7503870
  16.2280170  44.4818270  17.7639390  15.3019950  44.7239410  17.7544800
  16.6936600  45.3092530  17.6424140  18.3492970  47.5990770  31.0783460
  19.1505700  47.9202820  31.4918860  17.8344790  47.2386350  31.8003370
  22.4537000  47.5875010  13.7123450  23.2465610  47.8763840  13.2605240
  21.9341350  47.1567180  13.0335930  27.1857600  43.7070640  31.0258870
  26.5795760  43.7302240  30.2854620  26.8811710  42.9753680  31.5626120
  28.6157970  47.4350930  29.6368280  29.5679720  47.3508950  29.5868520
  28.4686190  48.0992640  30.3102070  31.5067170  46.8145140  15.1360190
  31.2208680  46.4010280  14.3214370  31.3086720  47.7432850  15.0160710
  16.0690780  40.0864230  30.0219510  16.5729800  39.5071510  30.5935740
  15.3298200  40.3704460  30.5595880  22.9714400  42.8078420  13.5765800
  22.8665040  42.1930770  14.3027180  22.8038620  42.2844310  12.7928810
  23.1228720  41.4935220  29.5555030  22.3574390  42.0620220  29.4709700
  23.3044680  41.2011430  28.6623260  26.2117130  41.8698450  14.1807790
  25.6627230  42.3167750  14.8250530  26.8336390  41.3647700  14.7045460
  30.2652070  43.2240550  30.1130050  31.0061540  43.5616310  29.6097510
  29.5024750  43.3932610  29.5599820  18.1013860  38.2293820  30.9169580
  18.1419200  37.9307690  31.8254810  18.9559360  38.6301430  30.7577100
  21.8792250  40.8289370  16.0773090  22.3008670  40.6629240  16.9204480
  22.0043090  40.0189600  15.5828230  24.3919890  39.8526980  13.3250190
  24.9125550  39.1376000  12.9591340  25.0388290  40.4912850  13.6250700
  28.9397730  41.2755380  28.6485260  29.3538750  41.4300460  29.4975680
  28.0048730  41.4010600  28.8111040  29.4119900  38.6151540  30.6524410
  29.9940670  37.8603860  30.5644890  29.5881670  39.1458980  29.8755890
  23.7012960  41.2275860  26.6181190  24.1201070  42.0708590  26.4457430
  22.7821590  41.3647900  26.3887970  26.0376860  38.9592040  28.0019030
  26.1573070  38.3633180  28.7413870  26.8970860  38.9961730  27.5820330
  28.3764760  39.5129230  26.5781540  27.8499980  40.0371850  25.9746680
  28.7196100  40.1456620  27.2091270  20.7751150  36.9022600  13.0231250
  20.5740210  36.0389960  13.3844590  20.6043200  36.8155960  12.0852850
  21.5520380  47.5328870  27.7338920  21.0141470  48.2574930  27.4147620
  21.8054340  47.0559210  26.9436260  22.8045630  35.5013390  29.2594850
  23.3945320  35.1929240  29.9472670  21.9865870  35.0293140  29.4154750
  27.6239060  35.1179200  29.4927870  26.9354580  34.4560740  29.4277860
  28.3445080  34.6717470  29.9376330  28.2539460  31.7130830  15.5518130
  28.5341750  30.8698730  15.9077550  27.4805190  31.9453940  16.0656880
  19.5733950  34.0023220  13.0109130  19.8759850  34.0090650  12.1028280
  20.3128540  33.6521080  13.5076790  24.4082590  48.7680080  27.9925570
  24.3341290  49.6715220  28.2997940  23.5061430  48.4491980  27.9647640
  22.7918880  32.9457840  13.9965330  22.4440880  32.2681830  13.4167780
  22.9931650  32.4847350  14.8108720  24.9567920  47.9338590  15.6151930
  25.8518710  48.2723560  15.6370690  24.9885550  47.2118000  14.9876210
  18.5964080  43.3065640  13.8438930  19.0338950  43.8495310  14.4996510
  19.0811810  42.4812590  13.8535270  15.8109880  46.0954670  21.2959190
  16.1412890  45.2275730  21.0637830  16.2400880  46.3013190  22.1264150
  20.4071800  44.4263680  18.9561160  20.1067340  44.3028650  19.8565070
  20.3009290  43.5672270  18.5476890  16.3000090  46.9625260  24.0340820
  15.8631080  47.1426060  24.8664970  16.8677770  47.7199880  23.8922540
  31.9362270  46.4642260  28.3218130  31.3364260  46.5234820  27.5782050
  32.0656170  45.5247240  28.4514980  33.1763720  44.2060080  13.6587840
  32.3456680  44.2736730  14.1295070  33.3535550  45.0964200  13.3554700
  32.6320180  40.9507560  16.1622040  33.3939090  41.5204210  16.2681730
  32.6474550  40.3834760  16.9330350  16.1324520  39.4745490  20.3929700
  15.4773360  39.2057130  19.7489400  16.9702470  39.3649970  19.9431680
  33.6380150  41.8057660  21.0063970  34.0088980  41.0224980  20.5999940
  34.2782080  42.4946760  20.8281270  30.6213910  43.1894240  26.4194290
  29.8073750  43.6191400  26.6820080  31.0288110  43.8012650  25.8063340
  32.6839350  41.2441930  13.3194560  32.9588190  42.1520810  13.1913780
  32.4950090  41.1804460  14.2556550  29.0814960  34.2686780  14.6148190
  29.4999840  34.0817760  13.7744850  28.7751020  33.4165830  14.9251120
  32.5804690  39.1810920  18.3123990  32.2048290  38.4138850  17.8805280
  31.8507810  39.5633620  18.7998920  17.1700450  39.8598060  24.9333040
  17.5373490  39.7725460  25.8129060  16.6011270  39.0964610  24.8339900
  31.9704310  38.3282440  27.9463510  31.7390400  38.0995190  27.0461460
  32.2308860  39.2481990  27.9008400  16.7216450  36.7707150  28.8391460
  15.8272500  36.7373910  29.1785170  17.2614000  36.9693940  29.6042710
  15.3462600  36.6844420  16.3355030  14.4426680  36.9474620  16.1606690
  15.8303220  36.9555590  15.5554990  31.8555650  37.4068410  21.6131230
  32.3793130  36.9131060  20.9821400  32.4415070  37.5418770  22.3578800
  32.0345370  37.4908280  25.1350780  31.0848080  37.4571820  25.2495770
  32.2158380  38.4008390  24.9000550  17.8889810  35.7409960  14.2449410
  18.5981510  35.3193180  13.7596690  17.1729750  35.8085190  13.6132760
  17.5363970  31.7949290  13.2852060  18.2592100  32.3358230  13.6033280
  17.8088490  31.5212710  12.4093600  17.2256160  31.0455480  23.1874680
  17.8732350  30.4952860  22.7469840  17.6458000  31.2998630  24.0090490
  33.6633050  33.1310630  13.3267460  34.5882360  32.9991810  13.1185750
  33.6408840  33.2103450  14.2803910  33.7371540  33.9021290  15.9524170
  32.9423040  33.8366410  16.4817080  33.9414820  34.8371930  15.9409520
  30.6789960  47.9412840  19.9462560  31.2749030  47.6197410  19.2696980
  30.9368110  47.4684660  20.7375830  18.5852530  44.3730750  30.0953190
  18.5422160  44.0023660  30.9767650  18.7163540  45.3108320  30.2355010
  22.2858560  45.9290340  25.6962910  22.0449920  46.1964900  24.8093430
  23.2261200  46.0996070  25.7513770  33.5462720  47.9484720  26.4973550
  33.0521000  48.3453590  25.7800680  32.9376010  47.3233930  26.8910830
  18.4240560  47.3193000  27.2150970  17.8300880  47.1877700  27.9541010
  18.4164400  46.4831140  26.7493070  31.2302170  48.5908140  23.7760290
  30.7705140  49.3423950  23.4018310  30.6014630  47.8714610  23.7175090
  18.0552790  44.6851380  26.1659010  17.3286850  44.0656670  26.0984960
  18.1161940  45.0791990  25.2957090  21.6597890  46.8996380  22.9508420
  22.1762910  46.2883740  22.4256680  22.3095270  47.4025160  23.4419430
  24.3993390  47.7904870  23.7777400  24.6871200  47.5359170  22.9010410
  24.9116610  47.2382230  24.3682970  16.3382790  48.0025770  19.3755770
  16.1704830  47.3696450  20.0737660  15.4717300  48.2085170  19.0249960
  16.9610810  31.8342550  16.8787630  17.7190170  31.9471430  16.3051660
  16.4987980  32.6711750  16.8331060  23.5024620  33.9481820  19.8689940
  22.6899130  33.5738710  19.5285820  24.0066260  33.1926900  20.1711130
  17.9445490  46.6959000  16.8205910  17.4193110  47.0767030  16.1167870
  17.8690070  47.3209770  17.5415620  19.3335960  32.3606600  15.4189600
  19.8628720  31.5736400  15.2897550  19.9664280  33.0397790  15.6525130
  21.5273800  32.0981740  18.4734990  20.8976540  31.3969050  18.6405120
  20.9878940  32.8585870  18.2568150  24.4665750  48.7120970  31.1445600
  25.3933060  48.4765240  31.1881560  24.4516180  49.5392970  30.6631630
  32.7010810  48.2546540  18.1419850  32.8763000  47.5684280  17.4980770
  32.0032380  48.7793590  17.7496520  20.5438460  48.6441380  15.6955160
  21.2757280  48.3600660  15.1479050  20.8032130  48.4054660  16.5854540
  19.7053250  44.7606110  15.7001490  19.0762130  45.2291210  16.2487320
  19.8201080  43.9155330  16.1347680  31.0343310  47.9390830  30.9686640
  31.8268630  47.4440060  30.7612600  31.3276460  48.6180970  31.5762250
  25.2921010  40.5890790   3.7311960  24.5163110  40.1091230   4.0210530
  25.9433940  39.9096440   3.5568120  19.3086840  40.9010600   4.6087720
  18.4771720  40.6459310   5.0084230  19.9167820  40.9721370   5.3445640
  29.3128440  44.9950980   2.5111090  28.8509970  44.2238220   2.8398260
  30.1253990  45.0217050   3.0163540  19.2888100  44.9350690   4.8045740
  19.5916140  44.0448430   4.6255960  20.0331690  45.4920910   4.5767990
  15.6811800  38.4618140   4.2769810  16.2527910  37.6940340   4.2773450
  15.6813340  38.7606900   3.3676420  24.7330000  43.2647980   3.7382120
  24.6638280  42.3237920   3.5771250  25.4949860  43.3549390   4.3104690
  16.9236670  33.8702500   6.0638740  16.7439510  32.9728250   6.3441500
  16.5216750  34.4174370   6.7385690  25.7635170  36.0718360   3.9651050
  26.1399990  35.1990240   3.8524720  25.6654680  36.4077060   3.0741490
  17.5423340  36.3663000   4.6721080  18.2233450  36.6301370   5.2908480
  17.2271390  35.5263870   5.0059090  21.7347910  37.4130360   3.7593670
  22.2426130  37.9111330   4.3998690  22.2661150  36.6365560   3.5833030
  33.8358840  35.5835550   7.4623020  33.1311010  35.9717260   6.9438130
  34.1016760  36.2785840   8.0643950  20.0184010  32.0528920   8.0257090
  20.0202450  32.5701310   7.2202990  19.1888320  31.5759100   8.0027020
  21.2686860  41.6924100   6.2030590  20.9356240  42.3193020   6.8451660
  21.4453540  42.2185980   5.4232260  29.7820770  35.5069180   3.6706930
  29.0776340  35.7954070   4.2510040  30.1432930  36.3169290   3.3106490
  19.6999340  33.7638880   6.0327540  20.0416150  34.6080930   5.7381410
  18.7615150  33.9122620   6.1492880  20.4805960  43.6604900   8.0179770
  21.0979960  44.3355980   7.7364220  19.6199080  44.0692880   7.9267270
  31.3983550  45.1244310   5.9334410  30.7147070  45.7943420   5.9251080
  31.9377840  45.3224960   5.1679270  32.8507690  34.9523970   4.0616140
  31.9032600  34.9862950   4.1931570  33.1757680  35.7662920   4.4465500
  28.9342290  46.9688440   4.6479590  28.9469450  46.5650730   3.7801850
  28.3817510  47.7435730   4.5441020  28.3327730  41.8718280   5.9762200
  28.7496520  41.6578390   5.1415660  29.0567550  42.1291070   6.5470820
  32.2789830  40.2705500   6.0678440  31.4508460  40.3398590   5.5928570
  32.8740310  40.8559810   5.5994270  29.2431840  37.0574820   7.0133310
  28.8303020  37.8828530   7.2673300  28.5107790  36.4719860   6.8209670
  21.8446330  43.5302280   4.0391190  21.5474620  42.9247750   3.3598970
  22.7946150  43.5679590   3.9280550  20.0893250  36.6177930   5.6551020
  20.6407840  36.7273270   4.8804270  20.6036760  36.9915530   6.3706250
  29.9331940  47.1034150   7.7014290  29.4562500  47.9106340   7.5086900
  29.2493730  46.4512480   7.8540500  20.9364760  43.2683970  10.6898990
  20.0393290  43.4923940  10.9372390  20.9617630  43.3918910   9.7410390
  19.7635980  40.1397290   9.2656360  19.6243750  41.0120090   9.6343760
  18.8817340  39.7970100   9.1204300  21.5616330  46.0818990  11.4741510
  21.5331760  46.4861940  10.6069940  21.3981300  45.1529350  11.3113110
  33.5131150  46.8646090  12.7705680  33.9890870  47.3428980  13.4494760
  34.1338310  46.7963580  12.0451180  15.7154630  41.9094840   5.1827270
  15.7935050  42.0443610   4.2382990  16.3296310  41.2010730   5.3755390
  32.9164400  44.0558940   9.9305690  33.0427460  43.8170820   9.0122870
  32.9585780  43.2243480  10.4027770  26.7781140  47.7586940   8.5000500
  27.2925810  47.6694950   9.3022930  25.9350220  48.1046640   8.7928410
  32.7688410  36.1091400  10.8955430  32.1532680  36.6171070  10.3670890
  32.4484830  35.2089730  10.8381370  15.7714150  42.9509010   7.7221730
  15.9345190  42.4814370   6.9041100  16.2366600  42.4432570   8.3870570
  20.5432920  32.0814770   2.7582300  20.1001070  32.8624310   2.4266820
  21.1017910  32.4044660   3.4653240  24.8302730  34.9483290   8.3617620
  24.3682100  35.1566310   9.1737560  24.4280840  34.1342640   8.0588290
  29.8307240  36.1692240   9.4914280  28.9800830  35.8697990   9.8123350
  29.6709030  36.4134250   8.5798100  26.9256950  37.6693990  11.5913070
  27.2510360  36.8357740  11.2515300  27.7137280  38.1922510  11.7391400
  22.5808820  32.6262100   4.6171900  22.8781150  33.5324930   4.5363920
  23.1294380  32.1380880   4.0031470  22.7746350  38.1033920  11.1523820
  22.6789950  37.1628650  11.0024220  23.6178330  38.3248990  10.7571890
  17.9056890  34.5147590   9.3057600  17.5120280  35.3622800   9.5130380
  17.2175290  33.8773960   9.4966240  24.4801940  34.5982560  12.3754340
  23.7900260  34.4054760  13.0100430  25.2234240  34.8817200  12.9078640
  15.2073940  32.4376050   3.3387680  14.9186990  33.0078910   4.0512660
  15.9519700  31.9580500   3.7018910  26.7564910  38.4381000   5.2108260
  26.0246030  38.9467810   5.5598360  26.3589250  37.6210980   4.9097040
  23.1942300  35.1135200   3.6160750  23.1978360  34.6725150   2.7665290
  24.0893420  35.4352530   3.7232570  19.0444680  34.9961690   2.5754960
  18.7044730  35.4736920   3.3322010  18.2822000  34.5426810   2.2156060
  27.2190820  33.8914680   4.6231200  27.2363560  34.3423330   5.4673050
  26.9706400  32.9920320   4.8364640  30.6461570  31.3046860  10.4617580
  30.9707340  30.5736520  10.9875560  30.6818080  30.9860500   9.5598570
  17.3453130  42.3260440   9.8817540  16.9607920  41.6854110  10.4800500
  17.6565320  43.0296560  10.4512270  23.4950270  39.1736980   5.3626160
  23.8620400  38.6995550   6.1087500  23.3055330  40.0478550   5.7034500
  21.2849640  38.2145620   7.6810370  20.9806710  39.0937600   7.9060730
  22.2396100  38.2745410   7.7167810  30.5719410  41.4171970   4.0703610
  31.2918530  41.9127260   3.6799720  30.3701230  40.7389860   3.4257480
  25.9538210  41.4881030   9.9572610  25.8875520  40.5676700   9.7030200
  25.3243350  41.5856470  10.6717250  19.8568830  42.0886990   1.9156030
  20.3747500  41.2855250   1.8612920  19.4052850  42.0266130   2.7572860
  17.3413370  39.0548360   8.8281730  16.9828310  39.7202210   9.4155070
  17.0467930  38.2231910   9.1994350  20.5426490  39.5132600  11.7121280
  20.2426630  39.6589780  10.8149100  21.3137730  38.9537890  11.6194670
  25.8854940  44.3101600   9.7076410  25.8999480  43.3782560   9.4895320
  25.1780040  44.3961360  10.3466180  32.0966150  40.9508940   9.0544990
  31.3714340  41.5437720   8.8574380  32.6241610  40.9432480   8.2558360
  27.6265740  42.6769110   2.5528840  27.9789560  42.0797240   1.8930210
  26.7428070  42.3513340   2.7237090  25.3188840  45.9519170   6.8016910
  25.9631060  46.1578550   7.4790330  25.6818280  45.1907570   6.3487760
  26.5920920  43.9551520   5.5194360  27.2343150  43.2544680   5.6326530
  27.1170270  44.7349960   5.3391250  28.3658540  44.7546420   8.7230420
  28.7014780  45.3413110   9.4008340  27.4458880  44.6239130   8.9528210
  15.9161940  32.5441600   9.5053830  15.2020460  32.7438520  10.1106440
  16.3356980  31.7681170   9.8768630  16.2034530  46.5321860  10.4920360
  16.3125650  45.5916600  10.3515750  15.5515090  46.7976610   9.8434090
  24.1947120  44.8037750  11.8918480  23.8743990  44.0846990  12.4364170
  23.5205480  45.4792820  11.9654540  27.4100720  35.0363910   7.2555280
  27.7781540  34.2159120   7.5834850  26.5498920  35.0965800   7.6710930
  24.3702710  37.6903500   7.4793250  24.8687960  38.1649320   8.1445100
  24.5125660  36.7667020   7.6863280  31.5769570  33.9071460   8.3221640
  31.0743170  34.6476860   8.6615450  32.3926230  34.2955460   8.0058430
  29.8691580  39.1504640   1.7683000  28.9281720  39.1654870   1.9430690
  30.1835650  38.3640600   2.2143300  31.8717160  46.3213490   3.4437260
  31.9964580  47.1444660   3.9161070  32.7382720  46.1104220   3.0961410
  19.3434690  48.4144700   3.1154390  20.0797170  47.8660160   3.3862960
  19.7275610  49.2800710   2.9760380  18.3492970  47.5990770  12.3039970
  19.1505700  47.9202820  12.7175370  17.8344790  47.2386350  13.0259880
  27.1857600  43.7070640  12.2515380  26.5795760  43.7302240  11.5111130
  26.8811710  42.9753680  12.7882630  28.6157970  47.4350930  10.8624790
  29.5679720  47.3508950  10.8125030  28.4686190  48.0992640  11.5358580
  16.0690780  40.0864230  11.2476020  16.5729800  39.5071510  11.8192250
  15.3298200  40.3704460  11.7852390  23.1228720  41.4935220  10.7811540
  22.3574390  42.0620220  10.6966210  23.3044680  41.2011430   9.8879770
  30.2652070  43.2240550  11.3386560  31.0061540  43.5616310  10.8354020
  29.5024750  43.3932610  10.7856330  18.1013860  38.2293820  12.1426090
  18.1419200  37.9307690  13.0511320  18.9559360  38.6301430  11.9833610
  20.0419670  36.8085920  10.1100580  19.5116130  36.3176870   9.4823920
  20.7107740  37.2370120   9.5758510  28.9397730  41.2755380   9.8741770
  29.3538750  41.4300460  10.7232190  28.0048730  41.4010600  10.0367550
  29.4119900  38.6151540  11.8780920  29.9940670  37.8603860  11.7901400
  29.5881670  39.1458980  11.1012400  20.5291970  33.7748290  10.1897870
  20.4348840  33.1569040   9.4648740  19.9489360  34.5014580   9.9627780
  23.2953410  32.3321530   7.2225260  22.8470710  32.3545790   6.3770810
  22.6618610  31.9340550   7.8195560  23.7012960  41.2275860   7.8437700
  24.1201070  42.0708590   7.6713940  22.7821590  41.3647900   7.6144480
  26.0376860  38.9592040   9.2275540  26.1573070  38.3633180   9.9670380
  26.8970860  38.9961730   8.8076840  28.3764760  39.5129230   7.8038050
  27.8499980  40.0371850   7.2003190  28.7196100  40.1456620   8.4347780
  21.5520380  47.5328870   8.9595430  21.0141470  48.2574930   8.6404130
  21.8054340  47.0559210   8.1692770  22.8045630  35.5013390  10.4851360
  23.3945320  35.1929240  11.1729180  21.9865870  35.0293140  10.6411260
  27.6239060  35.1179200  10.7184380  26.9354580  34.4560740  10.6534370
  28.3445080  34.6717470  11.1632840  24.4082590  48.7680080   9.2182080
  24.3341290  49.6715220   9.5254450  23.5061430  48.4491980   9.1904150
  15.8109880  46.0954670   2.5215700  16.1412890  45.2275730   2.2894340
  16.2400880  46.3013190   3.3520660  16.3000090  46.9625260   5.2597330
  15.8631080  47.1426060   6.0921480  16.8677770  47.7199880   5.1179050
  31.9362270  46.4642260   9.5474640  31.3364260  46.5234820   8.8038560
  32.0656170  45.5247240   9.6771490  33.6380150  41.8057660   2.2320480
  34.0088980  41.0224980   1.8256450  34.2782080  42.4946760   2.0537780
  30.6213910  43.1894240   7.6450800  29.8073750  43.6191400   7.9076590
  31.0288110  43.8012650   7.0319850  17.1700450  39.8598060   6.1589550
  17.5373490  39.7725460   7.0385570  16.6011270  39.0964610   6.0596410
  31.9704310  38.3282440   9.1720020  31.7390400  38.0995190   8.2717970
  32.2308860  39.2481990   9.1264910  16.7216450  36.7707150  10.0647970
  15.8272500  36.7373910  10.4041680  17.2614000  36.9693940  10.8299220
  30.4092380  33.5538870  11.9499720  31.2862560  33.5622270  12.3333720
  30.4213220  32.8169710  11.3392070  31.8555650  37.4068410   2.8387740
  32.3793130  36.9131060   2.2077910  32.4415070  37.5418770   3.5835310
  32.0345370  37.4908280   6.3607290  31.0848080  37.4571820   6.4752280
  32.2158380  38.4008390   6.1257060  17.2256160  31.0455480   4.4131190
  17.8732350  30.4952860   3.9726350  17.6458000  31.2998630   5.2347000
  31.1208500  31.2396840   7.7700830  31.7580720  31.8530980   8.1360020
  31.2683390  31.2757500   6.8250060  16.9788160  31.2011150   7.1556510
  16.6302980  31.6574970   7.9214690  16.6475860  30.3068280   7.2378940
  18.5852530  44.3730750  11.3209700  18.5422160  44.0023660  12.2024160
  18.7163540  45.3108320  11.4611520  22.2858560  45.9290340   6.9219420
  22.0449920  46.1964900   6.0349940  23.2261200  46.0996070   6.9770280
  24.4912980  32.3923030  10.6775930  24.4301870  32.9844860  11.4271340
  25.4313360  32.2848990  10.5326190  27.1287540  32.0493090  10.3168220
  27.7427950  32.3672380   9.6549300  27.6737100  31.5641680  10.9364080
  33.5462720  47.9484720   7.7230060  33.0521000  48.3453590   7.0057190
  32.9376010  47.3233930   8.1167340  17.6508800  30.7287350  10.4307280
  18.1991790  30.5475400   9.6673390  17.7164110  29.9381460  10.9663590
  18.4240560  47.3193000   8.4407480  17.8300880  47.1877700   9.1797520
  18.4164400  46.4831140   7.9749580  27.8695580  30.6125230   6.6437510
  26.9955420  30.9460340   6.4410440  27.7606330  30.1398410   7.4689380
  28.7767560  32.8196100   8.0279230  28.4480920  32.0047860   7.6480960
  29.7249860  32.7765910   7.9044920  31.2302170  48.5908140   5.0016800
  30.7705140  49.3423950   4.6274820  30.6014630  47.8714610   4.9431600
  18.0552790  44.6851380   7.3915520  17.3286850  44.0656670   7.3241470
  18.1161940  45.0791990   6.5213600  21.6597890  46.8996380   4.1764930
  22.1762910  46.2883740   3.6513190  22.3095270  47.4025160   4.6675940
  24.3993390  47.7904870   5.0033910  24.6871200  47.5359170   4.1266920
  24.9116610  47.2382230   5.5939480  25.6170400  31.5295070   5.5830420
  24.8342190  32.0040570   5.8627180  25.3233330  30.6249900   5.4743600
  30.1691470  32.2318170   3.6279510  30.6099560  32.1763270   2.7801110
  29.8999060  33.1476180   3.6989690  28.0049600  30.6124270   2.3329520
  28.6078970  31.1844480   2.8078040  27.2642590  31.1763710   2.1103420
  24.4665750  48.7120970  12.3702110  25.3933060  48.4765240  12.4138070
  24.4516180  49.5392970  11.8888140  21.6529360  31.3765720  12.1343990
  21.3713630  31.8799320  11.3704810  22.0349060  30.5787470  11.7686120
  28.2544820  30.7919300  12.7124460  28.1410270  31.1113910  13.6075980
  29.0714560  31.1931810  12.4161740  31.0343310  47.9390830  12.1943150
  31.8268630  47.4440060  11.9869110  31.3276460  48.6180970  12.8018760
  27.1602970  20.0368280  58.1733160  27.0797020  19.1222890  57.9024870
  26.7467390  20.5335350  57.4672870  25.2921010  21.8147300  60.0542430
  24.5163110  21.3347740  60.3441000  25.9433940  21.1352950  59.8798590
  29.3128440  26.2207490  58.8341560  28.8509970  25.4494730  59.1628730
  30.1253990  26.2473560  59.3394010  19.2888100  26.1607200  61.1276210
  19.5916140  25.2704940  60.9486430  20.0331690  26.7177420  60.8998460
  17.7178790  17.0869000  54.7160580  16.8295490  17.4284970  54.6140460
  18.0019980  16.8869320  53.8241410  15.6811800  19.6874650  60.6000280
  16.2527910  18.9196850  60.6003920  15.6813340  19.9863410  59.6906890
  25.5391750  28.5065500  58.4545550  24.9203190  28.9623000  57.8839990
  26.3943530  28.6616960  58.0535250  24.7330000  24.4904490  60.0612590
  24.6638280  23.5494430  59.9001720  25.4949860  24.5805900  60.6335160
  25.7635170  17.2974870  60.2881520  26.1399990  16.4246750  60.1755190
  25.6654680  17.6333570  59.3971960  19.8940180  15.6700500  55.7498960
  20.0006930  16.5704230  56.0567720  18.9832540  15.6218470  55.4593610
  29.5459290  14.7925310  57.2209860  30.3668910  14.3021880  57.2635340
  29.5793370  15.3822970  57.9741700  21.7347910  18.6386870  60.0824140
  22.2426130  19.1367840  60.7229160  22.2661150  17.8622070  59.9063500
  26.4055100  23.3904740  55.8477460  25.7872370  23.8554190  55.2840180
  26.9178350  24.0832220  56.2646970  29.7820770  16.7325690  59.9937400
  29.0776340  17.0210580  60.5740510  30.1432930  17.5425800  59.6336960
  15.7738300  24.0761270  53.2217090  15.3966280  24.5648370  52.4901990
  16.0311370  24.7486550  53.8523620  32.8507690  16.1780480  60.3846610
  31.9032600  16.2119460  60.5162040  33.1757680  16.9919430  60.7695970
  23.3827230  12.4777660  58.6802600  23.6902210  11.9224550  57.9638100
  22.4527930  12.6122120  58.4975590  28.9342290  28.1944950  60.9710060
  28.9469450  27.7907240  60.1032320  28.3817510  28.9692240  60.8671490
  30.2287710  24.9161170  56.0600230  30.1184040  23.9735500  56.1849650
  30.2255960  25.2776810  56.9462990  25.7707990  20.5426490  55.4162720
  24.8437270  20.4763870  55.6451190  25.9232810  21.4806620  55.3017960
  25.7577070  16.8143490  52.4129880  24.8180740  16.9757450  52.4982340
  26.0760330  17.5329170  51.8665870  29.8005280  22.1046790  55.9197970
  29.1817700  21.7666340  55.2724270  29.7829730  21.4606550  56.6277160
  21.3764630  21.0691230  58.1982450  20.9721630  20.3568480  57.7028350
  21.4627750  20.7244470  59.0870490  21.8446330  24.7558790  60.3621660
  21.5474620  24.1504260  59.6829440  22.7946150  24.7936100  60.2511020
  27.9769980  21.3433600  52.9270720  28.4163260  20.5056030  52.7808540
  28.6898400  21.9763000  53.0134860  26.0865360  26.2829670  56.8951960
  26.5261270  27.0254000  56.4807350  26.0252250  26.5256240  57.8190920
  31.5587120  12.5976410  51.2411760  31.2459780  12.6903240  52.1410830
  32.3199590  13.1757440  51.1909190  18.0769260  19.9636210  55.6989100
  17.9566860  20.6898300  55.0870370  17.7670150  19.1939120  55.2217010
  16.9602260  24.8351540  57.9163920  16.5530340  24.9766130  57.0617520
  17.8515270  24.5511700  57.7135130  28.7535540  29.2698790  54.2514970
  28.5936680  28.9801730  55.1496800  28.5882250  28.4938920  53.7160200
  21.2323920  29.0497320  56.0286590  21.0566400  28.1332860  55.8154390
  20.3779660  29.4084610  56.2684390  28.4561670  26.7786350  52.8112970
  27.7626830  26.7763640  52.1515250  29.1984530  26.3545670  52.3807140
  28.0211600  28.4049060  56.8861460  28.4768550  27.6238440  57.2000080
  28.3604120  29.1155880  57.4302640  20.5432920  13.3071280  59.0812770
  20.1001070  14.0880820  58.7497290  21.1017910  13.6301170  59.7883710
  23.6591740  12.9281980  53.9618600  23.0345920  12.9241850  54.6871910
  23.5721860  12.0612940  53.5654570  22.5808820  13.8518610  60.9402370
  22.8781150  14.7581440  60.8594390  23.1294380  13.3637390  60.3261940
  20.3347140  18.4304850  56.8094020  20.1088060  18.2142020  57.7140640
  19.5539670  18.8633310  56.4639990  27.5644900  18.4368220  55.4084670
  26.9653790  19.1604020  55.2248290  28.1124510  18.3745000  54.6261120
  26.1709770  17.0731760  57.4387950  26.5639340  17.3903960  56.6256640
  26.5326620  16.1943640  57.5532470  15.2073940  13.6632560  59.6618150
  14.9186990  14.2335420  60.3743130  15.9519700  13.1837010  60.0249380
  15.3944170  17.6052680  50.8720870  15.3118840  18.5483440  51.0135860
  15.0427230  17.4627590  49.9933220  23.1942300  16.3391710  59.9391220
  23.1978360  15.8981660  59.0895760  24.0893420  16.6609040  60.0463040
  19.0444680  16.2218200  58.8985430  18.7044730  16.6993430  59.6552480
  18.2822000  15.7683320  58.5386530  23.2562450  17.3403790  52.9297980
  23.3775270  17.2990270  53.8783800  22.8710960  18.2027940  52.7744710
  22.2683950  19.6504930  52.3281280  21.7000850  19.2023180  51.7017190
  22.9772950  20.0097710  51.7946430  16.3590760  15.1437180  57.8150100
  16.0737680  14.7792850  58.6528720  16.2969620  14.4117640  57.2013240
  19.8131430  23.6463120  54.6007690  19.0393690  23.1060740  54.4406410
  20.5426060  23.1269730  54.2625450  30.5719410  22.6428480  60.3934080
  31.2918530  23.1383770  60.0030190  30.3701230  21.9646370  59.7487950
  26.0329350  14.0366440  54.5363470  25.2193960  13.5379610  54.4608780
  25.8391300  14.8764690  54.1199820  28.7477740  18.4086090  52.8325630
  29.6357360  18.7203320  52.6576970  28.7182830  17.5358340  52.4406210
  19.8568830  23.3143500  58.2386500  20.3747500  22.5111760  58.1843390
  19.4052850  23.2522640  59.0803330  24.7438330  24.5809780  53.5113800
  25.0854030  25.3252010  53.0157120  23.9151040  24.8940900  53.8738630
  31.0192010  19.7197930  52.3005490  30.9355730  20.1512150  51.4501930
  31.7386200  20.1796280  52.7332310  32.0479260  26.5740190  55.0287620
  31.4055420  25.9195810  55.3031340  31.6609920  26.9795280  54.2528290
  27.6265740  23.9025620  58.8759310  27.9789560  23.3053750  58.2160680
  26.7428070  23.5769850  59.0467560  23.7129020  24.6623310  56.2829720
  24.4000150  25.2092520  56.6637310  22.9261440  25.2064040  56.3179330
  15.8521420  20.2796130  51.7746800  16.7216270  20.5620930  52.0582720
  15.3611740  21.0932000  51.6595610  23.0156230  21.6669340  55.8955080
  23.4719010  22.4774590  56.1215270  22.6644440  21.3492480  56.7273570
  18.9168010  12.0106990  56.3677600  18.7882640  12.0024890  57.3162520
  18.0930030  12.3490080  56.0168610  30.4376640  25.4656650  51.5663970
  30.2114220  24.7487090  52.1588610  30.0472840  25.2169090  50.7285720
  16.2192670  29.4923510  52.3408430  16.5790310  30.0912850  51.6865700
  16.0785010  30.0383400  53.1143460  30.0192890  23.3828590  53.2278130
  29.7314590  23.8441280  54.0156010  30.8145060  22.9226360  53.4962350
  22.2361290  26.8754710  53.1582100  22.2271390  27.6084400  52.5426610
  21.3159650  26.6286290  53.2509060  17.8367930  22.0969600  53.9028860
  17.2295880  22.8368500  53.9124160  18.3117280  22.1868960  53.0767060
  30.7762750  15.2177360  54.3873310  30.1475910  15.3223030  53.6731540
  30.2814670  15.4374140  55.1767190  25.2220890  26.9382950  51.8207290
  25.3232870  26.7346940  50.8909270  24.3222630  26.6841230  52.0255070
  22.7446780  17.4963310  55.8031190  22.0362930  17.9649650  56.2444800
  23.0291260  16.8385320  56.4376380  26.7762210  14.2213970  57.2426980
  26.6529990  14.2400100  56.2936490  27.7246770  14.2692910  57.3625380
  23.8639000  29.4569270  56.5154960  24.1180500  29.4190660  55.5934330
  22.9151480  29.3302600  56.5083210  20.9481800  15.8048390  53.1781900
  21.7972330  16.2418540  53.1122090  20.5813070  16.1168650  54.0053960
  29.8691580  20.3761150  58.0913470  28.9281720  20.3911380  58.2661160
  30.1835650  19.5897110  58.5373770  19.8473220  22.0580750  51.6517430
  20.6136490  21.9462110  52.2142860  19.9247910  21.3618720  50.9994200
  18.5419980  19.4905820  52.3350320  18.6223570  18.5433330  52.4467720
  19.4339730  19.8212700  52.4410980  31.8717160  27.5470000  59.7667730
  31.9964580  28.3701170  60.2391540  32.7382720  27.3360730  59.4191880
  19.3434690  29.6401210  59.4384860  20.0797170  29.0916670  59.7093430
  19.7275610  30.5057220  59.2990850  16.2280170  25.7074780  55.3126370
  15.3019950  25.9495920  55.3031780  16.6936600  26.5349040  55.1911120
  22.4537000  28.8131520  51.2610430  23.2465610  29.1020350  50.8092220
  21.9341350  28.3823690  50.5822910  31.5067170  28.0401650  52.6847170
  31.2208680  27.6266790  51.8701350  31.3086720  28.9689360  52.5647690
  22.9714400  24.0334930  51.1252780  22.8665040  23.4187280  51.8514160
  22.8038620  23.5100820  50.3415790  26.2117130  23.0954960  51.7294770
  25.6627230  23.5424260  52.3737510  26.8336390  22.5904210  52.2532440
  21.8792250  22.0545880  53.6260070  22.3008670  21.8885750  54.4691460
  22.0043090  21.2446110  53.1315210  24.3919890  21.0783490  50.8737170
  24.9125550  20.3632510  50.5078320  25.0388290  21.7169360  51.1737680
  20.7751150  18.1279110  50.5718230  20.5740210  17.2646470  50.9331570
  20.6043200  18.0412470  49.6339830  28.2539460  12.9387340  53.1005110
  28.5341750  12.0955240  53.4564530  27.4805190  13.1710450  53.6143860
  19.5733950  15.2279730  50.5596110  19.8759850  15.2347160  49.6515260
  20.3128540  14.8777590  51.0563770  22.7918880  14.1714350  51.5452310
  22.4440880  13.4938340  50.9654760  22.9931650  13.7103860  52.3595700
  24.9567920  29.1595100  53.1638910  25.8518710  29.4980070  53.1857670
  24.9885550  28.4374510  52.5363190  18.5964080  24.5322150  51.3925910
  19.0338950  25.0751820  52.0483490  19.0811810  23.7069100  51.4022250
  15.8109880  27.3211180  58.8446170  16.1412890  26.4532240  58.6124810
  16.2400880  27.5269700  59.6751130  20.4071800  25.6520190  56.5048140
  20.1067340  25.5285160  57.4052050  20.3009290  24.7928780  56.0963870
  33.1763720  25.4316590  51.2074820  32.3456680  25.4993240  51.6782050
  33.3535550  26.3220710  50.9041680  32.6320180  22.1764070  53.7109020
  33.3939090  22.7460720  53.8168710  32.6474550  21.6091270  54.4817330
  16.1324520  20.7002000  57.9416680  15.4773360  20.4313640  57.2976380
  16.9702470  20.5906480  57.4918660  33.6380150  23.0314170  58.5550950
  34.0088980  22.2481490  58.1486920  34.2782080  23.7203270  58.3768250
  32.6839350  22.4698440  50.8681540  32.9588190  23.3777320  50.7400760
  32.4950090  22.4060970  51.8043530  29.0814960  15.4943290  52.1635170
  29.4999840  15.3074270  51.3231830  28.7751020  14.6422340  52.4738100
  32.5804690  20.4067430  55.8610970  32.2048290  19.6395360  55.4292260
  31.8507810  20.7890130  56.3485900  15.3462600  17.9100930  53.8842010
  14.4426680  18.1731130  53.7093670  15.8303220  18.1812100  53.1041970
  31.8555650  18.6324920  59.1618210  32.3793130  18.1387570  58.5308380
  32.4415070  18.7675280  59.9065780  17.8889810  16.9666470  51.7936390
  18.5981510  16.5449690  51.3083670  17.1729750  17.0341700  51.1619740
  17.5363970  13.0205800  50.8339040  18.2592100  13.5614740  51.1520260
  17.8088490  12.7469220  49.9580580  31.3455620  17.8898270  55.1010620
  31.8414740  17.6569140  55.8859500  31.1471690  17.0510110  54.6848260
  32.7742780  16.5259220  57.6348300  32.6642060  16.3715260  58.5730570
  33.5350370  15.9980160  57.3923710  33.6633050  14.3567140  50.8754440
  34.5882360  14.2248320  50.6672730  33.6408840  14.4359960  51.8290890
  33.7371540  15.1277800  53.5011150  32.9423040  15.0622920  54.0304060
  33.9414820  16.0628440  53.4896500  30.6789960  29.1669350  57.4949540
  31.2749030  28.8453920  56.8183960  30.9368110  28.6941170  58.2862810
  31.2302170  29.8164650  61.3247270  30.7705140  30.5680460  60.9505290
  30.6014630  29.0971120  61.2662070  21.6597890  28.1252890  60.4995400
  22.1762910  27.5140250  59.9743660  22.3095270  28.6281670  60.9906410
  30.1691470  13.4574680  59.9509980  30.6099560  13.4019780  59.1031580
  29.8999060  14.3732690  60.0220160  32.0330040  13.0889920  57.9618800
  31.9718440  12.1451140  57.8149820  32.8122070  13.1970010  58.5072260
  16.3382790  29.2282280  56.9242750  16.1704830  28.5952960  57.6224640
  15.4717300  29.4341680  56.5736940  16.9610810  13.0599060  54.4274610
  17.7190170  13.1727940  53.8538640  16.4987980  13.8968260  54.3818040
  23.5024620  15.1738330  57.4176920  22.6899130  14.7995220  57.0772800
  24.0066260  14.4183410  57.7198110  28.0049600  11.8380780  58.6559990
  28.6078970  12.4100990  59.1308510  27.2642590  12.4020220  58.4333890
  31.1484200  12.2402340  53.9300270  31.3434830  13.1385790  54.1967700
  30.3614070  12.0089420  54.4233220  17.9445490  27.9215510  54.3692890
  17.4193110  28.3023540  53.6654850  17.8690070  28.5466280  55.0902600
  19.3335960  13.5863110  52.9676580  19.8628720  12.7992910  52.8384530
  19.9664280  14.2654300  53.2012110  21.5273800  13.3238250  56.0221970
  20.8976540  12.6225560  56.1892100  20.9878940  14.0842380  55.8055130
  32.7010810  29.4803050  55.6906830  32.8763000  28.7940790  55.0467750
  32.0032380  30.0050100  55.2983500  20.5438460  29.8697890  53.2442140
  21.2757280  29.5857170  52.6966030  20.8032130  29.6311170  54.1341520
  19.7053250  25.9862620  53.2488470  19.0762130  26.4547720  53.7974300
  19.8201080  25.1411840  53.6834660  27.1602970  20.0368280  39.3989670
  27.0797020  19.1222890  39.1281380  26.7467390  20.5335350  38.6929380
  25.2921010  21.8147300  41.2798940  24.5163110  21.3347740  41.5697510
  25.9433940  21.1352950  41.1055100  17.7178790  17.0869000  35.9417090
  16.8295490  17.4284970  35.8396970  18.0019980  16.8869320  35.0497920
  15.6811800  19.6874650  41.8256790  16.2527910  18.9196850  41.8260430
  15.6813340  19.9863410  40.9163400  16.9236670  15.0959010  43.6125720
  16.7439510  14.1984760  43.8928480  16.5216750  15.6430880  44.2872670
  25.7635170  17.2974870  41.5138030  26.1399990  16.4246750  41.4011700
  25.6654680  17.6333570  40.6228470  19.8940180  15.6700500  36.9755470
  20.0006930  16.5704230  37.2824230  18.9832540  15.6218470  36.6850120
  29.5459290  14.7925310  38.4466370  30.3668910  14.3021880  38.4891850
  29.5793370  15.3822970  39.1998210  17.5423340  17.5919510  42.2208060
  18.2233450  17.8557880  42.8395460  17.2271390  16.7520380  42.5546070
  21.7347910  18.6386870  41.3080650  22.2426130  19.1367840  41.9485670
  22.2661150  17.8622070  41.1320010  33.8358840  16.8092060  45.0110000
  33.1311010  17.1973770  44.4925110  34.1016760  17.5042350  45.6130930
  20.0184010  13.2785430  45.5744070  20.0202450  13.7957820  44.7689970
  19.1888320  12.8015610  45.5514000  29.7820770  16.7325690  41.2193910
  29.0776340  17.0210580  41.7997020  30.1432930  17.5425800  40.8593470
  19.6999340  14.9895390  43.5814520  20.0416150  15.8337440  43.2868390
  18.7615150  15.1379130  43.6979860  15.7738300  24.0761270  34.4473600
  15.3966280  24.5648370  33.7158500  16.0311370  24.7486550  35.0780130
  31.3983550  26.3500820  43.4821390  30.7147070  27.0199930  43.4738060
  31.9377840  26.5481470  42.7166250  32.8507690  16.1780480  41.6103120
  31.9032600  16.2119460  41.7418550  33.1757680  16.9919430  41.9952480
  23.3827230  12.4777660  39.9059110  23.6902210  11.9224550  39.1894610
  22.4527930  12.6122120  39.7232100  28.9342290  28.1944950  42.1966570
  28.9469450  27.7907240  41.3288830  28.3817510  28.9692240  42.0928000
  28.3327730  23.0974790  43.5249180  28.7496520  22.8834900  42.6902640
  29.0567550  23.3547580  44.0957800  25.7577070  16.8143490  33.6386390
  24.8180740  16.9757450  33.7238850  26.0760330  17.5329170  33.0922380
  32.2789830  21.4962010  43.6165420  31.4508460  21.5655100  43.1415550
  32.8740310  22.0816320  43.1481250  29.8005280  22.1046790  37.1454480
  29.1817700  21.7666340  36.4980780  29.7829730  21.4606550  37.8533670
  29.2431840  18.2831330  44.5620290  28.8303020  19.1085040  44.8160280
  28.5107790  17.6976370  44.3696650  21.3764630  21.0691230  39.4238960
  20.9721630  20.3568480  38.9284860  21.4627750  20.7244470  40.3127000
  20.0893250  17.8434440  43.2038000  20.6407840  17.9529780  42.4291250
  20.6036760  18.2172040  43.9193230  29.9331940  28.3290660  45.2501270
  29.4562500  29.1362850  45.0573880  29.2493730  27.6768990  45.4027480
  20.9364760  24.4940480  48.2385970  20.0393290  24.7180450  48.4859370
  20.9617630  24.6175420  47.2897370  27.9769980  21.3433600  34.1527230
  28.4163260  20.5056030  34.0065050  28.6898400  21.9763000  34.2391370
  19.7635980  21.3653800  46.8143340  19.6243750  22.2376600  47.1830740
  18.8817340  21.0226610  46.6691280  21.5616330  27.3075500  49.0228490
  21.5331760  27.7118450  48.1556920  21.3981300  26.3785860  48.8600090
  31.5587120  12.5976410  32.4668270  31.2459780  12.6903240  33.3667340
  32.3199590  13.1757440  32.4165700  18.0769260  19.9636210  36.9245610
  17.9566860  20.6898300  36.3126880  17.7670150  19.1939120  36.4473520
  33.5131150  28.0902600  50.3192660  33.9890870  28.5685490  50.9981740
  34.1338310  28.0220090  49.5938160  16.9602260  24.8351540  39.1420430
  16.5530340  24.9766130  38.2874030  17.8515270  24.5511700  38.9391640
  32.9164400  25.2815450  47.4792670  33.0427460  25.0427330  46.5609850
  32.9585780  24.4499990  47.9514750  26.7781140  28.9843450  46.0487480
  27.2925810  28.8951460  46.8509910  25.9350220  29.3303150  46.3415390
  32.7688410  17.3347910  48.4442410  32.1532680  17.8427580  47.9157870
  32.4484830  16.4346240  48.3868350  20.5432920  13.3071280  40.3069280
  20.1001070  14.0880820  39.9753800  21.1017910  13.6301170  41.0140220
  24.8302730  16.1739800  45.9104600  24.3682100  16.3822820  46.7224540
  24.4280840  15.3599150  45.6075270  29.8307240  17.3948750  47.0401260
  28.9800830  17.0954500  47.3610330  29.6709030  17.6390760  46.1285080
  26.9256950  18.8950500  49.1400050  27.2510360  18.0614250  48.8002280
  27.7137280  19.4179020  49.2878380  23.6591740  12.9281980  35.1875110
  23.0345920  12.9241850  35.9128420  23.5721860  12.0612940  34.7911080
  22.5808820  13.8518610  42.1658880  22.8781150  14.7581440  42.0850900
  23.1294380  13.3637390  41.5518450  20.3347140  18.4304850  38.0350530
  20.1088060  18.2142020  38.9397150  19.5539670  18.8633310  37.6896500
  27.5644900  18.4368220  36.6341180  26.9653790  19.1604020  36.4504800
  28.1124510  18.3745000  35.8517630  22.7746350  19.3290430  48.7010800
  22.6789950  18.3885160  48.5511200  23.6178330  19.5505500  48.3058870
  26.1709770  17.0731760  38.6644460  26.5639340  17.3903960  37.8513150
  26.5326620  16.1943640  38.7788980  17.9056890  15.7404100  46.8544580
  17.5120280  16.5879310  47.0617360  17.2175290  15.1030470  47.0453220
  24.4801940  15.8239070  49.9241320  23.7900260  15.6311270  50.5587410
  25.2234240  16.1073710  50.4565620  15.2073940  13.6632560  40.8874660
  14.9186990  14.2335420  41.5999640  15.9519700  13.1837010  41.2505890
  15.3944170  17.6052680  32.0977380  15.3118840  18.5483440  32.2392370
  15.0427230  17.4627590  31.2189730  26.7564910  19.6637510  42.7595240
  26.0246030  20.1724320  43.1085340  26.3589250  18.8467490  42.4584020
  23.1942300  16.3391710  41.1647730  23.1978360  15.8981660  40.3152270
  24.0893420  16.6609040  41.2719550  19.0444680  16.2218200  40.1241940
  18.7044730  16.6993430  40.8808990  18.2822000  15.7683320  39.7643040
  23.2562450  17.3403790  34.1554490  23.3775270  17.2990270  35.1040310
  22.8710960  18.2027940  34.0001220  27.2190820  15.1171190  42.1718180
  27.2363560  15.5679840  43.0160030  26.9706400  14.2176830  42.3851620
  22.2683950  19.6504930  33.5537790  21.7000850  19.2023180  32.9273700
  22.9772950  20.0097710  33.0202940  30.6461570  12.5303370  48.0104560
  30.9707340  11.7993030  48.5362540  30.6818080  12.2117010  47.1085550
  23.4950270  20.3993490  42.9113140  23.8620400  19.9252060  43.6574480
  23.3055330  21.2735060  43.2521480  16.3590760  15.1437180  39.0406610
  16.0737680  14.7792850  39.8785230  16.2969620  14.4117640  38.4269750
  21.2849640  19.4402130  45.2297350  20.9806710  20.3194110  45.4547710
  22.2396100  19.5001920  45.2654790  30.5719410  22.6428480  41.6190590
  31.2918530  23.1383770  41.2286700  30.3701230  21.9646370  40.9744460
  26.0329350  14.0366440  35.7619980  25.2193960  13.5379610  35.6865290
  25.8391300  14.8764690  35.3456330  25.9538210  22.7137540  47.5059590
  25.8875520  21.7933210  47.2517180  25.3243350  22.8112980  48.2204230
  28.7477740  18.4086090  34.0582140  29.6357360  18.7203320  33.8833480
  28.7182830  17.5358340  33.6662720  17.3413370  20.2804870  46.3768710
  16.9828310  20.9458720  46.9642050  17.0467930  19.4488420  46.7481330
  20.5426490  20.7389110  49.2608260  20.2426630  20.8846290  48.3636080
  21.3137730  20.1794400  49.1681650  25.8854940  25.5358110  47.2563390
  25.8999480  24.6039070  47.0382300  25.1780040  25.6217870  47.8953160
  31.0192010  19.7197930  33.5262000  30.9355730  20.1512150  32.6758440
  31.7386200  20.1796280  33.9588820  32.0966150  22.1765450  46.6031970
  31.3714340  22.7694230  46.4061360  32.6241610  22.1688990  45.8045340
  15.8521420  20.2796130  33.0003310  16.7216270  20.5620930  33.2839230
  15.3611740  21.0932000  32.8852120  18.9168010  12.0106990  37.5934110
  18.7882640  12.0024890  38.5419030  18.0930030  12.3490080  37.2425120
  26.5920920  25.1808030  43.0681340  27.2343150  24.4801190  43.1813510
  27.1170270  25.9606470  42.8878230  28.3658540  25.9802930  46.2717400
  28.7014780  26.5669620  46.9495320  27.4458880  25.8495640  46.5015190
  16.2192670  29.4923510  33.5664940  16.5790310  30.0912850  32.9122210
  16.0785010  30.0383400  34.3399970  15.9161940  13.7698110  47.0540810
  15.2020460  13.9695030  47.6593420  16.3356980  12.9937680  47.4255610
  16.2034530  27.7578370  48.0407340  16.3125650  26.8173110  47.9002730
  15.5515090  28.0233120  47.3921070  24.1947120  26.0294260  49.4405460
  23.8743990  25.3103500  49.9851150  23.5205480  26.7049330  49.5141520
  17.8367930  22.0969600  35.1285370  17.2295880  22.8368500  35.1380670
  18.3117280  22.1868960  34.3023570  27.4100720  16.2620420  44.8042260
  27.7781540  15.4415630  45.1321830  26.5498920  16.3222310  45.2197910
  30.7762750  15.2177360  35.6129820  30.1475910  15.3223030  34.8988050
  30.2814670  15.4374140  36.4023700  22.7446780  17.4963310  37.0287700
  22.0362930  17.9649650  37.4701310  23.0291260  16.8385320  37.6632890
  24.3702710  18.9160010  45.0280230  24.8687960  19.3905830  45.6932080
  24.5125660  17.9923530  45.2350260  26.7762210  14.2213970  38.4683490
  26.6529990  14.2400100  37.5193000  27.7246770  14.2692910  38.5881890
  20.9481800  15.8048390  34.4038410  21.7972330  16.2418540  34.3378600
  20.5813070  16.1168650  35.2310470  31.5769570  15.1327970  45.8708620
  31.0743170  15.8733370  46.2102430  32.3926230  15.5211970  45.5545410
  29.8691580  20.3761150  39.3169980  28.9281720  20.3911380  39.4917670
  30.1835650  19.5897110  39.7630280  19.8473220  22.0580750  32.8773940
  20.6136490  21.9462110  33.4399370  19.9247910  21.3618720  32.2250710
  18.5419980  19.4905820  33.5606830  18.6223570  18.5433330  33.6724230
  19.4339730  19.8212700  33.6667490  31.8717160  27.5470000  40.9924240
  31.9964580  28.3701170  41.4648050  32.7382720  27.3360730  40.6448390
  16.2280170  25.7074780  36.5382880  15.3019950  25.9495920  36.5288290
  16.6936600  26.5349040  36.4167630  18.3492970  28.8247280  49.8526950
  19.1505700  29.1459330  50.2662350  17.8344790  28.4642860  50.5746860
  27.1857600  24.9327150  49.8002360  26.5795760  24.9558750  49.0598110
  26.8811710  24.2010190  50.3369610  28.6157970  28.6607440  48.4111770
  29.5679720  28.5765460  48.3612010  28.4686190  29.3249150  49.0845560
  16.0690780  21.3120740  48.7963000  16.5729800  20.7328020  49.3679230
  15.3298200  21.5960970  49.3339370  23.1228720  22.7191730  48.3298520
  22.3574390  23.2876730  48.2453190  23.3044680  22.4267940  47.4366750
  30.2652070  24.4497060  48.8873540  31.0061540  24.7872820  48.3841000
  29.5024750  24.6189120  48.3343310  18.1013860  19.4550330  49.6913070
  18.1419200  19.1564200  50.5998300  18.9559360  19.8557940  49.5320590
  20.0419670  18.0342430  47.6587560  19.5116130  17.5433380  47.0310900
  20.7107740  18.4626630  47.1245490  24.3919890  21.0783490  32.0993680
  24.9125550  20.3632510  31.7334830  25.0388290  21.7169360  32.3994190
  28.9397730  22.5011890  47.4228750  29.3538750  22.6556970  48.2719170
  28.0048730  22.6267110  47.5854530  29.4119900  19.8408050  49.4267900
  29.9940670  19.0860370  49.3388380  29.5881670  20.3715490  48.6499380
  20.5291970  15.0004800  47.7384850  20.4348840  14.3825550  47.0135720
  19.9489360  15.7271090  47.5114760  23.2953410  13.5578040  44.7712240
  22.8470710  13.5802300  43.9257790  22.6618610  13.1597060  45.3682540
  23.7012960  22.4532370  45.3924680  24.1201070  23.2965100  45.2200920
  22.7821590  22.5904410  45.1631460  26.0376860  20.1848550  46.7762520
  26.1573070  19.5889690  47.5157360  26.8970860  20.2218240  46.3563820
  28.3764760  20.7385740  45.3525030  27.8499980  21.2628360  44.7490170
  28.7196100  21.3713130  45.9834760  20.7751150  18.1279110  31.7974740
  20.5740210  17.2646470  32.1588080  20.6043200  18.0412470  30.8596340
  22.8045630  16.7269900  48.0338340  23.3945320  16.4185750  48.7216160
  21.9865870  16.2549650  48.1898240  27.6239060  16.3435710  48.2671360
  26.9354580  15.6817250  48.2021350  28.3445080  15.8973980  48.7119820
  28.2539460  12.9387340  34.3261620  28.5341750  12.0955240  34.6821040
  27.4805190  13.1710450  34.8400370  19.5733950  15.2279730  31.7852620
  19.8759850  15.2347160  30.8771770  20.3128540  14.8777590  32.2820280
  24.4082590  29.9936590  46.7669060  24.3341290  30.8971730  47.0741430
  23.5061430  29.6748490  46.7391130  22.7918880  14.1714350  32.7708820
  22.4440880  13.4938340  32.1911270  22.9931650  13.7103860  33.5852210
  31.9362270  27.6898770  47.0961620  31.3364260  27.7491330  46.3525540
  32.0656170  26.7503750  47.2258470  16.1324520  20.7002000  39.1673190
  15.4773360  20.4313640  38.5232890  16.9702470  20.5906480  38.7175170
  33.6380150  23.0314170  39.7807460  34.0088980  22.2481490  39.3743430
  34.2782080  23.7203270  39.6024760  30.6213910  24.4150750  45.1937780
  29.8073750  24.8447910  45.4563570  31.0288110  25.0269160  44.5806830
  29.0814960  15.4943290  33.3891680  29.4999840  15.3074270  32.5488340
  28.7751020  14.6422340  33.6994610  32.5804690  20.4067430  37.0867480
  32.2048290  19.6395360  36.6548770  31.8507810  20.7890130  37.5742410
  31.9704310  19.5538950  46.7207000  31.7390400  19.3251700  45.8204950
  32.2308860  20.4738500  46.6751890  16.7216450  17.9963660  47.6134950
  15.8272500  17.9630420  47.9528660  17.2614000  18.1950450  48.3786200
  30.4092380  14.7795380  49.4986700  31.2862560  14.7878780  49.8820700
  30.4213220  14.0426220  48.8879050  15.3462600  17.9100930  35.1098520
  14.4426680  18.1731130  34.9350180  15.8303220  18.1812100  34.3298480
  31.8555650  18.6324920  40.3874720  32.3793130  18.1387570  39.7564890
  32.4415070  18.7675280  41.1322290  32.0345370  18.7164790  43.9094270
  31.0848080  18.6828330  44.0239260  32.2158380  19.6264900  43.6744040
  17.8889810  16.9666470  33.0192900  18.5981510  16.5449690  32.5340180
  17.1729750  17.0341700  32.3876250  17.5363970  13.0205800  32.0595550
  18.2592100  13.5614740  32.3776770  17.8088490  12.7469220  31.1837090
  31.3455620  17.8898270  36.3267130  31.8414740  17.6569140  37.1116010
  31.1471690  17.0510110  35.9104770  17.2256160  12.2711990  41.9618170
  17.8732350  11.7209370  41.5213330  17.6458000  12.5255140  42.7833980
  32.7742780  16.5259220  38.8604810  32.6642060  16.3715260  39.7987080
  33.5350370  15.9980160  38.6180220  31.1208500  12.4653350  45.3187810
  31.7580720  13.0787490  45.6847000  31.2683390  12.5014010  44.3737040
  33.6633050  14.3567140  32.1010950  34.5882360  14.2248320  31.8929240
  33.6408840  14.4359960  33.0547400  33.7371540  15.1277800  34.7267660
  32.9423040  15.0622920  35.2560570  33.9414820  16.0628440  34.7153010
  16.9788160  12.4267660  44.7043490  16.6302980  12.8831480  45.4701670
  16.6475860  11.5324790  44.7865920  18.5852530  25.5987260  48.8696680
  18.5422160  25.2280170  49.7511140  18.7163540  26.5364830  49.0098500
  24.4912980  13.6179540  48.2262910  24.4301870  14.2101370  48.9758320
  25.4313360  13.5105500  48.0813170  27.1287540  13.2749600  47.8655200
  27.7427950  13.5928890  47.2036280  27.6737100  12.7898190  48.4851060
  33.5462720  29.1741230  45.2717040  33.0521000  29.5710100  44.5544170
  32.9376010  28.5490440  45.6654320  17.6508800  11.9543860  47.9794260
  18.1991790  11.7731910  47.2160370  17.7164110  11.1637970  48.5150570
  27.8695580  11.8381740  44.1924490  26.9955420  12.1716850  43.9897420
  27.7606330  11.3654920  45.0176360  28.7767560  14.0452610  45.5766210
  28.4480920  13.2304370  45.1967940  29.7249860  14.0022420  45.4531900
  31.2302170  29.8164650  42.5503780  30.7705140  30.5680460  42.1761800
  30.6014630  29.0971120  42.4918580  25.6170400  12.7551580  43.1317400
  24.8342190  13.2297080  43.4114160  25.3233330  11.8506410  43.0230580
  30.1691470  13.4574680  41.1766490  30.6099560  13.4019780  40.3288090
  29.8999060  14.3732690  41.2476670  32.0330040  13.0889920  39.1875310
  31.9718440  12.1451140  39.0406330  32.8122070  13.1970010  39.7328770
  16.9610810  13.0599060  35.6531120  17.7190170  13.1727940  35.0795150
  16.4987980  13.8968260  35.6074550  23.5024620  15.1738330  38.6433430
  22.6899130  14.7995220  38.3029310  24.0066260  14.4183410  38.9454620
  28.0049600  11.8380780  39.8816500  28.6078970  12.4100990  40.3565020
  27.2642590  12.4020220  39.6590400  31.1484200  12.2402340  35.1556780
  31.3434830  13.1385790  35.4224210  30.3614070  12.0089420  35.6489730
  19.3335960  13.5863110  34.1933090  19.8628720  12.7992910  34.0641040
  19.9664280  14.2654300  34.4268620  21.5273800  13.3238250  37.2478480
  20.8976540  12.6225560  37.4148610  20.9878940  14.0842380  37.0311640
  24.4665750  29.9377480  49.9189090  25.3933060  29.7021750  49.9625050
  24.4516180  30.7649480  49.4375120  21.6529360  12.6022230  49.6830970
  21.3713630  13.1055830  48.9191790  22.0349060  11.8043980  49.3173100
  28.2544820  12.0175810  50.2611440  28.1410270  12.3370420  51.1562960
  29.0714560  12.4188320  49.9648720  31.0343310  29.1647340  49.7430130
  31.8268630  28.6696570  49.5356090  31.3276460  29.8437480  50.3505740
  27.1602970  20.0368280  20.6246180  27.0797020  19.1222890  20.3537890
  26.7467390  20.5335350  19.9185890  25.2921010  21.8147300  22.5055450
  24.5163110  21.3347740  22.7954020  25.9433940  21.1352950  22.3311610
  19.3086840  22.1267110  23.3831210  18.4771720  21.8715820  23.7827720
  19.9167820  22.1977880  24.1189130  19.2888100  26.1607200  23.5789230
  19.5916140  25.2704940  23.3999450  20.0331690  26.7177420  23.3511480
  17.7178790  17.0869000  17.1673600  16.8295490  17.4284970  17.0653480
  18.0019980  16.8869320  16.2754430  15.6811800  19.6874650  23.0513300
  16.2527910  18.9196850  23.0516940  15.6813340  19.9863410  22.1419910
  16.9236670  15.0959010  24.8382230  16.7439510  14.1984760  25.1184990
  16.5216750  15.6430880  25.5129180  25.7635170  17.2974870  22.7394540
  26.1399990  16.4246750  22.6268210  25.6654680  17.6333570  21.8484980
  19.8940180  15.6700500  18.2011980  20.0006930  16.5704230  18.5080740
  18.9832540  15.6218470  17.9106630  29.5459290  14.7925310  19.6722880
  30.3668910  14.3021880  19.7148360  29.5793370  15.3822970  20.4254720
  17.5423340  17.5919510  23.4464570  18.2233450  17.8557880  24.0651970
  17.2271390  16.7520380  23.7802580  21.7347910  18.6386870  22.5337160
  22.2426130  19.1367840  23.1742180  22.2661150  17.8622070  22.3576520
  20.0184010  13.2785430  26.8000580  20.0202450  13.7957820  25.9946480
  19.1888320  12.8015610  26.7770510  26.4055100  23.3904740  18.2990480
  25.7872370  23.8554190  17.7353200  26.9178350  24.0832220  18.7159990
  21.2686860  22.9180610  24.9774080  20.9356240  23.5449530  25.6195150
  21.4453540  23.4442490  24.1975750  29.7820770  16.7325690  22.4450420
  29.0776340  17.0210580  23.0253530  30.1432930  17.5425800  22.0849980
  19.6999340  14.9895390  24.8071030  20.0416150  15.8337440  24.5124900
  18.7615150  15.1379130  24.9236370  15.7738300  24.0761270  15.6730110
  15.3966280  24.5648370  14.9415010  16.0311370  24.7486550  16.3036640
  32.8507690  16.1780480  22.8359630  31.9032600  16.2119460  22.9675060
  33.1757680  16.9919430  23.2208990  23.3827230  12.4777660  21.1315620
  23.6902210  11.9224550  20.4151120  22.4527930  12.6122120  20.9488610
  25.7707990  20.5426490  17.8675740  24.8437270  20.4763870  18.0964210
  25.9232810  21.4806620  17.7530980  25.7577070  16.8143490  14.8642900
  24.8180740  16.9757450  14.9495360  26.0760330  17.5329170  14.3178890
  29.2431840  18.2831330  25.7876800  28.8303020  19.1085040  26.0416790
  28.5107790  17.6976370  25.5953160  21.3764630  21.0691230  20.6495470
  20.9721630  20.3568480  20.1541370  21.4627750  20.7244470  21.5383510
  21.8446330  24.7558790  22.8134680  21.5474620  24.1504260  22.1342460
  22.7946150  24.7936100  22.7024040  20.0893250  17.8434440  24.4294510
  20.6407840  17.9529780  23.6547760  20.6036760  18.2172040  25.1449740
  27.9769980  21.3433600  15.3783740  28.4163260  20.5056030  15.2321560
  28.6898400  21.9763000  15.4647880  19.7635980  21.3653800  28.0399850
  19.6243750  22.2376600  28.4087250  18.8817340  21.0226610  27.8947790
  31.5587120  12.5976410  13.6924780  31.2459780  12.6903240  14.5923850
  32.3199590  13.1757440  13.6422210  18.0769260  19.9636210  18.1502120
  17.9566860  20.6898300  17.5383390  17.7670150  19.1939120  17.6730030
  15.7154630  23.1351350  23.9570760  15.7935050  23.2700120  23.0126480
  16.3296310  22.4267240  24.1498880  16.9602260  24.8351540  20.3676940
  16.5530340  24.9766130  19.5130540  17.8515270  24.5511700  20.1648150
  28.7535540  29.2698790  16.7027990  28.5936680  28.9801730  17.6009820
  28.5882250  28.4938920  16.1673220  21.2323920  29.0497320  18.4799610
  21.0566400  28.1332860  18.2667410  20.3779660  29.4084610  18.7197410
  28.4561670  26.7786350  15.2625990  27.7626830  26.7763640  14.6028270
  29.1984530  26.3545670  14.8320160  15.7714150  24.1765520  26.4965220
  15.9345190  23.7070880  25.6784590  16.2366600  23.6689080  27.1614060
  20.5432920  13.3071280  21.5325790  20.1001070  14.0880820  21.2010310
  21.1017910  13.6301170  22.2396730  24.8302730  16.1739800  27.1361110
  24.3682100  16.3822820  27.9481050  24.4280840  15.3599150  26.8331780
  29.8307240  17.3948750  28.2657770  28.9800830  17.0954500  28.5866840
  29.6709030  17.6390760  27.3541590  26.9256950  18.8950500  30.3656560
  27.2510360  18.0614250  30.0258790  27.7137280  19.4179020  30.5134890
  23.6591740  12.9281980  16.4131620  23.0345920  12.9241850  17.1384930
  23.5721860  12.0612940  16.0167590  22.5808820  13.8518610  23.3915390
  22.8781150  14.7581440  23.3107410  23.1294380  13.3637390  22.7774960
  20.3347140  18.4304850  19.2607040  20.1088060  18.2142020  20.1653660
  19.5539670  18.8633310  18.9153010  27.5644900  18.4368220  17.8597690
  26.9653790  19.1604020  17.6761310  28.1124510  18.3745000  17.0774140
  22.7746350  19.3290430  29.9267310  22.6789950  18.3885160  29.7767710
  23.6178330  19.5505500  29.5315380  26.1709770  17.0731760  19.8900970
  26.5639340  17.3903960  19.0769660  26.5326620  16.1943640  20.0045490
  17.9056890  15.7404100  28.0801090  17.5120280  16.5879310  28.2873870
  17.2175290  15.1030470  28.2709730  24.4801940  15.8239070  31.1497830
  23.7900260  15.6311270  31.7843920  25.2234240  16.1073710  31.6822130
  15.2073940  13.6632560  22.1131170  14.9186990  14.2335420  22.8256150
  15.9519700  13.1837010  22.4762400  15.3944170  17.6052680  13.3233890
  15.3118840  18.5483440  13.4648880  15.0427230  17.4627590  12.4446240
  26.7564910  19.6637510  23.9851750  26.0246030  20.1724320  24.3341850
  26.3589250  18.8467490  23.6840530  23.1942300  16.3391710  22.3904240
  23.1978360  15.8981660  21.5408780  24.0893420  16.6609040  22.4976060
  19.0444680  16.2218200  21.3498450  18.7044730  16.6993430  22.1065500
  18.2822000  15.7683320  20.9899550  23.2562450  17.3403790  15.3811000
  23.3775270  17.2990270  16.3296820  22.8710960  18.2027940  15.2257730
  27.2190820  15.1171190  23.3974690  27.2363560  15.5679840  24.2416540
  26.9706400  14.2176830  23.6108130  22.2683950  19.6504930  14.7794300
  21.7000850  19.2023180  14.1530210  22.9772950  20.0097710  14.2459450
  30.6461570  12.5303370  29.2361070  30.9707340  11.7993030  29.7619050
  30.6818080  12.2117010  28.3342060  23.4950270  20.3993490  24.1369650
  23.8620400  19.9252060  24.8830990  23.3055330  21.2735060  24.4777990
  16.3590760  15.1437180  20.2663120  16.0737680  14.7792850  21.1041740
  16.2969620  14.4117640  19.6526260  21.2849640  19.4402130  26.4553860
  20.9806710  20.3194110  26.6804220  22.2396100  19.5001920  26.4911300
  19.8131430  23.6463120  17.0520710  19.0393690  23.1060740  16.8919430
  20.5426060  23.1269730  16.7138470  26.0329350  14.0366440  16.9876490
  25.2193960  13.5379610  16.9121800  25.8391300  14.8764690  16.5712840
  28.7477740  18.4086090  15.2838650  29.6357360  18.7203320  15.1089990
  28.7182830  17.5358340  14.8919230  19.8568830  23.3143500  20.6899520
  20.3747500  22.5111760  20.6356410  19.4052850  23.2522640  21.5316350
  24.7438330  24.5809780  15.9626820  25.0854030  25.3252010  15.4670140
  23.9151040  24.8940900  16.3251650  17.3413370  20.2804870  27.6025220
  16.9828310  20.9458720  28.1898560  17.0467930  19.4488420  27.9737840
  20.5426490  20.7389110  30.4864770  20.2426630  20.8846290  29.5892590
  21.3137730  20.1794400  30.3938160  31.0192010  19.7197930  14.7518510
  30.9355730  20.1512150  13.9014950  31.7386200  20.1796280  15.1845330
  23.7129020  24.6623310  18.7342740  24.4000150  25.2092520  19.1150330
  22.9261440  25.2064040  18.7692350  15.8521420  20.2796130  14.2259820
  16.7216270  20.5620930  14.5095740  15.3611740  21.0932000  14.1108630
  23.0156230  21.6669340  18.3468100  23.4719010  22.4774590  18.5728290
  22.6644440  21.3492480  19.1786590  18.9168010  12.0106990  18.8190620
  18.7882640  12.0024890  19.7675540  18.0930030  12.3490080  18.4681630
  30.4376640  25.4656650  14.0176990  30.2114220  24.7487090  14.6101630
  30.0472840  25.2169090  13.1798740  16.2192670  29.4923510  14.7921450
  16.5790310  30.0912850  14.1378720  16.0785010  30.0383400  15.5656480
  15.9161940  13.7698110  28.2797320  15.2020460  13.9695030  28.8849930
  16.3356980  12.9937680  28.6512120  30.0192890  23.3828590  15.6791150
  29.7314590  23.8441280  16.4669030  30.8145060  22.9226360  15.9475370
  22.2361290  26.8754710  15.6095120  22.2271390  27.6084400  14.9939630
  21.3159650  26.6286290  15.7022080  17.8367930  22.0969600  16.3541880
  17.2295880  22.8368500  16.3637180  18.3117280  22.1868960  15.5280080
  27.4100720  16.2620420  26.0298770  27.7781540  15.4415630  26.3578340
  26.5498920  16.3222310  26.4454420  30.7762750  15.2177360  16.8386330
  30.1475910  15.3223030  16.1244560  30.2814670  15.4374140  17.6280210
  25.2220890  26.9382950  14.2720310  25.3232870  26.7346940  13.3422290
  24.3222630  26.6841230  14.4768090  22.7446780  17.4963310  18.2544210
  22.0362930  17.9649650  18.6957820  23.0291260  16.8385320  18.8889400
  24.3702710  18.9160010  26.2536740  24.8687960  19.3905830  26.9188590
  24.5125660  17.9923530  26.4606770  26.7762210  14.2213970  19.6940000
  26.6529990  14.2400100  18.7449510  27.7246770  14.2692910  19.8138400
  23.8639000  29.4569270  18.9667980  24.1180500  29.4190660  18.0447350
  22.9151480  29.3302600  18.9596230  20.9481800  15.8048390  15.6294920
  21.7972330  16.2418540  15.5635110  20.5813070  16.1168650  16.4566980
  31.5769570  15.1327970  27.0965130  31.0743170  15.8733370  27.4358940
  32.3926230  15.5211970  26.7801920  19.8473220  22.0580750  14.1030450
  20.6136490  21.9462110  14.6655880  19.9247910  21.3618720  13.4507220
  18.5419980  19.4905820  14.7863340  18.6223570  18.5433330  14.8980740
  19.4339730  19.8212700  14.8924000  16.2280170  25.7074780  17.7639390
  15.3019950  25.9495920  17.7544800  16.6936600  26.5349040  17.6424140
  22.4537000  28.8131520  13.7123450  23.2465610  29.1020350  13.2605240
  21.9341350  28.3823690  13.0335930  31.5067170  28.0401650  15.1360190
  31.2208680  27.6266790  14.3214370  31.3086720  28.9689360  15.0160710
  16.0690780  21.3120740  30.0219510  16.5729800  20.7328020  30.5935740
  15.3298200  21.5960970  30.5595880  22.9714400  24.0334930  13.5765800
  22.8665040  23.4187280  14.3027180  22.8038620  23.5100820  12.7928810
  23.1228720  22.7191730  29.5555030  22.3574390  23.2876730  29.4709700
  23.3044680  22.4267940  28.6623260  26.2117130  23.0954960  14.1807790
  25.6627230  23.5424260  14.8250530  26.8336390  22.5904210  14.7045460
  18.1013860  19.4550330  30.9169580  18.1419200  19.1564200  31.8254810
  18.9559360  19.8557940  30.7577100  21.8792250  22.0545880  16.0773090
  22.3008670  21.8885750  16.9204480  22.0043090  21.2446110  15.5828230
  20.0419670  18.0342430  28.8844070  19.5116130  17.5433380  28.2567410
  20.7107740  18.4626630  28.3502000  24.3919890  21.0783490  13.3250190
  24.9125550  20.3632510  12.9591340  25.0388290  21.7169360  13.6250700
  20.5291970  15.0004800  28.9641360  20.4348840  14.3825550  28.2392230
  19.9489360  15.7271090  28.7371270  23.2953410  13.5578040  25.9968750
  22.8470710  13.5802300  25.1514300  22.6618610  13.1597060  26.5939050
  23.7012960  22.4532370  26.6181190  24.1201070  23.2965100  26.4457430
  22.7821590  22.5904410  26.3887970  26.0376860  20.1848550  28.0019030
  26.1573070  19.5889690  28.7413870  26.8970860  20.2218240  27.5820330
  20.7751150  18.1279110  13.0231250  20.5740210  17.2646470  13.3844590
  20.6043200  18.0412470  12.0852850  22.8045630  16.7269900  29.2594850
  23.3945320  16.4185750  29.9472670  21.9865870  16.2549650  29.4154750
  27.6239060  16.3435710  29.4927870  26.9354580  15.6817250  29.4277860
  28.3445080  15.8973980  29.9376330  28.2539460  12.9387340  15.5518130
  28.5341750  12.0955240  15.9077550  27.4805190  13.1710450  16.0656880
  19.5733950  15.2279730  13.0109130  19.8759850  15.2347160  12.1028280
  20.3128540  14.8777590  13.5076790  22.7918880  14.1714350  13.9965330
  22.4440880  13.4938340  13.4167780  22.9931650  13.7103860  14.8108720
  24.9567920  29.1595100  15.6151930  25.8518710  29.4980070  15.6370690
  24.9885550  28.4374510  14.9876210  18.5964080  24.5322150  13.8438930
  19.0338950  25.0751820  14.4996510  19.0811810  23.7069100  13.8535270
  15.8109880  27.3211180  21.2959190  16.1412890  26.4532240  21.0637830
  16.2400880  27.5269700  22.1264150  20.4071800  25.6520190  18.9561160
  20.1067340  25.5285160  19.8565070  20.3009290  24.7928780  18.5476890
  16.3000090  28.1881770  24.0340820  15.8631080  28.3682570  24.8664970
  16.8677770  28.9456390  23.8922540  33.1763720  25.4316590  13.6587840
  32.3456680  25.4993240  14.1295070  33.3535550  26.3220710  13.3554700
  32.6320180  22.1764070  16.1622040  33.3939090  22.7460720  16.2681730
  32.6474550  21.6091270  16.9330350  16.1324520  20.7002000  20.3929700
  15.4773360  20.4313640  19.7489400  16.9702470  20.5906480  19.9431680
  32.6839350  22.4698440  13.3194560  32.9588190  23.3777320  13.1913780
  32.4950090  22.4060970  14.2556550  29.0814960  15.4943290  14.6148190
  29.4999840  15.3074270  13.7744850  28.7751020  14.6422340  14.9251120
  17.1700450  21.0854570  24.9333040  17.5373490  20.9981970  25.8129060
  16.6011270  20.3221120  24.8339900  16.7216450  17.9963660  28.8391460
  15.8272500  17.9630420  29.1785170  17.2614000  18.1950450  29.6042710
  30.4092380  14.7795380  30.7243210  31.2862560  14.7878780  31.1077210
  30.4213220  14.0426220  30.1135560  15.3462600  17.9100930  16.3355030
  14.4426680  18.1731130  16.1606690  15.8303220  18.1812100  15.5554990
  31.8555650  18.6324920  21.6131230  32.3793130  18.1387570  20.9821400
  32.4415070  18.7675280  22.3578800  17.8889810  16.9666470  14.2449410
  18.5981510  16.5449690  13.7596690  17.1729750  17.0341700  13.6132760
  17.5363970  13.0205800  13.2852060  18.2592100  13.5614740  13.6033280
  17.8088490  12.7469220  12.4093600  31.3455620  17.8898270  17.5523640
  31.8414740  17.6569140  18.3372520  31.1471690  17.0510110  17.1361280
  17.2256160  12.2711990  23.1874680  17.8732350  11.7209370  22.7469840
  17.6458000  12.5255140  24.0090490  32.7742780  16.5259220  20.0861320
  32.6642060  16.3715260  21.0243590  33.5350370  15.9980160  19.8436730
  31.1208500  12.4653350  26.5444320  31.7580720  13.0787490  26.9103510
  31.2683390  12.5014010  25.5993550  33.6633050  14.3567140  13.3267460
  34.5882360  14.2248320  13.1185750  33.6408840  14.4359960  14.2803910
  33.7371540  15.1277800  15.9524170  32.9423040  15.0622920  16.4817080
  33.9414820  16.0628440  15.9409520  16.9788160  12.4267660  25.9300000
  16.6302980  12.8831480  26.6958180  16.6475860  11.5324790  26.0122430
  24.4912980  13.6179540  29.4519420  24.4301870  14.2101370  30.2014830
  25.4313360  13.5105500  29.3069680  27.1287540  13.2749600  29.0911710
  27.7427950  13.5928890  28.4292790  27.6737100  12.7898190  29.7107570
  33.5462720  29.1741230  26.4973550  33.0521000  29.5710100  25.7800680
  32.9376010  28.5490440  26.8910830  17.6508800  11.9543860  29.2050770
  18.1991790  11.7731910  28.4416880  17.7164110  11.1637970  29.7407080
  27.8695580  11.8381740  25.4181000  26.9955420  12.1716850  25.2153930
  27.7606330  11.3654920  26.2432870  28.7767560  14.0452610  26.8022720
  28.4480920  13.2304370  26.4224450  29.7249860  14.0022420  26.6788410
  25.6170400  12.7551580  24.3573910  24.8342190  13.2297080  24.6370670
  25.3233330  11.8506410  24.2487090  30.1691470  13.4574680  22.4023000
  30.6099560  13.4019780  21.5544600  29.8999060  14.3732690  22.4733180
  32.0330040  13.0889920  20.4131820  31.9718440  12.1451140  20.2662840
  32.8122070  13.1970010  20.9585280  16.3382790  29.2282280  19.3755770
  16.1704830  28.5952960  20.0737660  15.4717300  29.4341680  19.0249960
  16.9610810  13.0599060  16.8787630  17.7190170  13.1727940  16.3051660
  16.4987980  13.8968260  16.8331060  23.5024620  15.1738330  19.8689940
  22.6899130  14.7995220  19.5285820  24.0066260  14.4183410  20.1711130
  28.0049600  11.8380780  21.1073010  28.6078970  12.4100990  21.5821530
  27.2642590  12.4020220  20.8846910  31.1484200  12.2402340  16.3813290
  31.3434830  13.1385790  16.6480720  30.3614070  12.0089420  16.8746240
  17.9445490  27.9215510  16.8205910  17.4193110  28.3023540  16.1167870
  17.8690070  28.5466280  17.5415620  19.3335960  13.5863110  15.4189600
  19.8628720  12.7992910  15.2897550  19.9664280  14.2654300  15.6525130
  21.5273800  13.3238250  18.4734990  20.8976540  12.6225560  18.6405120
  20.9878940  14.0842380  18.2568150  21.6529360  12.6022230  30.9087480
  21.3713630  13.1055830  30.1448300  22.0349060  11.8043980  30.5429610
  20.5438460  29.8697890  15.6955160  21.2757280  29.5857170  15.1479050
  20.8032130  29.6311170  16.5854540  19.7053250  25.9862620  15.7001490
  19.0762130  26.4547720  16.2487320  19.8201080  25.1411840  16.1347680
  28.2544820  12.0175810  31.4867950  28.1410270  12.3370420  32.3819470
  29.0714560  12.4188320  31.1905230  25.2921010  21.8147300   3.7311960
  24.5163110  21.3347740   4.0210530  25.9433940  21.1352950   3.5568120
  19.3086840  22.1267110   4.6087720  18.4771720  21.8715820   5.0084230
  19.9167820  22.1977880   5.3445640  29.3128440  26.2207490   2.5111090
  28.8509970  25.4494730   2.8398260  30.1253990  26.2473560   3.0163540
  19.2888100  26.1607200   4.8045740  19.5916140  25.2704940   4.6255960
  20.0331690  26.7177420   4.5767990  15.6811800  19.6874650   4.2769810
  16.2527910  18.9196850   4.2773450  15.6813340  19.9863410   3.3676420
  24.7330000  24.4904490   3.7382120  24.6638280  23.5494430   3.5771250
  25.4949860  24.5805900   4.3104690  16.9236670  15.0959010   6.0638740
  16.7439510  14.1984760   6.3441500  16.5216750  15.6430880   6.7385690
  25.7635170  17.2974870   3.9651050  26.1399990  16.4246750   3.8524720
  25.6654680  17.6333570   3.0741490  17.5423340  17.5919510   4.6721080
  18.2233450  17.8557880   5.2908480  17.2271390  16.7520380   5.0059090
  21.7347910  18.6386870   3.7593670  22.2426130  19.1367840   4.3998690
  22.2661150  17.8622070   3.5833030  33.8358840  16.8092060   7.4623020
  33.1311010  17.1973770   6.9438130  34.1016760  17.5042350   8.0643950
  20.0184010  13.2785430   8.0257090  20.0202450  13.7957820   7.2202990
  19.1888320  12.8015610   8.0027020  21.2686860  22.9180610   6.2030590
  20.9356240  23.5449530   6.8451660  21.4453540  23.4442490   5.4232260
  29.7820770  16.7325690   3.6706930  29.0776340  17.0210580   4.2510040
  30.1432930  17.5425800   3.3106490  19.6999340  14.9895390   6.0327540
  20.0416150  15.8337440   5.7381410  18.7615150  15.1379130   6.1492880
  20.4805960  24.8861410   8.0179770  21.0979960  25.5612490   7.7364220
  19.6199080  25.2949390   7.9267270  31.3983550  26.3500820   5.9334410
  30.7147070  27.0199930   5.9251080  31.9377840  26.5481470   5.1679270
  32.8507690  16.1780480   4.0616140  31.9032600  16.2119460   4.1931570
  33.1757680  16.9919430   4.4465500  28.9342290  28.1944950   4.6479590
  28.9469450  27.7907240   3.7801850  28.3817510  28.9692240   4.5441020
  28.3327730  23.0974790   5.9762200  28.7496520  22.8834900   5.1415660
  29.0567550  23.3547580   6.5470820  32.2789830  21.4962010   6.0678440
  31.4508460  21.5655100   5.5928570  32.8740310  22.0816320   5.5994270
  29.2431840  18.2831330   7.0133310  28.8303020  19.1085040   7.2673300
  28.5107790  17.6976370   6.8209670  21.8446330  24.7558790   4.0391190
  21.5474620  24.1504260   3.3598970  22.7946150  24.7936100   3.9280550
  20.0893250  17.8434440   5.6551020  20.6407840  17.9529780   4.8804270
  20.6036760  18.2172040   6.3706250  29.9331940  28.3290660   7.7014290
  29.4562500  29.1362850   7.5086900  29.2493730  27.6768990   7.8540500
  20.9364760  24.4940480  10.6898990  20.0393290  24.7180450  10.9372390
  20.9617630  24.6175420   9.7410390  19.7635980  21.3653800   9.2656360
  19.6243750  22.2376600   9.6343760  18.8817340  21.0226610   9.1204300
  21.5616330  27.3075500  11.4741510  21.5331760  27.7118450  10.6069940
  21.3981300  26.3785860  11.3113110  33.5131150  28.0902600  12.7705680
  33.9890870  28.5685490  13.4494760  34.1338310  28.0220090  12.0451180
  15.7154630  23.1351350   5.1827270  15.7935050  23.2700120   4.2382990
  16.3296310  22.4267240   5.3755390  32.9164400  25.2815450   9.9305690
  33.0427460  25.0427330   9.0122870  32.9585780  24.4499990  10.4027770
  26.7781140  28.9843450   8.5000500  27.2925810  28.8951460   9.3022930
  25.9350220  29.3303150   8.7928410  32.7688410  17.3347910  10.8955430
  32.1532680  17.8427580  10.3670890  32.4484830  16.4346240  10.8381370
  15.7714150  24.1765520   7.7221730  15.9345190  23.7070880   6.9041100
  16.2366600  23.6689080   8.3870570  20.5432920  13.3071280   2.7582300
  20.1001070  14.0880820   2.4266820  21.1017910  13.6301170   3.4653240
  24.8302730  16.1739800   8.3617620  24.3682100  16.3822820   9.1737560
  24.4280840  15.3599150   8.0588290  29.8307240  17.3948750   9.4914280
  28.9800830  17.0954500   9.8123350  29.6709030  17.6390760   8.5798100
  26.9256950  18.8950500  11.5913070  27.2510360  18.0614250  11.2515300
  27.7137280  19.4179020  11.7391400  22.5808820  13.8518610   4.6171900
  22.8781150  14.7581440   4.5363920  23.1294380  13.3637390   4.0031470
  22.7746350  19.3290430  11.1523820  22.6789950  18.3885160  11.0024220
  23.6178330  19.5505500  10.7571890  17.9056890  15.7404100   9.3057600
  17.5120280  16.5879310   9.5130380  17.2175290  15.1030470   9.4966240
  24.4801940  15.8239070  12.3754340  23.7900260  15.6311270  13.0100430
  25.2234240  16.1073710  12.9078640  15.2073940  13.6632560   3.3387680
  14.9186990  14.2335420   4.0512660  15.9519700  13.1837010   3.7018910
  26.7564910  19.6637510   5.2108260  26.0246030  20.1724320   5.5598360
  26.3589250  18.8467490   4.9097040  23.1942300  16.3391710   3.6160750
  23.1978360  15.8981660   2.7665290  24.0893420  16.6609040   3.7232570
  19.0444680  16.2218200   2.5754960  18.7044730  16.6993430   3.3322010
  18.2822000  15.7683320   2.2156060  27.2190820  15.1171190   4.6231200
  27.2363560  15.5679840   5.4673050  26.9706400  14.2176830   4.8364640
  30.6461570  12.5303370  10.4617580  30.9707340  11.7993030  10.9875560
  30.6818080  12.2117010   9.5598570  17.3453130  23.5516950   9.8817540
  16.9607920  22.9110620  10.4800500  17.6565320  24.2553070  10.4512270
  23.4950270  20.3993490   5.3626160  23.8620400  19.9252060   6.1087500
  23.3055330  21.2735060   5.7034500  21.2849640  19.4402130   7.6810370
  20.9806710  20.3194110   7.9060730  22.2396100  19.5001920   7.7167810
  30.5719410  22.6428480   4.0703610  31.2918530  23.1383770   3.6799720
  30.3701230  21.9646370   3.4257480  25.9538210  22.7137540   9.9572610
  25.8875520  21.7933210   9.7030200  25.3243350  22.8112980  10.6717250
  19.8568830  23.3143500   1.9156030  20.3747500  22.5111760   1.8612920
  19.4052850  23.2522640   2.7572860  17.3413370  20.2804870   8.8281730
  16.9828310  20.9458720   9.4155070  17.0467930  19.4488420   9.1994350
  20.5426490  20.7389110  11.7121280  20.2426630  20.8846290  10.8149100
  21.3137730  20.1794400  11.6194670  25.8854940  25.5358110   9.7076410
  25.8999480  24.6039070   9.4895320  25.1780040  25.6217870  10.3466180
  32.0966150  22.1765450   9.0544990  31.3714340  22.7694230   8.8574380
  32.6241610  22.1688990   8.2558360  27.6265740  23.9025620   2.5528840
  27.9789560  23.3053750   1.8930210  26.7428070  23.5769850   2.7237090
  25.3188840  27.1775680   6.8016910  25.9631060  27.3835060   7.4790330
  25.6818280  26.4164080   6.3487760  26.5920920  25.1808030   5.5194360
  27.2343150  24.4801190   5.6326530  27.1170270  25.9606470   5.3391250
  28.3658540  25.9802930   8.7230420  28.7014780  26.5669620   9.4008340
  27.4458880  25.8495640   8.9528210  15.9161940  13.7698110   9.5053830
  15.2020460  13.9695030  10.1106440  16.3356980  12.9937680   9.8768630
  16.2034530  27.7578370  10.4920360  16.3125650  26.8173110  10.3515750
  15.5515090  28.0233120   9.8434090  24.1947120  26.0294260  11.8918480
  23.8743990  25.3103500  12.4364170  23.5205480  26.7049330  11.9654540
  27.4100720  16.2620420   7.2555280  27.7781540  15.4415630   7.5834850
  26.5498920  16.3222310   7.6710930  24.3702710  18.9160010   7.4793250
  24.8687960  19.3905830   8.1445100  24.5125660  17.9923530   7.6863280
  31.5769570  15.1327970   8.3221640  31.0743170  15.8733370   8.6615450
  32.3926230  15.5211970   8.0058430  29.8691580  20.3761150   1.7683000
  28.9281720  20.3911380   1.9430690  30.1835650  19.5897110   2.2143300
  31.8717160  27.5470000   3.4437260  31.9964580  28.3701170   3.9161070
  32.7382720  27.3360730   3.0961410  19.3434690  29.6401210   3.1154390
  20.0797170  29.0916670   3.3862960  19.7275610  30.5057220   2.9760380
  18.3492970  28.8247280  12.3039970  19.1505700  29.1459330  12.7175370
  17.8344790  28.4642860  13.0259880  27.1857600  24.9327150  12.2515380
  26.5795760  24.9558750  11.5111130  26.8811710  24.2010190  12.7882630
  28.6157970  28.6607440  10.8624790  29.5679720  28.5765460  10.8125030
  28.4686190  29.3249150  11.5358580  16.0690780  21.3120740  11.2476020
  16.5729800  20.7328020  11.8192250  15.3298200  21.5960970  11.7852390
  23.1228720  22.7191730  10.7811540  22.3574390  23.2876730  10.6966210
  23.3044680  22.4267940   9.8879770  30.2652070  24.4497060  11.3386560
  31.0061540  24.7872820  10.8354020  29.5024750  24.6189120  10.7856330
  18.1013860  19.4550330  12.1426090  18.1419200  19.1564200  13.0511320
  18.9559360  19.8557940  11.9833610  20.0419670  18.0342430  10.1100580
  19.5116130  17.5433380   9.4823920  20.7107740  18.4626630   9.5758510
  28.9397730  22.5011890   9.8741770  29.3538750  22.6556970  10.7232190
  28.0048730  22.6267110  10.0367550  29.4119900  19.8408050  11.8780920
  29.9940670  19.0860370  11.7901400  29.5881670  20.3715490  11.1012400
  20.5291970  15.0004800  10.1897870  20.4348840  14.3825550   9.4648740
  19.9489360  15.7271090   9.9627780  23.2953410  13.5578040   7.2225260
  22.8470710  13.5802300   6.3770810  22.6618610  13.1597060   7.8195560
  23.7012960  22.4532370   7.8437700  24.1201070  23.2965100   7.6713940
  22.7821590  22.5904410   7.6144480  26.0376860  20.1848550   9.2275540
  26.1573070  19.5889690   9.9670380  26.8970860  20.2218240   8.8076840
  28.3764760  20.7385740   7.8038050  27.8499980  21.2628360   7.2003190
  28.7196100  21.3713130   8.4347780  21.5520380  28.7585380   8.9595430
  21.0141470  29.4831440   8.6404130  21.8054340  28.2815720   8.1692770
  22.8045630  16.7269900  10.4851360  23.3945320  16.4185750  11.1729180
  21.9865870  16.2549650  10.6411260  27.6239060  16.3435710  10.7184380
  26.9354580  15.6817250  10.6534370  28.3445080  15.8973980  11.1632840
  24.4082590  29.9936590   9.2182080  24.3341290  30.8971730   9.5254450
  23.5061430  29.6748490   9.1904150  15.8109880  27.3211180   2.5215700
  16.1412890  26.4532240   2.2894340  16.2400880  27.5269700   3.3520660
  16.3000090  28.1881770   5.2597330  15.8631080  28.3682570   6.0921480
  16.8677770  28.9456390   5.1179050  31.9362270  27.6898770   9.5474640
  31.3364260  27.7491330   8.8038560  32.0656170  26.7503750   9.6771490
  33.6380150  23.0314170   2.2320480  34.0088980  22.2481490   1.8256450
  34.2782080  23.7203270   2.0537780  30.6213910  24.4150750   7.6450800
  29.8073750  24.8447910   7.9076590  31.0288110  25.0269160   7.0319850
  17.1700450  21.0854570   6.1589550  17.5373490  20.9981970   7.0385570
  16.6011270  20.3221120   6.0596410  31.9704310  19.5538950   9.1720020
  31.7390400  19.3251700   8.2717970  32.2308860  20.4738500   9.1264910
  16.7216450  17.9963660  10.0647970  15.8272500  17.9630420  10.4041680
  17.2614000  18.1950450  10.8299220  30.4092380  14.7795380  11.9499720
  31.2862560  14.7878780  12.3333720  30.4213220  14.0426220  11.3392070
  31.8555650  18.6324920   2.8387740  32.3793130  18.1387570   2.2077910
  32.4415070  18.7675280   3.5835310  32.0345370  18.7164790   6.3607290
  31.0848080  18.6828330   6.4752280  32.2158380  19.6264900   6.1257060
  17.2256160  12.2711990   4.4131190  17.8732350  11.7209370   3.9726350
  17.6458000  12.5255140   5.2347000  31.1208500  12.4653350   7.7700830
  31.7580720  13.0787490   8.1360020  31.2683390  12.5014010   6.8250060
  16.9788160  12.4267660   7.1556510  16.6302980  12.8831480   7.9214690
  16.6475860  11.5324790   7.2378940  18.5852530  25.5987260  11.3209700
  18.5422160  25.2280170  12.2024160  18.7163540  26.5364830  11.4611520
  22.2858560  27.1546850   6.9219420  22.0449920  27.4221410   6.0349940
  23.2261200  27.3252580   6.9770280  24.4912980  13.6179540  10.6775930
  24.4301870  14.2101370  11.4271340  25.4313360  13.5105500  10.5326190
  27.1287540  13.2749600  10.3168220  27.7427950  13.5928890   9.6549300
  27.6737100  12.7898190  10.9364080  33.5462720  29.1741230   7.7230060
  33.0521000  29.5710100   7.0057190  32.9376010  28.5490440   8.1167340
  17.6508800  11.9543860  10.4307280  18.1991790  11.7731910   9.6673390
  17.7164110  11.1637970  10.9663590  18.4240560  28.5449510   8.4407480
  17.8300880  28.4134210   9.1797520  18.4164400  27.7087650   7.9749580
  27.8695580  11.8381740   6.6437510  26.9955420  12.1716850   6.4410440
  27.7606330  11.3654920   7.4689380  28.7767560  14.0452610   8.0279230
  28.4480920  13.2304370   7.6480960  29.7249860  14.0022420   7.9044920
  31.2302170  29.8164650   5.0016800  30.7705140  30.5680460   4.6274820
  30.6014630  29.0971120   4.9431600  18.0552790  25.9107890   7.3915520
  17.3286850  25.2913180   7.3241470  18.1161940  26.3048500   6.5213600
  21.6597890  28.1252890   4.1764930  22.1762910  27.5140250   3.6513190
  22.3095270  28.6281670   4.6675940  24.3993390  29.0161380   5.0033910
  24.6871200  28.7615680   4.1266920  24.9116610  28.4638740   5.5939480
  25.6170400  12.7551580   5.5830420  24.8342190  13.2297080   5.8627180
  25.3233330  11.8506410   5.4743600  30.1691470  13.4574680   3.6279510
  30.6099560  13.4019780   2.7801110  29.8999060  14.3732690   3.6989690
  28.0049600  11.8380780   2.3329520  28.6078970  12.4100990   2.8078040
  27.2642590  12.4020220   2.1103420  24.4665750  29.9377480  12.3702110
  25.3933060  29.7021750  12.4138070  24.4516180  30.7649480  11.8888140
  21.6529360  12.6022230  12.1343990  21.3713630  13.1055830  11.3704810
  22.0349060  11.8043980  11.7686120  28.2544820  12.0175810  12.7124460
  28.1410270  12.3370420  13.6075980  29.0714560  12.4188320  12.4161740
  31.0343310  29.1647340  12.1943150  31.8268630  28.6696570  11.9869110
  31.3276460  29.8437480  12.8018760  25.2921010   3.0403810  60.0542430
  24.5163110   2.5604250  60.3441000  25.9433940   2.3609460  59.8798590
  29.3128440   7.4464000  58.8341560  28.8509970   6.6751240  59.1628730
  30.1253990   7.4730070  59.3394010  19.2888100   7.3863710  61.1276210
  19.5916140   6.4961450  60.9486430  20.0331690   7.9433930  60.8998460
  25.5391750   9.7322010  58.4545550  24.9203190  10.1879510  57.8839990
  26.3943530   9.8873470  58.0535250  24.7330000   5.7161000  60.0612590
  24.6638280   4.7750940  59.9001720  25.4949860   5.8062410  60.6335160
  26.4055100   4.6161250  55.8477460  25.7872370   5.0810700  55.2840180
  26.9178350   5.3088730  56.2646970  15.7738300   5.3017780  53.2217090
  15.3966280   5.7904880  52.4901990  16.0311370   5.9743060  53.8523620
  28.9342290   9.4201460  60.9710060  28.9469450   9.0163750  60.1032320
  28.3817510  10.1948750  60.8671490  30.2287710   6.1417680  56.0600230
  30.1184040   5.1992010  56.1849650  30.2255960   6.5033320  56.9462990
  25.7707990   1.7683000  55.4162720  24.8437270   1.7020380  55.6451190
  25.9232810   2.7063130  55.3017960  29.8005280   3.3303300  55.9197970
  29.1817700   2.9922850  55.2724270  29.7829730   2.6863060  56.6277160
  21.3764630   2.2947740  58.1982450  20.9721630   1.5824990  57.7028350
  21.4627750   1.9500980  59.0870490  21.8446330   5.9815300  60.3621660
  21.5474620   5.3760770  59.6829440  22.7946150   6.0192610  60.2511020
  27.9769980   2.5690110  52.9270720  28.4163260   1.7312540  52.7808540
  28.6898400   3.2019510  53.0134860  26.0865360   7.5086180  56.8951960
  26.5261270   8.2510510  56.4807350  26.0252250   7.7512750  57.8190920
  16.9602260   6.0608050  57.9163920  16.5530340   6.2022640  57.0617520
  17.8515270   5.7768210  57.7135130  28.7535540  10.4955300  54.2514970
  28.5936680  10.2058240  55.1496800  28.5882250   9.7195430  53.7160200
  21.2323920  10.2753830  56.0286590  21.0566400   9.3589370  55.8154390
  20.3779660  10.6341120  56.2684390  28.4561670   8.0042860  52.8112970
  27.7626830   8.0020150  52.1515250  29.1984530   7.5802180  52.3807140
  28.0211600   9.6305570  56.8861460  28.4768550   8.8494950  57.2000080
  28.3604120  10.3412390  57.4302640  19.8131430   4.8719630  54.6007690
  19.0393690   4.3317250  54.4406410  20.5426060   4.3526240  54.2625450
  30.5719410   3.8684990  60.3934080  31.2918530   4.3640280  60.0030190
  30.3701230   3.1902880  59.7487950  19.8568830   4.5400010  58.2386500
  20.3747500   3.7368270  58.1843390  19.4052850   4.4779150  59.0803330
  24.7438330   5.8066290  53.5113800  25.0854030   6.5508520  53.0157120
  23.9151040   6.1197410  53.8738630  32.0479260   7.7996700  55.0287620
  31.4055420   7.1452320  55.3031340  31.6609920   8.2051790  54.2528290
  27.6265740   5.1282130  58.8759310  27.9789560   4.5310260  58.2160680
  26.7428070   4.8026360  59.0467560  23.7129020   5.8879820  56.2829720
  24.4000150   6.4349030  56.6637310  22.9261440   6.4320550  56.3179330
  23.0156230   2.8925850  55.8955080  23.4719010   3.7031100  56.1215270
  22.6644440   2.5748990  56.7273570  30.4376640   6.6913160  51.5663970
  30.2114220   5.9743600  52.1588610  30.0472840   6.4425600  50.7285720
  16.2192670  10.7180020  52.3408430  16.5790310  11.3169360  51.6865700
  16.0785010  11.2639910  53.1143460  30.0192890   4.6085100  53.2278130
  29.7314590   5.0697790  54.0156010  30.8145060   4.1482870  53.4962350
  22.2361290   8.1011220  53.1582100  22.2271390   8.8340910  52.5426610
  21.3159650   7.8542800  53.2509060  17.8367930   3.3226110  53.9028860
  17.2295880   4.0625010  53.9124160  18.3117280   3.4125470  53.0767060
  25.2220890   8.1639460  51.8207290  25.3232870   7.9603450  50.8909270
  24.3222630   7.9097740  52.0255070  23.8639000  10.6825780  56.5154960
  24.1180500  10.6447170  55.5934330  22.9151480  10.5559110  56.5083210
  19.8473220   3.2837260  51.6517430  20.6136490   3.1718620  52.2142860
  19.9247910   2.5875230  50.9994200  31.8717160   8.7726510  59.7667730
  31.9964580   9.5957680  60.2391540  32.7382720   8.5617240  59.4191880
  19.3434690  10.8657720  59.4384860  20.0797170  10.3173180  59.7093430
  19.7275610  11.7313730  59.2990850  16.2280170   6.9331290  55.3126370
  15.3019950   7.1752430  55.3031780  16.6936600   7.7605550  55.1911120
  22.4537000  10.0388030  51.2610430  23.2465610  10.3276860  50.8092220
  21.9341350   9.6080200  50.5822910  31.5067170   9.2658160  52.6847170
  31.2208680   8.8523300  51.8701350  31.3086720  10.1945870  52.5647690
  22.9714400   5.2591440  51.1252780  22.8665040   4.6443790  51.8514160
  22.8038620   4.7357330  50.3415790  26.2117130   4.3211470  51.7294770
  25.6627230   4.7680770  52.3737510  26.8336390   3.8160720  52.2532440
  21.8792250   3.2802390  53.6260070  22.3008670   3.1142260  54.4691460
  22.0043090   2.4702620  53.1315210  24.3919890   2.3040000  50.8737170
  24.9125550   1.5889020  50.5078320  25.0388290   2.9425870  51.1737680
  24.9567920  10.3851610  53.1638910  25.8518710  10.7236580  53.1857670
  24.9885550   9.6631020  52.5363190  18.5964080   5.7578660  51.3925910
  19.0338950   6.3008330  52.0483490  19.0811810   4.9325610  51.4022250
  15.8109880   8.5467690  58.8446170  16.1412890   7.6788750  58.6124810
  16.2400880   8.7526210  59.6751130  20.4071800   6.8776700  56.5048140
  20.1067340   6.7541670  57.4052050  20.3009290   6.0185290  56.0963870
  33.1763720   6.6573100  51.2074820  32.3456680   6.7249750  51.6782050
  33.3535550   7.5477220  50.9041680  32.6320180   3.4020580  53.7109020
  33.3939090   3.9717230  53.8168710  32.6474550   2.8347780  54.4817330
  16.1324520   1.9258510  57.9416680  15.4773360   1.6570150  57.2976380
  16.9702470   1.8162990  57.4918660  33.6380150   4.2570680  58.5550950
  34.0088980   3.4738000  58.1486920  34.2782080   4.9459780  58.3768250
  32.6839350   3.6954950  50.8681540  32.9588190   4.6033830  50.7400760
  32.4950090   3.6317480  51.8043530  30.6789960  10.3925860  57.4949540
  31.2749030  10.0710430  56.8183960  30.9368110   9.9197680  58.2862810
  31.2302170  11.0421160  61.3247270  30.7705140  11.7936970  60.9505290
  30.6014630  10.3227630  61.2662070  21.6597890   9.3509400  60.4995400
  22.1762910   8.7396760  59.9743660  22.3095270   9.8538180  60.9906410
  16.3382790  10.4538790  56.9242750  16.1704830   9.8209470  57.6224640
  15.4717300  10.6598190  56.5736940  17.9445490   9.1472020  54.3692890
  17.4193110   9.5280050  53.6654850  17.8690070   9.7722790  55.0902600
  32.7010810  10.7059560  55.6906830  32.8763000  10.0197300  55.0467750
  32.0032380  11.2306610  55.2983500  20.5438460  11.0954400  53.2442140
  21.2757280  10.8113680  52.6966030  20.8032130  10.8567680  54.1341520
  19.7053250   7.2119130  53.2488470  19.0762130   7.6804230  53.7974300
  19.8201080   6.3668350  53.6834660  25.2921010   3.0403810  41.2798940
  24.5163110   2.5604250  41.5697510  25.9433940   2.3609460  41.1055100
  19.3086840   3.3523620  42.1574700  18.4771720   3.0972330  42.5571210
  19.9167820   3.4234390  42.8932620  29.3128440   7.4464000  40.0598070
  28.8509970   6.6751240  40.3885240  30.1253990   7.4730070  40.5650520
  19.2888100   7.3863710  42.3532720  19.5916140   6.4961450  42.1742940
  20.0331690   7.9433930  42.1254970  25.5391750   9.7322010  39.6802060
  24.9203190  10.1879510  39.1096500  26.3943530   9.8873470  39.2791760
  24.7330000   5.7161000  41.2869100  24.6638280   4.7750940  41.1258230
  25.4949860   5.8062410  41.8591670  26.4055100   4.6161250  37.0733970
  25.7872370   5.0810700  36.5096690  26.9178350   5.3088730  37.4903480
  21.2686860   4.1437120  43.7517570  20.9356240   4.7706040  44.3938640
  21.4453540   4.6699000  42.9719240  20.4805960   6.1117920  45.5666750
  21.0979960   6.7869000  45.2851200  19.6199080   6.5205900  45.4754250
  15.7738300   5.3017780  34.4473600  15.3966280   5.7904880  33.7158500
  16.0311370   5.9743060  35.0780130  31.3983550   7.5757330  43.4821390
  30.7147070   8.2456440  43.4738060  31.9377840   7.7737980  42.7166250
  28.9342290   9.4201460  42.1966570  28.9469450   9.0163750  41.3288830
  28.3817510  10.1948750  42.0928000  30.2287710   6.1417680  37.2856740
  30.1184040   5.1992010  37.4106160  30.2255960   6.5033320  38.1719500
  28.3327730   4.3231300  43.5249180  28.7496520   4.1091410  42.6902640
  29.0567550   4.5804090  44.0957800  25.7707990   1.7683000  36.6419230
  24.8437270   1.7020380  36.8707700  25.9232810   2.7063130  36.5274470
  32.2789830   2.7218520  43.6165420  31.4508460   2.7911610  43.1415550
  32.8740310   3.3072830  43.1481250  29.8005280   3.3303300  37.1454480
  29.1817700   2.9922850  36.4980780  29.7829730   2.6863060  37.8533670
  21.3764630   2.2947740  39.4238960  20.9721630   1.5824990  38.9284860
  21.4627750   1.9500980  40.3127000  21.8446330   5.9815300  41.5878170
  21.5474620   5.3760770  40.9085950  22.7946150   6.0192610  41.4767530
  29.9331940   9.5547170  45.2501270  29.4562500  10.3619360  45.0573880
  29.2493730   8.9025500  45.4027480  20.9364760   5.7196990  48.2385970
  20.0393290   5.9436960  48.4859370  20.9617630   5.8431930  47.2897370
  27.9769980   2.5690110  34.1527230  28.4163260   1.7312540  34.0065050
  28.6898400   3.2019510  34.2391370  19.7635980   2.5910310  46.8143340
  19.6243750   3.4633110  47.1830740  18.8817340   2.2483120  46.6691280
  26.0865360   7.5086180  38.1208470  26.5261270   8.2510510  37.7063860
  26.0252250   7.7512750  39.0447430  21.5616330   8.5332010  49.0228490
  21.5331760   8.9374960  48.1556920  21.3981300   7.6042370  48.8600090
  33.5131150   9.3159110  50.3192660  33.9890870   9.7942000  50.9981740
  34.1338310   9.2476600  49.5938160  15.7154630   4.3607860  42.7314250
  15.7935050   4.4956630  41.7869970  16.3296310   3.6523750  42.9242370
  16.9602260   6.0608050  39.1420430  16.5530340   6.2022640  38.2874030
  17.8515270   5.7768210  38.9391640  32.9164400   6.5071960  47.4792670
  33.0427460   6.2683840  46.5609850  32.9585780   5.6756500  47.9514750
  26.7781140  10.2099960  46.0487480  27.2925810  10.1207970  46.8509910
  25.9350220  10.5559660  46.3415390  28.7535540  10.4955300  35.4771480
  28.5936680  10.2058240  36.3753310  28.5882250   9.7195430  34.9416710
  21.2323920  10.2753830  37.2543100  21.0566400   9.3589370  37.0410900
  20.3779660  10.6341120  37.4940900  28.4561670   8.0042860  34.0369480
  27.7626830   8.0020150  33.3771760  29.1984530   7.5802180  33.6063650
  28.0211600   9.6305570  38.1117970  28.4768550   8.8494950  38.4256590
  28.3604120  10.3412390  38.6559150  15.7714150   5.4022030  45.2708710
  15.9345190   4.9327390  44.4528080  16.2366600   4.8945590  45.9357550
  17.3453130   4.7773460  47.4304520  16.9607920   4.1367130  48.0287480
  17.6565320   5.4809580  47.9999250  19.8131430   4.8719630  35.8264200
  19.0393690   4.3317250  35.6662920  20.5426060   4.3526240  35.4881960
  30.5719410   3.8684990  41.6190590  31.2918530   4.3640280  41.2286700
  30.3701230   3.1902880  40.9744460  25.9538210   3.9394050  47.5059590
  25.8875520   3.0189720  47.2517180  25.3243350   4.0369490  48.2204230
  19.8568830   4.5400010  39.4643010  20.3747500   3.7368270  39.4099900
  19.4052850   4.4779150  40.3059840  24.7438330   5.8066290  34.7370310
  25.0854030   6.5508520  34.2413630  23.9151040   6.1197410  35.0995140
  25.8854940   6.7614620  47.2563390  25.8999480   5.8295580  47.0382300
  25.1780040   6.8474380  47.8953160  32.0966150   3.4021960  46.6031970
  31.3714340   3.9950740  46.4061360  32.6241610   3.3945500  45.8045340
  32.0479260   7.7996700  36.2544130  31.4055420   7.1452320  36.5287850
  31.6609920   8.2051790  35.4784800  27.6265740   5.1282130  40.1015820
  27.9789560   4.5310260  39.4417190  26.7428070   4.8026360  40.2724070
  23.7129020   5.8879820  37.5086230  24.4000150   6.4349030  37.8893820
  22.9261440   6.4320550  37.5435840  23.0156230   2.8925850  37.1211590
  23.4719010   3.7031100  37.3471780  22.6644440   2.5748990  37.9530080
  25.3188840   8.4032190  44.3503890  25.9631060   8.6091570  45.0277310
  25.6818280   7.6420590  43.8974740  26.5920920   6.4064540  43.0681340
  27.2343150   5.7057700  43.1813510  27.1170270   7.1862980  42.8878230
  30.4376640   6.6913160  32.7920480  30.2114220   5.9743600  33.3845120
  30.0472840   6.4425600  31.9542230  28.3658540   7.2059440  46.2717400
  28.7014780   7.7926130  46.9495320  27.4458880   7.0752150  46.5015190
  16.2192670  10.7180020  33.5664940  16.5790310  11.3169360  32.9122210
  16.0785010  11.2639910  34.3399970  30.0192890   4.6085100  34.4534640
  29.7314590   5.0697790  35.2412520  30.8145060   4.1482870  34.7218860
  16.2034530   8.9834880  48.0407340  16.3125650   8.0429620  47.9002730
  15.5515090   9.2489630  47.3921070  24.1947120   7.2550770  49.4405460
  23.8743990   6.5360010  49.9851150  23.5205480   7.9305840  49.5141520
  22.2361290   8.1011220  34.3838610  22.2271390   8.8340910  33.7683120
  21.3159650   7.8542800  34.4765570  17.8367930   3.3226110  35.1285370
  17.2295880   4.0625010  35.1380670  18.3117280   3.4125470  34.3023570
  25.2220890   8.1639460  33.0463800  25.3232870   7.9603450  32.1165780
  24.3222630   7.9097740  33.2511580  23.8639000  10.6825780  37.7411470
  24.1180500  10.6447170  36.8190840  22.9151480  10.5559110  37.7339720
  19.8473220   3.2837260  32.8773940  20.6136490   3.1718620  33.4399370
  19.9247910   2.5875230  32.2250710  31.8717160   8.7726510  40.9924240
  31.9964580   9.5957680  41.4648050  32.7382720   8.5617240  40.6448390
  19.3434690  10.8657720  40.6641370  20.0797170  10.3173180  40.9349940
  19.7275610  11.7313730  40.5247360  16.2280170   6.9331290  36.5382880
  15.3019950   7.1752430  36.5288290  16.6936600   7.7605550  36.4167630
  18.3492970  10.0503790  49.8526950  19.1505700  10.3715840  50.2662350
  17.8344790   9.6899370  50.5746860  22.4537000  10.0388030  32.4866940
  23.2465610  10.3276860  32.0348730  21.9341350   9.6080200  31.8079420
  27.1857600   6.1583660  49.8002360  26.5795760   6.1815260  49.0598110
  26.8811710   5.4266700  50.3369610  28.6157970   9.8863950  48.4111770
  29.5679720   9.8021970  48.3612010  28.4686190  10.5505660  49.0845560
  31.5067170   9.2658160  33.9103680  31.2208680   8.8523300  33.0957860
  31.3086720  10.1945870  33.7904200  16.0690780   2.5377250  48.7963000
  16.5729800   1.9584530  49.3679230  15.3298200   2.8217480  49.3339370
  22.9714400   5.2591440  32.3509290  22.8665040   4.6443790  33.0770670
  22.8038620   4.7357330  31.5672300  23.1228720   3.9448240  48.3298520
  22.3574390   4.5133240  48.2453190  23.3044680   3.6524450  47.4366750
  26.2117130   4.3211470  32.9551280  25.6627230   4.7680770  33.5994020
  26.8336390   3.8160720  33.4788950  30.2652070   5.6753570  48.8873540
  31.0061540   6.0129330  48.3841000  29.5024750   5.8445630  48.3343310
  21.8792250   3.2802390  34.8516580  22.3008670   3.1142260  35.6947970
  22.0043090   2.4702620  34.3571720  24.3919890   2.3040000  32.0993680
  24.9125550   1.5889020  31.7334830  25.0388290   2.9425870  32.3994190
  28.9397730   3.7268400  47.4228750  29.3538750   3.8813480  48.2719170
  28.0048730   3.8523620  47.5854530  23.7012960   3.6788880  45.3924680
  24.1201070   4.5221610  45.2200920  22.7821590   3.8160920  45.1631460
  28.3764760   1.9642250  45.3525030  27.8499980   2.4884870  44.7490170
  28.7196100   2.5969640  45.9834760  21.5520380   9.9841890  46.5082410
  21.0141470  10.7087950  46.1891110  21.8054340   9.5072230  45.7179750
  24.4082590  11.2193100  46.7669060  24.3341290  12.1228240  47.0741430
  23.5061430  10.9005000  46.7391130  24.9567920  10.3851610  34.3895420
  25.8518710  10.7236580  34.4114180  24.9885550   9.6631020  33.7619700
  18.5964080   5.7578660  32.6182420  19.0338950   6.3008330  33.2740000
  19.0811810   4.9325610  32.6278760  15.8109880   8.5467690  40.0702680
  16.1412890   7.6788750  39.8381320  16.2400880   8.7526210  40.9007640
  20.4071800   6.8776700  37.7304650  20.1067340   6.7541670  38.6308560
  20.3009290   6.0185290  37.3220380  16.3000090   9.4138280  42.8084310
  15.8631080   9.5939080  43.6408460  16.8677770  10.1712900  42.6666030
  31.9362270   8.9155280  47.0961620  31.3364260   8.9747840  46.3525540
  32.0656170   7.9760260  47.2258470  33.1763720   6.6573100  32.4331330
  32.3456680   6.7249750  32.9038560  33.3535550   7.5477220  32.1298190
  32.6320180   3.4020580  34.9365530  33.3939090   3.9717230  35.0425220
  32.6474550   2.8347780  35.7073840  16.1324520   1.9258510  39.1673190
  15.4773360   1.6570150  38.5232890  16.9702470   1.8162990  38.7175170
  33.6380150   4.2570680  39.7807460  34.0088980   3.4738000  39.3743430
  34.2782080   4.9459780  39.6024760  30.6213910   5.6407260  45.1937780
  29.8073750   6.0704420  45.4563570  31.0288110   6.2525670  44.5806830
  32.6839350   3.6954950  32.0938050  32.9588190   4.6033830  31.9657270
  32.4950090   3.6317480  33.0300040  30.6789960  10.3925860  38.7206050
  31.2749030  10.0710430  38.0440470  30.9368110   9.9197680  39.5119320
  18.5852530   6.8243770  48.8696680  18.5422160   6.4536680  49.7511140
  18.7163540   7.7621340  49.0098500  22.2858560   8.3803360  44.4706400
  22.0449920   8.6477920  43.5836920  23.2261200   8.5509090  44.5257260
  33.5462720  10.3997740  45.2717040  33.0521000  10.7966610  44.5544170
  32.9376010   9.7746950  45.6654320  18.4240560   9.7706020  45.9894460
  17.8300880   9.6390720  46.7284500  18.4164400   8.9344160  45.5236560
  31.2302170  11.0421160  42.5503780  30.7705140  11.7936970  42.1761800
  30.6014630  10.3227630  42.4918580  18.0552790   7.1364400  44.9402500
  17.3286850   6.5169690  44.8728450  18.1161940   7.5305010  44.0700580
  21.6597890   9.3509400  41.7251910  22.1762910   8.7396760  41.2000170
  22.3095270   9.8538180  42.2162920  24.3993390  10.2417890  42.5520890
  24.6871200   9.9872190  41.6753900  24.9116610   9.6895250  43.1426460
  16.3382790  10.4538790  38.1499260  16.1704830   9.8209470  38.8481150
  15.4717300  10.6598190  37.7993450  17.9445490   9.1472020  35.5949400
  17.4193110   9.5280050  34.8911360  17.8690070   9.7722790  36.3159110
  24.4665750  11.1633990  49.9189090  25.3933060  10.9278260  49.9625050
  24.4516180  11.9905990  49.4375120  32.7010810  10.7059560  36.9163340
  32.8763000  10.0197300  36.2724260  32.0032380  11.2306610  36.5240010
  20.5438460  11.0954400  34.4698650  21.2757280  10.8113680  33.9222540
  20.8032130  10.8567680  35.3598030  19.7053250   7.2119130  34.4744980
  19.0762130   7.6804230  35.0230810  19.8201080   6.3668350  34.9091170
  31.0343310  10.3903850  49.7430130  31.8268630   9.8953080  49.5356090
  31.3276460  11.0693990  50.3505740  25.2921010   3.0403810  22.5055450
  24.5163110   2.5604250  22.7954020  25.9433940   2.3609460  22.3311610
  19.3086840   3.3523620  23.3831210  18.4771720   3.0972330  23.7827720
  19.9167820   3.4234390  24.1189130  29.3128440   7.4464000  21.2854580
  28.8509970   6.6751240  21.6141750  30.1253990   7.4730070  21.7907030
  19.2888100   7.3863710  23.5789230  19.5916140   6.4961450  23.3999450
  20.0331690   7.9433930  23.3511480  25.5391750   9.7322010  20.9058570
  24.9203190  10.1879510  20.3353010  26.3943530   9.8873470  20.5048270
  24.7330000   5.7161000  22.5125610  24.6638280   4.7750940  22.3514740
  25.4949860   5.8062410  23.0848180  26.4055100   4.6161250  18.2990480
  25.7872370   5.0810700  17.7353200  26.9178350   5.3088730  18.7159990
  21.2686860   4.1437120  24.9774080  20.9356240   4.7706040  25.6195150
  21.4453540   4.6699000  24.1975750  20.4805960   6.1117920  26.7923260
  21.0979960   6.7869000  26.5107710  19.6199080   6.5205900  26.7010760
  15.7738300   5.3017780  15.6730110  15.3966280   5.7904880  14.9415010
  16.0311370   5.9743060  16.3036640  31.3983550   7.5757330  24.7077900
  30.7147070   8.2456440  24.6994570  31.9377840   7.7737980  23.9422760
  28.9342290   9.4201460  23.4223080  28.9469450   9.0163750  22.5545340
  28.3817510  10.1948750  23.3184510  30.2287710   6.1417680  18.5113250
  30.1184040   5.1992010  18.6362670  30.2255960   6.5033320  19.3976010
  28.3327730   4.3231300  24.7505690  28.7496520   4.1091410  23.9159150
  29.0567550   4.5804090  25.3214310  25.7707990   1.7683000  17.8675740
  24.8437270   1.7020380  18.0964210  25.9232810   2.7063130  17.7530980
  32.2789830   2.7218520  24.8421930  31.4508460   2.7911610  24.3672060
  32.8740310   3.3072830  24.3737760  29.8005280   3.3303300  18.3710990
  29.1817700   2.9922850  17.7237290  29.7829730   2.6863060  19.0790180
  21.3764630   2.2947740  20.6495470  20.9721630   1.5824990  20.1541370
  21.4627750   1.9500980  21.5383510  21.8446330   5.9815300  22.8134680
  21.5474620   5.3760770  22.1342460  22.7946150   6.0192610  22.7024040
  29.9331940   9.5547170  26.4757780  29.4562500  10.3619360  26.2830390
  29.2493730   8.9025500  26.6283990  20.9364760   5.7196990  29.4642480
  20.0393290   5.9436960  29.7115880  20.9617630   5.8431930  28.5153880
  27.9769980   2.5690110  15.3783740  28.4163260   1.7312540  15.2321560
  28.6898400   3.2019510  15.4647880  19.7635980   2.5910310  28.0399850
  19.6243750   3.4633110  28.4087250  18.8817340   2.2483120  27.8947790
  26.0865360   7.5086180  19.3464980  26.5261270   8.2510510  18.9320370
  26.0252250   7.7512750  20.2703940  21.5616330   8.5332010  30.2485000
  21.5331760   8.9374960  29.3813430  21.3981300   7.6042370  30.0856600
  33.5131150   9.3159110  31.5449170  33.9890870   9.7942000  32.2238250
  34.1338310   9.2476600  30.8194670  15.7154630   4.3607860  23.9570760
  15.7935050   4.4956630  23.0126480  16.3296310   3.6523750  24.1498880
  16.9602260   6.0608050  20.3676940  16.5530340   6.2022640  19.5130540
  17.8515270   5.7768210  20.1648150  32.9164400   6.5071960  28.7049180
  33.0427460   6.2683840  27.7866360  32.9585780   5.6756500  29.1771260
  26.7781140  10.2099960  27.2743990  27.2925810  10.1207970  28.0766420
  25.9350220  10.5559660  27.5671900  28.7535540  10.4955300  16.7027990
  28.5936680  10.2058240  17.6009820  28.5882250   9.7195430  16.1673220
  21.2323920  10.2753830  18.4799610  21.0566400   9.3589370  18.2667410
  20.3779660  10.6341120  18.7197410  28.4561670   8.0042860  15.2625990
  27.7626830   8.0020150  14.6028270  29.1984530   7.5802180  14.8320160
  28.0211600   9.6305570  19.3374480  28.4768550   8.8494950  19.6513100
  28.3604120  10.3412390  19.8815660  15.7714150   5.4022030  26.4965220
  15.9345190   4.9327390  25.6784590  16.2366600   4.8945590  27.1614060
  17.3453130   4.7773460  28.6561030  16.9607920   4.1367130  29.2543990
  17.6565320   5.4809580  29.2255760  19.8131430   4.8719630  17.0520710
  19.0393690   4.3317250  16.8919430  20.5426060   4.3526240  16.7138470
  30.5719410   3.8684990  22.8447100  31.2918530   4.3640280  22.4543210
  30.3701230   3.1902880  22.2000970  25.9538210   3.9394050  28.7316100
  25.8875520   3.0189720  28.4773690  25.3243350   4.0369490  29.4460740
  19.8568830   4.5400010  20.6899520  20.3747500   3.7368270  20.6356410
  19.4052850   4.4779150  21.5316350  24.7438330   5.8066290  15.9626820
  25.0854030   6.5508520  15.4670140  23.9151040   6.1197410  16.3251650
  25.8854940   6.7614620  28.4819900  25.8999480   5.8295580  28.2638810
  25.1780040   6.8474380  29.1209670  32.0966150   3.4021960  27.8288480
  31.3714340   3.9950740  27.6317870  32.6241610   3.3945500  27.0301850
  32.0479260   7.7996700  17.4800640  31.4055420   7.1452320  17.7544360
  31.6609920   8.2051790  16.7041310  27.6265740   5.1282130  21.3272330
  27.9789560   4.5310260  20.6673700  26.7428070   4.8026360  21.4980580
  23.7129020   5.8879820  18.7342740  24.4000150   6.4349030  19.1150330
  22.9261440   6.4320550  18.7692350  23.0156230   2.8925850  18.3468100
  23.4719010   3.7031100  18.5728290  22.6644440   2.5748990  19.1786590
  25.3188840   8.4032190  25.5760400  25.9631060   8.6091570  26.2533820
  25.6818280   7.6420590  25.1231250  26.5920920   6.4064540  24.2937850
  27.2343150   5.7057700  24.4070020  27.1170270   7.1862980  24.1134740
  30.4376640   6.6913160  14.0176990  30.2114220   5.9743600  14.6101630
  30.0472840   6.4425600  13.1798740  28.3658540   7.2059440  27.4973910
  28.7014780   7.7926130  28.1751830  27.4458880   7.0752150  27.7271700
  16.2192670  10.7180020  14.7921450  16.5790310  11.3169360  14.1378720
  16.0785010  11.2639910  15.5656480  30.0192890   4.6085100  15.6791150
  29.7314590   5.0697790  16.4669030  30.8145060   4.1482870  15.9475370
  16.2034530   8.9834880  29.2663850  16.3125650   8.0429620  29.1259240
  15.5515090   9.2489630  28.6177580  24.1947120   7.2550770  30.6661970
  23.8743990   6.5360010  31.2107660  23.5205480   7.9305840  30.7398030
  22.2361290   8.1011220  15.6095120  22.2271390   8.8340910  14.9939630
  21.3159650   7.8542800  15.7022080  17.8367930   3.3226110  16.3541880
  17.2295880   4.0625010  16.3637180  18.3117280   3.4125470  15.5280080
  25.2220890   8.1639460  14.2720310  25.3232870   7.9603450  13.3422290
  24.3222630   7.9097740  14.4768090  23.8639000  10.6825780  18.9667980
  24.1180500  10.6447170  18.0447350  22.9151480  10.5559110  18.9596230
  19.8473220   3.2837260  14.1030450  20.6136490   3.1718620  14.6655880
  19.9247910   2.5875230  13.4507220  31.8717160   8.7726510  22.2180750
  31.9964580   9.5957680  22.6904560  32.7382720   8.5617240  21.8704900
  19.3434690  10.8657720  21.8897880  20.0797170  10.3173180  22.1606450
  19.7275610  11.7313730  21.7503870  16.2280170   6.9331290  17.7639390
  15.3019950   7.1752430  17.7544800  16.6936600   7.7605550  17.6424140
  18.3492970  10.0503790  31.0783460  19.1505700  10.3715840  31.4918860
  17.8344790   9.6899370  31.8003370  22.4537000  10.0388030  13.7123450
  23.2465610  10.3276860  13.2605240  21.9341350   9.6080200  13.0335930
  27.1857600   6.1583660  31.0258870  26.5795760   6.1815260  30.2854620
  26.8811710   5.4266700  31.5626120  28.6157970   9.8863950  29.6368280
  29.5679720   9.8021970  29.5868520  28.4686190  10.5505660  30.3102070
  31.5067170   9.2658160  15.1360190  31.2208680   8.8523300  14.3214370
  31.3086720  10.1945870  15.0160710  16.0690780   2.5377250  30.0219510
  16.5729800   1.9584530  30.5935740  15.3298200   2.8217480  30.5595880
  22.9714400   5.2591440  13.5765800  22.8665040   4.6443790  14.3027180
  22.8038620   4.7357330  12.7928810  23.1228720   3.9448240  29.5555030
  22.3574390   4.5133240  29.4709700  23.3044680   3.6524450  28.6623260
  26.2117130   4.3211470  14.1807790  25.6627230   4.7680770  14.8250530
  26.8336390   3.8160720  14.7045460  30.2652070   5.6753570  30.1130050
  31.0061540   6.0129330  29.6097510  29.5024750   5.8445630  29.5599820
  21.8792250   3.2802390  16.0773090  22.3008670   3.1142260  16.9204480
  22.0043090   2.4702620  15.5828230  24.3919890   2.3040000  13.3250190
  24.9125550   1.5889020  12.9591340  25.0388290   2.9425870  13.6250700
  28.9397730   3.7268400  28.6485260  29.3538750   3.8813480  29.4975680
  28.0048730   3.8523620  28.8111040  23.7012960   3.6788880  26.6181190
  24.1201070   4.5221610  26.4457430  22.7821590   3.8160920  26.3887970
  28.3764760   1.9642250  26.5781540  27.8499980   2.4884870  25.9746680
  28.7196100   2.5969640  27.2091270  21.5520380   9.9841890  27.7338920
  21.0141470  10.7087950  27.4147620  21.8054340   9.5072230  26.9436260
  24.4082590  11.2193100  27.9925570  24.3341290  12.1228240  28.2997940
  23.5061430  10.9005000  27.9647640  24.9567920  10.3851610  15.6151930
  25.8518710  10.7236580  15.6370690  24.9885550   9.6631020  14.9876210
  18.5964080   5.7578660  13.8438930  19.0338950   6.3008330  14.4996510
  19.0811810   4.9325610  13.8535270  15.8109880   8.5467690  21.2959190
  16.1412890   7.6788750  21.0637830  16.2400880   8.7526210  22.1264150
  20.4071800   6.8776700  18.9561160  20.1067340   6.7541670  19.8565070
  20.3009290   6.0185290  18.5476890  16.3000090   9.4138280  24.0340820
  15.8631080   9.5939080  24.8664970  16.8677770  10.1712900  23.8922540
  31.9362270   8.9155280  28.3218130  31.3364260   8.9747840  27.5782050
  32.0656170   7.9760260  28.4514980  33.1763720   6.6573100  13.6587840
  32.3456680   6.7249750  14.1295070  33.3535550   7.5477220  13.3554700
  32.6320180   3.4020580  16.1622040  33.3939090   3.9717230  16.2681730
  32.6474550   2.8347780  16.9330350  16.1324520   1.9258510  20.3929700
  15.4773360   1.6570150  19.7489400  16.9702470   1.8162990  19.9431680
  33.6380150   4.2570680  21.0063970  34.0088980   3.4738000  20.5999940
  34.2782080   4.9459780  20.8281270  30.6213910   5.6407260  26.4194290
  29.8073750   6.0704420  26.6820080  31.0288110   6.2525670  25.8063340
  32.6839350   3.6954950  13.3194560  32.9588190   4.6033830  13.1913780
  32.4950090   3.6317480  14.2556550  30.6789960  10.3925860  19.9462560
  31.2749030  10.0710430  19.2696980  30.9368110   9.9197680  20.7375830
  18.5852530   6.8243770  30.0953190  18.5422160   6.4536680  30.9767650
  18.7163540   7.7621340  30.2355010  22.2858560   8.3803360  25.6962910
  22.0449920   8.6477920  24.8093430  23.2261200   8.5509090  25.7513770
  33.5462720  10.3997740  26.4973550  33.0521000  10.7966610  25.7800680
  32.9376010   9.7746950  26.8910830  18.4240560   9.7706020  27.2150970
  17.8300880   9.6390720  27.9541010  18.4164400   8.9344160  26.7493070
  31.2302170  11.0421160  23.7760290  30.7705140  11.7936970  23.4018310
  30.6014630  10.3227630  23.7175090  18.0552790   7.1364400  26.1659010
  17.3286850   6.5169690  26.0984960  18.1161940   7.5305010  25.2957090
  21.6597890   9.3509400  22.9508420  22.1762910   8.7396760  22.4256680
  22.3095270   9.8538180  23.4419430  24.3993390  10.2417890  23.7777400
  24.6871200   9.9872190  22.9010410  24.9116610   9.6895250  24.3682970
  16.3382790  10.4538790  19.3755770  16.1704830   9.8209470  20.0737660
  15.4717300  10.6598190  19.0249960  17.9445490   9.1472020  16.8205910
  17.4193110   9.5280050  16.1167870  17.8690070   9.7722790  17.5415620
  24.4665750  11.1633990  31.1445600  25.3933060  10.9278260  31.1881560
  24.4516180  11.9905990  30.6631630  32.7010810  10.7059560  18.1419850
  32.8763000  10.0197300  17.4980770  32.0032380  11.2306610  17.7496520
  20.5438460  11.0954400  15.6955160  21.2757280  10.8113680  15.1479050
  20.8032130  10.8567680  16.5854540  19.7053250   7.2119130  15.7001490
  19.0762130   7.6804230  16.2487320  19.8201080   6.3668350  16.1347680
  31.0343310  10.3903850  30.9686640  31.8268630   9.8953080  30.7612600
  31.3276460  11.0693990  31.5762250  25.2921010   3.0403810   3.7311960
  24.5163110   2.5604250   4.0210530  25.9433940   2.3609460   3.5568120
  19.3086840   3.3523620   4.6087720  18.4771720   3.0972330   5.0084230
  19.9167820   3.4234390   5.3445640  29.3128440   7.4464000   2.5111090
  28.8509970   6.6751240   2.8398260  30.1253990   7.4730070   3.0163540
  19.2888100   7.3863710   4.8045740  19.5916140   6.4961450   4.6255960
  20.0331690   7.9433930   4.5767990  24.7330000   5.7161000   3.7382120
  24.6638280   4.7750940   3.5771250  25.4949860   5.8062410   4.3104690
  21.2686860   4.1437120   6.2030590  20.9356240   4.7706040   6.8451660
  21.4453540   4.6699000   5.4232260  20.4805960   6.1117920   8.0179770
  21.0979960   6.7869000   7.7364220  19.6199080   6.5205900   7.9267270
  31.3983550   7.5757330   5.9334410  30.7147070   8.2456440   5.9251080
  31.9377840   7.7737980   5.1679270  28.9342290   9.4201460   4.6479590
  28.9469450   9.0163750   3.7801850  28.3817510  10.1948750   4.5441020
  28.3327730   4.3231300   5.9762200  28.7496520   4.1091410   5.1415660
  29.0567550   4.5804090   6.5470820  32.2789830   2.7218520   6.0678440
  31.4508460   2.7911610   5.5928570  32.8740310   3.3072830   5.5994270
  21.8446330   5.9815300   4.0391190  21.5474620   5.3760770   3.3598970
  22.7946150   6.0192610   3.9280550  29.9331940   9.5547170   7.7014290
  29.4562500  10.3619360   7.5086900  29.2493730   8.9025500   7.8540500
  20.9364760   5.7196990  10.6898990  20.0393290   5.9436960  10.9372390
  20.9617630   5.8431930   9.7410390  19.7635980   2.5910310   9.2656360
  19.6243750   3.4633110   9.6343760  18.8817340   2.2483120   9.1204300
  21.5616330   8.5332010  11.4741510  21.5331760   8.9374960  10.6069940
  21.3981300   7.6042370  11.3113110  33.5131150   9.3159110  12.7705680
  33.9890870   9.7942000  13.4494760  34.1338310   9.2476600  12.0451180
  15.7154630   4.3607860   5.1827270  15.7935050   4.4956630   4.2382990
  16.3296310   3.6523750   5.3755390  32.9164400   6.5071960   9.9305690
  33.0427460   6.2683840   9.0122870  32.9585780   5.6756500  10.4027770
  26.7781140  10.2099960   8.5000500  27.2925810  10.1207970   9.3022930
  25.9350220  10.5559660   8.7928410  15.7714150   5.4022030   7.7221730
  15.9345190   4.9327390   6.9041100  16.2366600   4.8945590   8.3870570
  17.3453130   4.7773460   9.8817540  16.9607920   4.1367130  10.4800500
  17.6565320   5.4809580  10.4512270  30.5719410   3.8684990   4.0703610
  31.2918530   4.3640280   3.6799720  30.3701230   3.1902880   3.4257480
  25.9538210   3.9394050   9.9572610  25.8875520   3.0189720   9.7030200
  25.3243350   4.0369490  10.6717250  19.8568830   4.5400010   1.9156030
  20.3747500   3.7368270   1.8612920  19.4052850   4.4779150   2.7572860
  25.8854940   6.7614620   9.7076410  25.8999480   5.8295580   9.4895320
  25.1780040   6.8474380  10.3466180  32.0966150   3.4021960   9.0544990
  31.3714340   3.9950740   8.8574380  32.6241610   3.3945500   8.2558360
  27.6265740   5.1282130   2.5528840  27.9789560   4.5310260   1.8930210
  26.7428070   4.8026360   2.7237090  25.3188840   8.4032190   6.8016910
  25.9631060   8.6091570   7.4790330  25.6818280   7.6420590   6.3487760
  26.5920920   6.4064540   5.5194360  27.2343150   5.7057700   5.6326530
  27.1170270   7.1862980   5.3391250  28.3658540   7.2059440   8.7230420
  28.7014780   7.7926130   9.4008340  27.4458880   7.0752150   8.9528210
  16.2034530   8.9834880  10.4920360  16.3125650   8.0429620  10.3515750
  15.5515090   9.2489630   9.8434090  24.1947120   7.2550770  11.8918480
  23.8743990   6.5360010  12.4364170  23.5205480   7.9305840  11.9654540
  31.8717160   8.7726510   3.4437260  31.9964580   9.5957680   3.9161070
  32.7382720   8.5617240   3.0961410  19.3434690  10.8657720   3.1154390
  20.0797170  10.3173180   3.3862960  19.7275610  11.7313730   2.9760380
  18.3492970  10.0503790  12.3039970  19.1505700  10.3715840  12.7175370
  17.8344790   9.6899370  13.0259880  27.1857600   6.1583660  12.2515380
  26.5795760   6.1815260  11.5111130  26.8811710   5.4266700  12.7882630
  28.6157970   9.8863950  10.8624790  29.5679720   9.8021970  10.8125030
  28.4686190  10.5505660  11.5358580  16.0690780   2.5377250  11.2476020
  16.5729800   1.9584530  11.8192250  15.3298200   2.8217480  11.7852390
  23.1228720   3.9448240  10.7811540  22.3574390   4.5133240  10.6966210
  23.3044680   3.6524450   9.8879770  30.2652070   5.6753570  11.3386560
  31.0061540   6.0129330  10.8354020  29.5024750   5.8445630  10.7856330
  28.9397730   3.7268400   9.8741770  29.3538750   3.8813480  10.7232190
  28.0048730   3.8523620  10.0367550  23.7012960   3.6788880   7.8437700
  24.1201070   4.5221610   7.6713940  22.7821590   3.8160920   7.6144480
  28.3764760   1.9642250   7.8038050  27.8499980   2.4884870   7.2003190
  28.7196100   2.5969640   8.4347780  21.5520380   9.9841890   8.9595430
  21.0141470  10.7087950   8.6404130  21.8054340   9.5072230   8.1692770
  24.4082590  11.2193100   9.2182080  24.3341290  12.1228240   9.5254450
  23.5061430  10.9005000   9.1904150  15.8109880   8.5467690   2.5215700
  16.1412890   7.6788750   2.2894340  16.2400880   8.7526210   3.3520660
  16.3000090   9.4138280   5.2597330  15.8631080   9.5939080   6.0921480
  16.8677770  10.1712900   5.1179050  31.9362270   8.9155280   9.5474640
  31.3364260   8.9747840   8.8038560  32.0656170   7.9760260   9.6771490
  33.6380150   4.2570680   2.2320480  34.0088980   3.4738000   1.8256450
  34.2782080   4.9459780   2.0537780  30.6213910   5.6407260   7.6450800
  29.8073750   6.0704420   7.9076590  31.0288110   6.2525670   7.0319850
  18.5852530   6.8243770  11.3209700  18.5422160   6.4536680  12.2024160
  18.7163540   7.7621340  11.4611520  22.2858560   8.3803360   6.9219420
  22.0449920   8.6477920   6.0349940  23.2261200   8.5509090   6.9770280
  33.5462720  10.3997740   7.7230060  33.0521000  10.7966610   7.0057190
  32.9376010   9.7746950   8.1167340  18.4240560   9.7706020   8.4407480
  17.8300880   9.6390720   9.1797520  18.4164400   8.9344160   7.9749580
  31.2302170  11.0421160   5.0016800  30.7705140  11.7936970   4.6274820
  30.6014630  10.3227630   4.9431600  18.0552790   7.1364400   7.3915520
  17.3286850   6.5169690   7.3241470  18.1161940   7.5305010   6.5213600
  21.6597890   9.3509400   4.1764930  22.1762910   8.7396760   3.6513190
  22.3095270   9.8538180   4.6675940  24.3993390  10.2417890   5.0033910
  24.6871200   9.9872190   4.1266920  24.9116610   9.6895250   5.5939480
  24.4665750  11.1633990  12.3702110  25.3933060  10.9278260  12.4138070
  24.4516180  11.9905990  11.8888140  31.0343310  10.3903850  12.1943150
  31.8268630   9.8953080  11.9869110  31.3276460  11.0693990  12.8018760
   8.3859480  57.5855260  58.1733160   8.3053530  56.6709870  57.9024870
   7.9723900  58.0822330  57.4672870   6.9891680  54.8461850  60.2881520
   7.3656500  53.9733730  60.1755190   6.8911190  55.1820550  59.3971960
  10.7715800  52.3412290  57.2209860  11.5925420  51.8508860  57.2635340
  10.8049880  52.9309950  57.9741700   2.9604420  56.1873850  60.0824140
   3.4682640  56.6854820  60.7229160   3.4917660  55.4109050  59.9063500
  11.0077280  54.2812670  59.9937400  10.3032850  54.5697560  60.5740510
  11.3689440  55.0912780  59.6336960  14.0764200  53.7267460  60.3846610
  13.1289110  53.7606440  60.5162040  14.4014190  54.5406410  60.7695970
   4.6083740  50.0264640  58.6802600   4.9158720  49.4711530  57.9638100
   3.6784440  50.1609100  58.4975590   6.9833580  54.3630470  52.4129880
   6.0437250  54.5244430  52.4982340   7.3016840  55.0816150  51.8665870
   2.6021140  58.6178210  58.1982450   2.1978140  57.9055460  57.7028350
   2.6884260  58.2731450  59.0870490  12.7843630  50.1463390  51.2411760
  12.4716290  50.2390220  52.1410830  13.5456100  50.7244420  51.1909190
   4.8848250  50.4768960  53.9618600   4.2602430  50.4728830  54.6871910
   4.7978370  49.6099920  53.5654570   3.8065330  51.4005590  60.9402370
   4.1037660  52.3068420  60.8594390   4.3550890  50.9124370  60.3261940
   8.7901410  55.9855200  55.4084670   8.1910300  56.7091000  55.2248290
   9.3381020  55.9231980  54.6261120   7.3966280  54.6218740  57.4387950
   7.7895850  54.9390940  56.6256640   7.7583130  53.7430620  57.5532470
   4.4198810  53.8878690  59.9391220   4.4234870  53.4468640  59.0895760
   5.3149930  54.2096020  60.0463040   4.4818960  54.8890770  52.9297980
   4.6031780  54.8477250  53.8783800   4.0967470  55.7514920  52.7744710
   3.4940460  57.1991910  52.3281280   2.9257360  56.7510160  51.7017190
   4.2029460  57.5584690  51.7946430   7.2585860  51.5853420  54.5363470
   6.4450470  51.0866590  54.4608780   7.0647810  52.4251670  54.1199820
   9.9734250  55.9573070  52.8325630  10.8613870  56.2690300  52.6576970
   9.9439340  55.0845320  52.4406210  12.2448520  57.2684910  52.3005490
  12.1612240  57.6999130  51.4501930  12.9642710  57.7283260  52.7332310
  12.0019260  52.7664340  54.3873310  11.3732420  52.8710010  53.6731540
  11.5071180  52.9861120  55.1767190   3.9703290  55.0450290  55.8031190
   3.2619440  55.5136630  56.2444800   4.2547770  54.3872300  56.4376380
   8.0018720  51.7700950  57.2426980   7.8786500  51.7887080  56.2936490
   8.9503280  51.8179890  57.3625380   2.1738310  53.3535370  53.1781900
   3.0228840  53.7905520  53.1122090   1.8069580  53.6655630  54.0053960
  11.0948090  57.9248130  58.0913470  10.1538230  57.9398360  58.2661160
  11.4092160  57.1384090  58.5373770   2.0007660  55.6766090  50.5718230
   1.7996720  54.8133450  50.9331570   1.8299710  55.5899450  49.6339830
   9.4795970  50.4874320  53.1005110   9.7598260  49.6442220  53.4564530
   8.7061700  50.7197430  53.6143860   4.0175390  51.7201330  51.5452310
   3.6697390  51.0425320  50.9654760   4.2188160  51.2590840  52.3595700
  10.3071470  53.0430270  52.1635170  10.7256350  52.8561250  51.3231830
  10.0007530  52.1909320  52.4738100  13.8061200  57.9554410  55.8610970
  13.4304800  57.1882340  55.4292260  13.0764320  58.3377110  56.3485900
  13.0812160  56.1811900  59.1618210  13.6049640  55.6874550  58.5308380
  13.6671580  56.3162260  59.9065780  12.5712130  55.4385250  55.1010620
  13.0671250  55.2056120  55.8859500  12.3728200  54.5997090  54.6848260
  13.9999290  54.0746200  57.6348300  13.8898570  53.9202240  58.5730570
  14.7606880  53.5467140  57.3923710  14.8889560  51.9054120  50.8754440
  15.8138870  51.7735300  50.6672730  14.8665350  51.9846940  51.8290890
  14.9628050  52.6764780  53.5011150  14.1679550  52.6109900  54.0304060
  15.1671330  53.6115420  53.4896500  11.3947980  51.0061660  59.9509980
  11.8356070  50.9506760  59.1031580  11.1255570  51.9219670  60.0220160
  13.2586550  50.6376900  57.9618800  13.1974950  49.6938120  57.8149820
  14.0378580  50.7456990  58.5072260   4.7281130  52.7225310  57.4176920
   3.9155640  52.3482200  57.0772800   5.2322770  51.9670390  57.7198110
   9.2306110  49.3867760  58.6559990   9.8335480  49.9587970  59.1308510
   8.4899100  49.9507200  58.4333890  12.3740710  49.7889320  53.9300270
  12.5691340  50.6872770  54.1967700  11.5870580  49.5576400  54.4233220
   2.7530310  50.8725230  56.0221970   2.1233050  50.1712540  56.1892100
   2.2135450  51.6329360  55.8055130   8.3859480  57.5855260  39.3989670
   8.3053530  56.6709870  39.1281380   7.9723900  58.0822330  38.6929380
   6.9891680  54.8461850  41.5138030   7.3656500  53.9733730  41.4011700
   6.8911190  55.1820550  40.6228470  10.7715800  52.3412290  38.4466370
  11.5925420  51.8508860  38.4891850  10.8049880  52.9309950  39.1998210
   2.9604420  56.1873850  41.3080650   3.4682640  56.6854820  41.9485670
   3.4917660  55.4109050  41.1320010  15.0615350  54.3579040  45.0110000
  14.3567520  54.7460750  44.4925110  15.3273270  55.0529330  45.6130930
  11.0077280  54.2812670  41.2193910  10.3032850  54.5697560  41.7997020
  11.3689440  55.0912780  40.8593470  14.0764200  53.7267460  41.6103120
  13.1289110  53.7606440  41.7418550  14.4014190  54.5406410  41.9952480
   4.6083740  50.0264640  39.9059110   4.9158720  49.4711530  39.1894610
   3.6784440  50.1609100  39.7232100   6.9833580  54.3630470  33.6386390
   6.0437250  54.5244430  33.7238850   7.3016840  55.0816150  33.0922380
  10.4688350  55.8318310  44.5620290  10.0559530  56.6572020  44.8160280
   9.7364300  55.2463350  44.3696650   2.6021140  58.6178210  39.4238960
   2.1978140  57.9055460  38.9284860   2.6884260  58.2731450  40.3127000
  12.7843630  50.1463390  32.4668270  12.4716290  50.2390220  33.3667340
  13.5456100  50.7244420  32.4165700  13.9944920  54.8834890  48.4442410
  13.3789190  55.3914560  47.9157870  13.6741340  53.9833220  48.3868350
   6.0559240  53.7226780  45.9104600   5.5938610  53.9309800  46.7224540
   5.6537350  52.9086130  45.6075270  11.0563750  54.9435730  47.0401260
  10.2057340  54.6441480  47.3610330  10.8965540  55.1877740  46.1285080
   8.1513460  56.4437480  49.1400050   8.4766870  55.6101230  48.8002280
   8.9393790  56.9666000  49.2878380   4.8848250  50.4768960  35.1875110
   4.2602430  50.4728830  35.9128420   4.7978370  49.6099920  34.7911080
   3.8065330  51.4005590  42.1658880   4.1037660  52.3068420  42.0850900
   4.3550890  50.9124370  41.5518450   8.7901410  55.9855200  36.6341180
   8.1910300  56.7091000  36.4504800   9.3381020  55.9231980  35.8517630
   4.0002860  56.8777410  48.7010800   3.9046460  55.9372140  48.5511200
   4.8434840  57.0992480  48.3058870   7.3966280  54.6218740  38.6644460
   7.7895850  54.9390940  37.8513150   7.7583130  53.7430620  38.7788980
   5.7058450  53.3726050  49.9241320   5.0156770  53.1798250  50.5587410
   6.4490750  53.6560690  50.4565620   7.9821420  57.2124490  42.7595240
   7.2502540  57.7211300  43.1085340   7.5845760  56.3954470  42.4584020
   4.4198810  53.8878690  41.1647730   4.4234870  53.4468640  40.3152270
   5.3149930  54.2096020  41.2719550   4.4818960  54.8890770  34.1554490
   4.6031780  54.8477250  35.1040310   4.0967470  55.7514920  34.0001220
   8.4447330  52.6658170  42.1718180   8.4620070  53.1166820  43.0160030
   8.1962910  51.7663810  42.3851620   3.4940460  57.1991910  33.5537790
   2.9257360  56.7510160  32.9273700   4.2029460  57.5584690  33.0202940
  11.8718080  50.0790350  48.0104560  12.1963850  49.3480010  48.5362540
  11.9074590  49.7603990  47.1085550   4.7206780  57.9480470  42.9113140
   5.0876910  57.4739040  43.6574480   4.5311840  58.8222040  43.2521480
   2.5106150  56.9889110  45.2297350   2.2063220  57.8681090  45.4547710
   3.4652610  57.0488900  45.2654790   7.2585860  51.5853420  35.7619980
   6.4450470  51.0866590  35.6865290   7.0647810  52.4251670  35.3456330
   9.9734250  55.9573070  34.0582140  10.8613870  56.2690300  33.8833480
   9.9439340  55.0845320  33.6662720   1.7683000  58.2876090  49.2608260
   1.4683140  58.4333270  48.3636080   2.5394240  57.7281380  49.1681650
  12.2448520  57.2684910  33.5262000  12.1612240  57.6999130  32.6758440
  12.9642710  57.7283260  33.9588820   8.6357230  53.8107400  44.8042260
   9.0038050  52.9902610  45.1321830   7.7755430  53.8709290  45.2197910
  12.0019260  52.7664340  35.6129820  11.3732420  52.8710010  34.8988050
  11.5071180  52.9861120  36.4023700   3.9703290  55.0450290  37.0287700
   3.2619440  55.5136630  37.4701310   4.2547770  54.3872300  37.6632890
   5.5959220  56.4646990  45.0280230   6.0944470  56.9392810  45.6932080
   5.7382170  55.5410510  45.2350260   8.0018720  51.7700950  38.4683490
   7.8786500  51.7887080  37.5193000   8.9503280  51.8179890  38.5881890
   2.1738310  53.3535370  34.4038410   3.0228840  53.7905520  34.3378600
   1.8069580  53.6655630  35.2310470  12.8026080  52.6814950  45.8708620
  12.2999680  53.4220350  46.2102430  13.6182740  53.0698950  45.5545410
  11.0948090  57.9248130  39.3169980  10.1538230  57.9398360  39.4917670
  11.4092160  57.1384090  39.7630280  10.6376410  57.3895030  49.4267900
  11.2197180  56.6347350  49.3388380  10.8138180  57.9202470  48.6499380
   4.5209920  51.1065020  44.7712240   4.0727220  51.1289280  43.9257790
   3.8875120  50.7084040  45.3682540   7.2633370  57.7335530  46.7762520
   7.3829580  57.1376670  47.5157360   8.1227370  57.7705220  46.3563820
   2.0007660  55.6766090  31.7974740   1.7996720  54.8133450  32.1588080
   1.8299710  55.5899450  30.8596340   4.0302140  54.2756880  48.0338340
   4.6201830  53.9672730  48.7216160   3.2122380  53.8036630  48.1898240
   8.8495570  53.8922690  48.2671360   8.1611090  53.2304230  48.2021350
   9.5701590  53.4460960  48.7119820   9.4795970  50.4874320  34.3261620
   9.7598260  49.6442220  34.6821040   8.7061700  50.7197430  34.8400370
   4.0175390  51.7201330  32.7708820   3.6697390  51.0425320  32.1911270
   4.2188160  51.2590840  33.5852210  10.3071470  53.0430270  33.3891680
  10.7256350  52.8561250  32.5488340  10.0007530  52.1909320  33.6994610
  13.8061200  57.9554410  37.0867480  13.4304800  57.1882340  36.6548770
  13.0764320  58.3377110  37.5742410  13.1960820  57.1025930  46.7207000
  12.9646910  56.8738680  45.8204950  13.4565370  58.0225480  46.6751890
  11.6348890  52.3282360  49.4986700  12.5119070  52.3365760  49.8820700
  11.6469730  51.5913200  48.8879050  13.0812160  56.1811900  40.3874720
  13.6049640  55.6874550  39.7564890  13.6671580  56.3162260  41.1322290
  13.2601880  56.2651770  43.9094270  12.3104590  56.2315310  44.0239260
  13.4414890  57.1751880  43.6744040  12.5712130  55.4385250  36.3267130
  13.0671250  55.2056120  37.1116010  12.3728200  54.5997090  35.9104770
  13.9999290  54.0746200  38.8604810  13.8898570  53.9202240  39.7987080
  14.7606880  53.5467140  38.6180220  12.3465010  50.0140330  45.3187810
  12.9837230  50.6274470  45.6847000  12.4939900  50.0500990  44.3737040
  14.8889560  51.9054120  32.1010950  15.8138870  51.7735300  31.8929240
  14.8665350  51.9846940  33.0547400  14.9628050  52.6764780  34.7267660
  14.1679550  52.6109900  35.2560570  15.1671330  53.6115420  34.7153010
   5.7169490  51.1666520  48.2262910   5.6558380  51.7588350  48.9758320
   6.6569870  51.0592480  48.0813170   8.3544050  50.8236580  47.8655200
   8.9684460  51.1415870  47.2036280   8.8993610  50.3385170  48.4851060
   9.0952090  49.3868720  44.1924490   8.2211930  49.7203830  43.9897420
   8.9862840  48.9141900  45.0176360  10.0024070  51.5939590  45.5766210
   9.6737430  50.7791350  45.1967940  10.9506370  51.5509400  45.4531900
   6.8426910  50.3038560  43.1317400   6.0598700  50.7784060  43.4114160
   6.5489840  49.3993390  43.0230580  11.3947980  51.0061660  41.1766490
  11.8356070  50.9506760  40.3288090  11.1255570  51.9219670  41.2476670
  13.2586550  50.6376900  39.1875310  13.1974950  49.6938120  39.0406330
  14.0378580  50.7456990  39.7328770   4.7281130  52.7225310  38.6433430
   3.9155640  52.3482200  38.3029310   5.2322770  51.9670390  38.9454620
   9.2306110  49.3867760  39.8816500   9.8335480  49.9587970  40.3565020
   8.4899100  49.9507200  39.6590400  12.3740710  49.7889320  35.1556780
  12.5691340  50.6872770  35.4224210  11.5870580  49.5576400  35.6489730
   2.7530310  50.8725230  37.2478480   2.1233050  50.1712540  37.4148610
   2.2135450  51.6329360  37.0311640   2.8785870  50.1509210  49.6830970
   2.5970140  50.6542810  48.9191790   3.2605570  49.3530960  49.3173100
   9.4801330  49.5662790  50.2611440   9.3666780  49.8857400  51.1562960
  10.2971070  49.9675300  49.9648720   8.3859480  57.5855260  20.6246180
   8.3053530  56.6709870  20.3537890   7.9723900  58.0822330  19.9185890
   6.9891680  54.8461850  22.7394540   7.3656500  53.9733730  22.6268210
   6.8911190  55.1820550  21.8484980  10.7715800  52.3412290  19.6722880
  11.5925420  51.8508860  19.7148360  10.8049880  52.9309950  20.4254720
   2.9604420  56.1873850  22.5337160   3.4682640  56.6854820  23.1742180
   3.4917660  55.4109050  22.3576520  15.0615350  54.3579040  26.2366510
  14.3567520  54.7460750  25.7181620  15.3273270  55.0529330  26.8387440
  11.0077280  54.2812670  22.4450420  10.3032850  54.5697560  23.0253530
  11.3689440  55.0912780  22.0849980  14.0764200  53.7267460  22.8359630
  13.1289110  53.7606440  22.9675060  14.4014190  54.5406410  23.2208990
   4.6083740  50.0264640  21.1315620   4.9158720  49.4711530  20.4151120
   3.6784440  50.1609100  20.9488610   6.9833580  54.3630470  14.8642900
   6.0437250  54.5244430  14.9495360   7.3016840  55.0816150  14.3178890
  10.4688350  55.8318310  25.7876800  10.0559530  56.6572020  26.0416790
   9.7364300  55.2463350  25.5953160   2.6021140  58.6178210  20.6495470
   2.1978140  57.9055460  20.1541370   2.6884260  58.2731450  21.5383510
  12.7843630  50.1463390  13.6924780  12.4716290  50.2390220  14.5923850
  13.5456100  50.7244420  13.6422210  13.9944920  54.8834890  29.6698920
  13.3789190  55.3914560  29.1414380  13.6741340  53.9833220  29.6124860
   6.0559240  53.7226780  27.1361110   5.5938610  53.9309800  27.9481050
   5.6537350  52.9086130  26.8331780  11.0563750  54.9435730  28.2657770
  10.2057340  54.6441480  28.5866840  10.8965540  55.1877740  27.3541590
   8.1513460  56.4437480  30.3656560   8.4766870  55.6101230  30.0258790
   8.9393790  56.9666000  30.5134890   4.8848250  50.4768960  16.4131620
   4.2602430  50.4728830  17.1384930   4.7978370  49.6099920  16.0167590
   3.8065330  51.4005590  23.3915390   4.1037660  52.3068420  23.3107410
   4.3550890  50.9124370  22.7774960   8.7901410  55.9855200  17.8597690
   8.1910300  56.7091000  17.6761310   9.3381020  55.9231980  17.0774140
   4.0002860  56.8777410  29.9267310   3.9046460  55.9372140  29.7767710
   4.8434840  57.0992480  29.5315380   7.3966280  54.6218740  19.8900970
   7.7895850  54.9390940  19.0769660   7.7583130  53.7430620  20.0045490
   5.7058450  53.3726050  31.1497830   5.0156770  53.1798250  31.7843920
   6.4490750  53.6560690  31.6822130   7.9821420  57.2124490  23.9851750
   7.2502540  57.7211300  24.3341850   7.5845760  56.3954470  23.6840530
   4.4198810  53.8878690  22.3904240   4.4234870  53.4468640  21.5408780
   5.3149930  54.2096020  22.4976060   4.4818960  54.8890770  15.3811000
   4.6031780  54.8477250  16.3296820   4.0967470  55.7514920  15.2257730
   8.4447330  52.6658170  23.3974690   8.4620070  53.1166820  24.2416540
   8.1962910  51.7663810  23.6108130   3.4940460  57.1991910  14.7794300
   2.9257360  56.7510160  14.1530210   4.2029460  57.5584690  14.2459450
  11.8718080  50.0790350  29.2361070  12.1963850  49.3480010  29.7619050
  11.9074590  49.7603990  28.3342060   4.7206780  57.9480470  24.1369650
   5.0876910  57.4739040  24.8830990   4.5311840  58.8222040  24.4777990
   2.5106150  56.9889110  26.4553860   2.2063220  57.8681090  26.6804220
   3.4652610  57.0488900  26.4911300   7.2585860  51.5853420  16.9876490
   6.4450470  51.0866590  16.9121800   7.0647810  52.4251670  16.5712840
   9.9734250  55.9573070  15.2838650  10.8613870  56.2690300  15.1089990
   9.9439340  55.0845320  14.8919230   1.7683000  58.2876090  30.4864770
   1.4683140  58.4333270  29.5892590   2.5394240  57.7281380  30.3938160
  12.2448520  57.2684910  14.7518510  12.1612240  57.6999130  13.9014950
  12.9642710  57.7283260  15.1845330   8.6357230  53.8107400  26.0298770
   9.0038050  52.9902610  26.3578340   7.7755430  53.8709290  26.4454420
  12.0019260  52.7664340  16.8386330  11.3732420  52.8710010  16.1244560
  11.5071180  52.9861120  17.6280210   3.9703290  55.0450290  18.2544210
   3.2619440  55.5136630  18.6957820   4.2547770  54.3872300  18.8889400
   5.5959220  56.4646990  26.2536740   6.0944470  56.9392810  26.9188590
   5.7382170  55.5410510  26.4606770   8.0018720  51.7700950  19.6940000
   7.8786500  51.7887080  18.7449510   8.9503280  51.8179890  19.8138400
   2.1738310  53.3535370  15.6294920   3.0228840  53.7905520  15.5635110
   1.8069580  53.6655630  16.4566980  12.8026080  52.6814950  27.0965130
  12.2999680  53.4220350  27.4358940  13.6182740  53.0698950  26.7801920
  11.0948090  57.9248130  20.5426490  10.1538230  57.9398360  20.7174180
  11.4092160  57.1384090  20.9886790  10.6376410  57.3895030  30.6524410
  11.2197180  56.6347350  30.5644890  10.8138180  57.9202470  29.8755890
   4.5209920  51.1065020  25.9968750   4.0727220  51.1289280  25.1514300
   3.8875120  50.7084040  26.5939050   7.2633370  57.7335530  28.0019030
   7.3829580  57.1376670  28.7413870   8.1227370  57.7705220  27.5820330
   2.0007660  55.6766090  13.0231250   1.7996720  54.8133450  13.3844590
   1.8299710  55.5899450  12.0852850   4.0302140  54.2756880  29.2594850
   4.6201830  53.9672730  29.9472670   3.2122380  53.8036630  29.4154750
   8.8495570  53.8922690  29.4927870   8.1611090  53.2304230  29.4277860
   9.5701590  53.4460960  29.9376330   9.4795970  50.4874320  15.5518130
   9.7598260  49.6442220  15.9077550   8.7061700  50.7197430  16.0656880
   4.0175390  51.7201330  13.9965330   3.6697390  51.0425320  13.4167780
   4.2188160  51.2590840  14.8108720  10.3071470  53.0430270  14.6148190
  10.7256350  52.8561250  13.7744850  10.0007530  52.1909320  14.9251120
  13.8061200  57.9554410  18.3123990  13.4304800  57.1882340  17.8805280
  13.0764320  58.3377110  18.7998920  13.1960820  57.1025930  27.9463510
  12.9646910  56.8738680  27.0461460  13.4565370  58.0225480  27.9008400
  11.6348890  52.3282360  30.7243210  12.5119070  52.3365760  31.1077210
  11.6469730  51.5913200  30.1135560  13.0812160  56.1811900  21.6131230
  13.6049640  55.6874550  20.9821400  13.6671580  56.3162260  22.3578800
  13.2601880  56.2651770  25.1350780  12.3104590  56.2315310  25.2495770
  13.4414890  57.1751880  24.9000550  12.5712130  55.4385250  17.5523640
  13.0671250  55.2056120  18.3372520  12.3728200  54.5997090  17.1361280
  13.9999290  54.0746200  20.0861320  13.8898570  53.9202240  21.0243590
  14.7606880  53.5467140  19.8436730  12.3465010  50.0140330  26.5444320
  12.9837230  50.6274470  26.9103510  12.4939900  50.0500990  25.5993550
  14.8889560  51.9054120  13.3267460  15.8138870  51.7735300  13.1185750
  14.8665350  51.9846940  14.2803910  14.9628050  52.6764780  15.9524170
  14.1679550  52.6109900  16.4817080  15.1671330  53.6115420  15.9409520
   5.7169490  51.1666520  29.4519420   5.6558380  51.7588350  30.2014830
   6.6569870  51.0592480  29.3069680   8.3544050  50.8236580  29.0911710
   8.9684460  51.1415870  28.4292790   8.8993610  50.3385170  29.7107570
   9.0952090  49.3868720  25.4181000   8.2211930  49.7203830  25.2153930
   8.9862840  48.9141900  26.2432870  10.0024070  51.5939590  26.8022720
   9.6737430  50.7791350  26.4224450  10.9506370  51.5509400  26.6788410
   6.8426910  50.3038560  24.3573910   6.0598700  50.7784060  24.6370670
   6.5489840  49.3993390  24.2487090  11.3947980  51.0061660  22.4023000
  11.8356070  50.9506760  21.5544600  11.1255570  51.9219670  22.4733180
  13.2586550  50.6376900  20.4131820  13.1974950  49.6938120  20.2662840
  14.0378580  50.7456990  20.9585280   4.7281130  52.7225310  19.8689940
   3.9155640  52.3482200  19.5285820   5.2322770  51.9670390  20.1711130
   9.2306110  49.3867760  21.1073010   9.8335480  49.9587970  21.5821530
   8.4899100  49.9507200  20.8846910  12.3740710  49.7889320  16.3813290
  12.5691340  50.6872770  16.6480720  11.5870580  49.5576400  16.8746240
   2.7530310  50.8725230  18.4734990   2.1233050  50.1712540  18.6405120
   2.2135450  51.6329360  18.2568150   2.8785870  50.1509210  30.9087480
   2.5970140  50.6542810  30.1448300   3.2605570  49.3530960  30.5429610
   9.4801330  49.5662790  31.4867950   9.3666780  49.8857400  32.3819470
  10.2971070  49.9675300  31.1905230   6.9891680  54.8461850   3.9651050
   7.3656500  53.9733730   3.8524720   6.8911190  55.1820550   3.0741490
   2.9604420  56.1873850   3.7593670   3.4682640  56.6854820   4.3998690
   3.4917660  55.4109050   3.5833030  15.0615350  54.3579040   7.4623020
  14.3567520  54.7460750   6.9438130  15.3273270  55.0529330   8.0643950
  11.0077280  54.2812670   3.6706930  10.3032850  54.5697560   4.2510040
  11.3689440  55.0912780   3.3106490  14.0764200  53.7267460   4.0616140
  13.1289110  53.7606440   4.1931570  14.4014190  54.5406410   4.4465500
  10.4688350  55.8318310   7.0133310  10.0559530  56.6572020   7.2673300
   9.7364300  55.2463350   6.8209670  13.9944920  54.8834890  10.8955430
  13.3789190  55.3914560  10.3670890  13.6741340  53.9833220  10.8381370
   6.0559240  53.7226780   8.3617620   5.5938610  53.9309800   9.1737560
   5.6537350  52.9086130   8.0588290  11.0563750  54.9435730   9.4914280
  10.2057340  54.6441480   9.8123350  10.8965540  55.1877740   8.5798100
   8.1513460  56.4437480  11.5913070   8.4766870  55.6101230  11.2515300
   8.9393790  56.9666000  11.7391400   3.8065330  51.4005590   4.6171900
   4.1037660  52.3068420   4.5363920   4.3550890  50.9124370   4.0031470
   4.0002860  56.8777410  11.1523820   3.9046460  55.9372140  11.0024220
   4.8434840  57.0992480  10.7571890   5.7058450  53.3726050  12.3754340
   5.0156770  53.1798250  13.0100430   6.4490750  53.6560690  12.9078640
   7.9821420  57.2124490   5.2108260   7.2502540  57.7211300   5.5598360
   7.5845760  56.3954470   4.9097040   4.4198810  53.8878690   3.6160750
   4.4234870  53.4468640   2.7665290   5.3149930  54.2096020   3.7232570
   8.4447330  52.6658170   4.6231200   8.4620070  53.1166820   5.4673050
   8.1962910  51.7663810   4.8364640  11.8718080  50.0790350  10.4617580
  12.1963850  49.3480010  10.9875560  11.9074590  49.7603990   9.5598570
   4.7206780  57.9480470   5.3626160   5.0876910  57.4739040   6.1087500
   4.5311840  58.8222040   5.7034500   2.5106150  56.9889110   7.6810370
   2.2063220  57.8681090   7.9060730   3.4652610  57.0488900   7.7167810
   1.7683000  58.2876090  11.7121280   1.4683140  58.4333270  10.8149100
   2.5394240  57.7281380  11.6194670   8.6357230  53.8107400   7.2555280
   9.0038050  52.9902610   7.5834850   7.7755430  53.8709290   7.6710930
   5.5959220  56.4646990   7.4793250   6.0944470  56.9392810   8.1445100
   5.7382170  55.5410510   7.6863280  12.8026080  52.6814950   8.3221640
  12.2999680  53.4220350   8.6615450  13.6182740  53.0698950   8.0058430
  11.0948090  57.9248130   1.7683000  10.1538230  57.9398360   1.9430690
  11.4092160  57.1384090   2.2143300  10.6376410  57.3895030  11.8780920
  11.2197180  56.6347350  11.7901400  10.8138180  57.9202470  11.1012400
   4.5209920  51.1065020   7.2225260   4.0727220  51.1289280   6.3770810
   3.8875120  50.7084040   7.8195560   7.2633370  57.7335530   9.2275540
   7.3829580  57.1376670   9.9670380   8.1227370  57.7705220   8.8076840
   4.0302140  54.2756880  10.4851360   4.6201830  53.9672730  11.1729180
   3.2122380  53.8036630  10.6411260   8.8495570  53.8922690  10.7184380
   8.1611090  53.2304230  10.6534370   9.5701590  53.4460960  11.1632840
  13.1960820  57.1025930   9.1720020  12.9646910  56.8738680   8.2717970
  13.4565370  58.0225480   9.1264910  11.6348890  52.3282360  11.9499720
  12.5119070  52.3365760  12.3333720  11.6469730  51.5913200  11.3392070
  13.0812160  56.1811900   2.8387740  13.6049640  55.6874550   2.2077910
  13.6671580  56.3162260   3.5835310  13.2601880  56.2651770   6.3607290
  12.3104590  56.2315310   6.4752280  13.4414890  57.1751880   6.1257060
  12.3465010  50.0140330   7.7700830  12.9837230  50.6274470   8.1360020
  12.4939900  50.0500990   6.8250060   5.7169490  51.1666520  10.6775930
   5.6558380  51.7588350  11.4271340   6.6569870  51.0592480  10.5326190
   8.3544050  50.8236580  10.3168220   8.9684460  51.1415870   9.6549300
   8.8993610  50.3385170  10.9364080   9.0952090  49.3868720   6.6437510
   8.2211930  49.7203830   6.4410440   8.9862840  48.9141900   7.4689380
  10.0024070  51.5939590   8.0279230   9.6737430  50.7791350   7.6480960
  10.9506370  51.5509400   7.9044920   6.8426910  50.3038560   5.5830420
   6.0598700  50.7784060   5.8627180   6.5489840  49.3993390   5.4743600
  11.3947980  51.0061660   3.6279510  11.8356070  50.9506760   2.7801110
  11.1255570  51.9219670   3.6989690   9.2306110  49.3867760   2.3329520
   9.8335480  49.9587970   2.8078040   8.4899100  49.9507200   2.1103420
   2.8785870  50.1509210  12.1343990   2.5970140  50.6542810  11.3704810
   3.2605570  49.3530960  11.7686120   9.4801330  49.5662790  12.7124460
   9.3666780  49.8857400  13.6075980  10.2971070  49.9675300  12.4161740
   8.3859480  38.8111770  58.1733160   8.3053530  37.8966380  57.9024870
   7.9723900  39.3078840  57.4672870   6.5177520  40.5890790  60.0542430
   5.7419620  40.1091230  60.3441000   7.1690450  39.9096440  59.8798590
  10.5384950  44.9950980  58.8341560  10.0766480  44.2238220  59.1628730
  11.3510500  45.0217050  59.3394010   6.7648260  47.2808990  58.4545550
   6.1459700  47.7366490  57.8839990   7.6200040  47.4360450  58.0535250
   5.9586510  43.2647980  60.0612590   5.8894790  42.3237920  59.9001720
   6.7206370  43.3549390  60.6335160   6.9891680  36.0718360  60.2881520
   7.3656500  35.1990240  60.1755190   6.8911190  36.4077060  59.3971960
  10.7715800  33.5668800  57.2209860  11.5925420  33.0765370  57.2635340
  10.8049880  34.1566460  57.9741700   2.9604420  37.4130360  60.0824140
   3.4682640  37.9111330  60.7229160   3.4917660  36.6365560  59.9063500
   7.6311610  42.1648230  55.8477460   7.0128880  42.6297680  55.2840180
   8.1434860  42.8575710  56.2646970  11.0077280  35.5069180  59.9937400
  10.3032850  35.7954070  60.5740510  11.3689440  36.3169290  59.6336960
  14.0764200  34.9523970  60.3846610  13.1289110  34.9862950  60.5162040
  14.4014190  35.7662920  60.7695970   4.6083740  31.2521150  58.6802600
   4.9158720  30.6968040  57.9638100   3.6784440  31.3865610  58.4975590
  10.1598800  46.9688440  60.9710060  10.1725960  46.5650730  60.1032320
   9.6074020  47.7435730  60.8671490  11.4544220  43.6904660  56.0600230
  11.3440550  42.7478990  56.1849650  11.4512470  44.0520300  56.9462990
   6.9964500  39.3169980  55.4162720   6.0693780  39.2507360  55.6451190
   7.1489320  40.2550110  55.3017960   6.9833580  35.5886980  52.4129880
   6.0437250  35.7500940  52.4982340   7.3016840  36.3072660  51.8665870
  11.0261790  40.8790280  55.9197970  10.4074210  40.5409830  55.2724270
  11.0086240  40.2350040  56.6277160   2.6021140  39.8434720  58.1982450
   2.1978140  39.1311970  57.7028350   2.6884260  39.4987960  59.0870490
   3.0702840  43.5302280  60.3621660   2.7731130  42.9247750  59.6829440
   4.0202660  43.5679590  60.2511020   9.2026490  40.1177090  52.9270720
   9.6419770  39.2799520  52.7808540   9.9154910  40.7506490  53.0134860
   7.3121870  45.0573160  56.8951960   7.7517780  45.7997490  56.4807350
   7.2508760  45.2999730  57.8190920  12.7843630  31.3719900  51.2411760
  12.4716290  31.4646730  52.1410830  13.5456100  31.9500930  51.1909190
   9.9792050  48.0442280  54.2514970   9.8193190  47.7545220  55.1496800
   9.8138760  47.2682410  53.7160200   2.4580430  47.8240810  56.0286590
   2.2822910  46.9076350  55.8154390   1.6036170  48.1828100  56.2684390
   9.6818180  45.5529840  52.8112970   8.9883340  45.5507130  52.1515250
  10.4241040  45.1289160  52.3807140   9.2468110  47.1792550  56.8861460
   9.7025060  46.3981930  57.2000080   9.5860630  47.8899370  57.4302640
   4.8848250  31.7025470  53.9618600   4.2602430  31.6985340  54.6871910
   4.7978370  30.8356430  53.5654570   3.8065330  32.6262100  60.9402370
   4.1037660  33.5324930  60.8594390   4.3550890  32.1380880  60.3261940
   8.7901410  37.2111710  55.4084670   8.1910300  37.9347510  55.2248290
   9.3381020  37.1488490  54.6261120   7.3966280  35.8475250  57.4387950
   7.7895850  36.1647450  56.6256640   7.7583130  34.9687130  57.5532470
   4.4198810  35.1135200  59.9391220   4.4234870  34.6725150  59.0895760
   5.3149930  35.4352530  60.0463040   4.4818960  36.1147280  52.9297980
   4.6031780  36.0733760  53.8783800   4.0967470  36.9771430  52.7744710
   3.4940460  38.4248420  52.3281280   2.9257360  37.9766670  51.7017190
   4.2029460  38.7841200  51.7946430  11.7975920  41.4171970  60.3934080
  12.5175040  41.9127260  60.0030190  11.5957740  40.7389860  59.7487950
   7.2585860  32.8109930  54.5363470   6.4450470  32.3123100  54.4608780
   7.0647810  33.6508180  54.1199820   9.9734250  37.1829580  52.8325630
  10.8613870  37.4946810  52.6576970   9.9439340  36.3101830  52.4406210
   5.9694840  43.3553270  53.5113800   6.3110540  44.0995500  53.0157120
   5.1407550  43.6684390  53.8738630  12.2448520  38.4941420  52.3005490
  12.1612240  38.9255640  51.4501930  12.9642710  38.9539770  52.7332310
  13.2735770  45.3483680  55.0287620  12.6311930  44.6939300  55.3031340
  12.8866430  45.7538770  54.2528290   8.8522250  42.6769110  58.8759310
   9.2046070  42.0797240  58.2160680   7.9684580  42.3513340  59.0467560
   4.9385530  43.4366800  56.2829720   5.6256660  43.9836010  56.6637310
   4.1517950  43.9807530  56.3179330   4.2412740  40.4412830  55.8955080
   4.6975520  41.2518080  56.1215270   3.8900950  40.1235970  56.7273570
  11.6633150  44.2400140  51.5663970  11.4370730  43.5230580  52.1588610
  11.2729350  43.9912580  50.7285720  11.2449400  42.1572080  53.2278130
  10.9571100  42.6184770  54.0156010  12.0401570  41.6969850  53.4962350
   3.4617800  45.6498200  53.1582100   3.4527900  46.3827890  52.5426610
   2.5416160  45.4029780  53.2509060  12.0019260  33.9920850  54.3873310
  11.3732420  34.0966520  53.6731540  11.5071180  34.2117630  55.1767190
   6.4477400  45.7126440  51.8207290   6.5489380  45.5090430  50.8909270
   5.5479140  45.4584720  52.0255070   3.9703290  36.2706800  55.8031190
   3.2619440  36.7393140  56.2444800   4.2547770  35.6128810  56.4376380
   8.0018720  32.9957460  57.2426980   7.8786500  33.0143590  56.2936490
   8.9503280  33.0436400  57.3625380   5.0895510  48.2312760  56.5154960
   5.3437010  48.1934150  55.5934330   4.1407990  48.1046090  56.5083210
   2.1738310  34.5791880  53.1781900   3.0228840  35.0162030  53.1122090
   1.8069580  34.8912140  54.0053960  11.0948090  39.1504640  58.0913470
  10.1538230  39.1654870  58.2661160  11.4092160  38.3640600  58.5373770
  13.0973670  46.3213490  59.7667730  13.2221090  47.1444660  60.2391540
  13.9639230  46.1104220  59.4191880   3.6793510  47.5875010  51.2610430
   4.4722120  47.8763840  50.8092220   3.1597860  47.1567180  50.5822910
  12.7323680  46.8145140  52.6847170  12.4465190  46.4010280  51.8701350
  12.5343230  47.7432850  52.5647690   4.1970910  42.8078420  51.1252780
   4.0921550  42.1930770  51.8514160   4.0295130  42.2844310  50.3415790
   7.4373640  41.8698450  51.7294770   6.8883740  42.3167750  52.3737510
   8.0592900  41.3647700  52.2532440   3.1048760  40.8289370  53.6260070
   3.5265180  40.6629240  54.4691460   3.2299600  40.0189600  53.1315210
   5.6176400  39.8526980  50.8737170   6.1382060  39.1376000  50.5078320
   6.2644800  40.4912850  51.1737680   2.0007660  36.9022600  50.5718230
   1.7996720  36.0389960  50.9331570   1.8299710  36.8155960  49.6339830
   9.4795970  31.7130830  53.1005110   9.7598260  30.8698730  53.4564530
   8.7061700  31.9453940  53.6143860   4.0175390  32.9457840  51.5452310
   3.6697390  32.2681830  50.9654760   4.2188160  32.4847350  52.3595700
   6.1824430  47.9338590  53.1638910   7.0775220  48.2723560  53.1857670
   6.2142060  47.2118000  52.5363190  14.4020230  44.2060080  51.2074820
  13.5713190  44.2736730  51.6782050  14.5792060  45.0964200  50.9041680
  13.8576690  40.9507560  53.7109020  14.6195600  41.5204210  53.8168710
  13.8731060  40.3834760  54.4817330  14.8636660  41.8057660  58.5550950
  15.2345490  41.0224980  58.1486920  15.5038590  42.4946760  58.3768250
  13.9095860  41.2441930  50.8681540  14.1844700  42.1520810  50.7400760
  13.7206600  41.1804460  51.8043530  10.3071470  34.2686780  52.1635170
  10.7256350  34.0817760  51.3231830  10.0007530  33.4165830  52.4738100
  13.8061200  39.1810920  55.8610970  13.4304800  38.4138850  55.4292260
  13.0764320  39.5633620  56.3485900  13.0812160  37.4068410  59.1618210
  13.6049640  36.9131060  58.5308380  13.6671580  37.5418770  59.9065780
  12.5712130  36.6641760  55.1010620  13.0671250  36.4312630  55.8859500
  12.3728200  35.8253600  54.6848260  13.9999290  35.3002710  57.6348300
  13.8898570  35.1458750  58.5730570  14.7606880  34.7723650  57.3923710
  14.8889560  33.1310630  50.8754440  15.8138870  32.9991810  50.6672730
  14.8665350  33.2103450  51.8290890  14.9628050  33.9021290  53.5011150
  14.1679550  33.8366410  54.0304060  15.1671330  34.8371930  53.4896500
  11.9046470  47.9412840  57.4949540  12.5005540  47.6197410  56.8183960
  12.1624620  47.4684660  58.2862810  12.4558680  48.5908140  61.3247270
  11.9961650  49.3423950  60.9505290  11.8271140  47.8714610  61.2662070
   2.8854400  46.8996380  60.4995400   3.4019420  46.2883740  59.9743660
   3.5351780  47.4025160  60.9906410  11.3947980  32.2318170  59.9509980
  11.8356070  32.1763270  59.1031580  11.1255570  33.1476180  60.0220160
  13.2586550  31.8633410  57.9618800  13.1974950  30.9194630  57.8149820
  14.0378580  31.9713500  58.5072260   4.7281130  33.9481820  57.4176920
   3.9155640  33.5738710  57.0772800   5.2322770  33.1926900  57.7198110
   9.2306110  30.6124270  58.6559990   9.8335480  31.1844480  59.1308510
   8.4899100  31.1763710  58.4333890  12.3740710  31.0145830  53.9300270
  12.5691340  31.9129280  54.1967700  11.5870580  30.7832910  54.4233220
   2.7530310  32.0981740  56.0221970   2.1233050  31.3969050  56.1892100
   2.2135450  32.8585870  55.8055130  13.9267320  48.2546540  55.6906830
  14.1019510  47.5684280  55.0467750  13.2288890  48.7793590  55.2983500
   1.7694970  48.6441380  53.2442140   2.5013790  48.3600660  52.6966030
   2.0288640  48.4054660  54.1341520   8.3859480  38.8111770  39.3989670
   8.3053530  37.8966380  39.1281380   7.9723900  39.3078840  38.6929380
   6.5177520  40.5890790  41.2798940   5.7419620  40.1091230  41.5697510
   7.1690450  39.9096440  41.1055100  10.5384950  44.9950980  40.0598070
  10.0766480  44.2238220  40.3885240  11.3510500  45.0217050  40.5650520
   6.7648260  47.2808990  39.6802060   6.1459700  47.7366490  39.1096500
   7.6200040  47.4360450  39.2791760   5.9586510  43.2647980  41.2869100
   5.8894790  42.3237920  41.1258230   6.7206370  43.3549390  41.8591670
   6.9891680  36.0718360  41.5138030   7.3656500  35.1990240  41.4011700
   6.8911190  36.4077060  40.6228470  10.7715800  33.5668800  38.4466370
  11.5925420  33.0765370  38.4891850  10.8049880  34.1566460  39.1998210
   2.9604420  37.4130360  41.3080650   3.4682640  37.9111330  41.9485670
   3.4917660  36.6365560  41.1320010  15.0615350  35.5835550  45.0110000
  14.3567520  35.9717260  44.4925110  15.3273270  36.2785840  45.6130930
   7.6311610  42.1648230  37.0733970   7.0128880  42.6297680  36.5096690
   8.1434860  42.8575710  37.4903480   2.4943370  41.6924100  43.7517570
   2.1612750  42.3193020  44.3938640   2.6710050  42.2185980  42.9719240
  11.0077280  35.5069180  41.2193910  10.3032850  35.7954070  41.7997020
  11.3689440  36.3169290  40.8593470  12.6240060  45.1244310  43.4821390
  11.9403580  45.7943420  43.4738060  13.1634350  45.3224960  42.7166250
  14.0764200  34.9523970  41.6103120  13.1289110  34.9862950  41.7418550
  14.4014190  35.7662920  41.9952480   4.6083740  31.2521150  39.9059110
   4.9158720  30.6968040  39.1894610   3.6784440  31.3865610  39.7232100
  10.1598800  46.9688440  42.1966570  10.1725960  46.5650730  41.3288830
   9.6074020  47.7435730  42.0928000  11.4544220  43.6904660  37.2856740
  11.3440550  42.7478990  37.4106160  11.4512470  44.0520300  38.1719500
   9.5584240  41.8718280  43.5249180   9.9753030  41.6578390  42.6902640
  10.2824060  42.1291070  44.0957800   6.9964500  39.3169980  36.6419230
   6.0693780  39.2507360  36.8707700   7.1489320  40.2550110  36.5274470
   6.9833580  35.5886980  33.6386390   6.0437250  35.7500940  33.7238850
   7.3016840  36.3072660  33.0922380  13.5046340  40.2705500  43.6165420
  12.6764970  40.3398590  43.1415550  14.0996820  40.8559810  43.1481250
  11.0261790  40.8790280  37.1454480  10.4074210  40.5409830  36.4980780
  11.0086240  40.2350040  37.8533670  10.4688350  37.0574820  44.5620290
  10.0559530  37.8828530  44.8160280   9.7364300  36.4719860  44.3696650
   2.6021140  39.8434720  39.4238960   2.1978140  39.1311970  38.9284860
   2.6884260  39.4987960  40.3127000   3.0702840  43.5302280  41.5878170
   2.7731130  42.9247750  40.9085950   4.0202660  43.5679590  41.4767530
  11.1588450  47.1034150  45.2501270  10.6819010  47.9106340  45.0573880
  10.4750240  46.4512480  45.4027480   9.2026490  40.1177090  34.1527230
   9.6419770  39.2799520  34.0065050   9.9154910  40.7506490  34.2391370
   7.3121870  45.0573160  38.1208470   7.7517780  45.7997490  37.7063860
   7.2508760  45.2999730  39.0447430   2.7872840  46.0818990  49.0228490
   2.7588270  46.4861940  48.1556920   2.6237810  45.1529350  48.8600090
  12.7843630  31.3719900  32.4668270  12.4716290  31.4646730  33.3667340
  13.5456100  31.9500930  32.4165700  14.7387660  46.8646090  50.3192660
  15.2147380  47.3428980  50.9981740  15.3594820  46.7963580  49.5938160
  14.1420910  44.0558940  47.4792670  14.2683970  43.8170820  46.5609850
  14.1842290  43.2243480  47.9514750   8.0037650  47.7586940  46.0487480
   8.5182320  47.6694950  46.8509910   7.1606730  48.1046640  46.3415390
   9.9792050  48.0442280  35.4771480   9.8193190  47.7545220  36.3753310
   9.8138760  47.2682410  34.9416710   2.4580430  47.8240810  37.2543100
   2.2822910  46.9076350  37.0410900   1.6036170  48.1828100  37.4940900
   9.6818180  45.5529840  34.0369480   8.9883340  45.5507130  33.3771760
  10.4241040  45.1289160  33.6063650   9.2468110  47.1792550  38.1117970
   9.7025060  46.3981930  38.4256590   9.5860630  47.8899370  38.6559150
  13.9944920  36.1091400  48.4442410  13.3789190  36.6171070  47.9157870
  13.6741340  35.2089730  48.3868350   6.0559240  34.9483290  45.9104600
   5.5938610  35.1566310  46.7224540   5.6537350  34.1342640  45.6075270
  11.0563750  36.1692240  47.0401260  10.2057340  35.8697990  47.3610330
  10.8965540  36.4134250  46.1285080   8.1513460  37.6693990  49.1400050
   8.4766870  36.8357740  48.8002280   8.9393790  38.1922510  49.2878380
   4.8848250  31.7025470  35.1875110   4.2602430  31.6985340  35.9128420
   4.7978370  30.8356430  34.7911080   3.8065330  32.6262100  42.1658880
   4.1037660  33.5324930  42.0850900   4.3550890  32.1380880  41.5518450
   8.7901410  37.2111710  36.6341180   8.1910300  37.9347510  36.4504800
   9.3381020  37.1488490  35.8517630   4.0002860  38.1033920  48.7010800
   3.9046460  37.1628650  48.5511200   4.8434840  38.3248990  48.3058870
   7.3966280  35.8475250  38.6644460   7.7895850  36.1647450  37.8513150
   7.7583130  34.9687130  38.7788980   5.7058450  34.5982560  49.9241320
   5.0156770  34.4054760  50.5587410   6.4490750  34.8817200  50.4565620
   7.9821420  38.4381000  42.7595240   7.2502540  38.9467810  43.1085340
   7.5845760  37.6210980  42.4584020   4.4198810  35.1135200  41.1647730
   4.4234870  34.6725150  40.3152270   5.3149930  35.4352530  41.2719550
   4.4818960  36.1147280  34.1554490   4.6031780  36.0733760  35.1040310
   4.0967470  36.9771430  34.0001220   8.4447330  33.8914680  42.1718180
   8.4620070  34.3423330  43.0160030   8.1962910  32.9920320  42.3851620
   3.4940460  38.4248420  33.5537790   2.9257360  37.9766670  32.9273700
   4.2029460  38.7841200  33.0202940  11.8718080  31.3046860  48.0104560
  12.1963850  30.5736520  48.5362540  11.9074590  30.9860500  47.1085550
   4.7206780  39.1736980  42.9113140   5.0876910  38.6995550  43.6574480
   4.5311840  40.0478550  43.2521480   2.5106150  38.2145620  45.2297350
   2.2063220  39.0937600  45.4547710   3.4652610  38.2745410  45.2654790
  11.7975920  41.4171970  41.6190590  12.5175040  41.9127260  41.2286700
  11.5957740  40.7389860  40.9744460   7.2585860  32.8109930  35.7619980
   6.4450470  32.3123100  35.6865290   7.0647810  33.6508180  35.3456330
   7.1794720  41.4881030  47.5059590   7.1132030  40.5676700  47.2517180
   6.5499860  41.5856470  48.2204230   9.9734250  37.1829580  34.0582140
  10.8613870  37.4946810  33.8833480   9.9439340  36.3101830  33.6662720
   5.9694840  43.3553270  34.7370310   6.3110540  44.0995500  34.2413630
   5.1407550  43.6684390  35.0995140   1.7683000  39.5132600  49.2608260
   1.4683140  39.6589780  48.3636080   2.5394240  38.9537890  49.1681650
   7.1111450  44.3101600  47.2563390   7.1255990  43.3782560  47.0382300
   6.4036550  44.3961360  47.8953160  12.2448520  38.4941420  33.5262000
  12.1612240  38.9255640  32.6758440  12.9642710  38.9539770  33.9588820
  13.3222660  40.9508940  46.6031970  12.5970850  41.5437720  46.4061360
  13.8498120  40.9432480  45.8045340  13.2735770  45.3483680  36.2544130
  12.6311930  44.6939300  36.5287850  12.8866430  45.7538770  35.4784800
   8.8522250  42.6769110  40.1015820   9.2046070  42.0797240  39.4417190
   7.9684580  42.3513340  40.2724070   4.9385530  43.4366800  37.5086230
   5.6256660  43.9836010  37.8893820   4.1517950  43.9807530  37.5435840
   4.2412740  40.4412830  37.1211590   4.6975520  41.2518080  37.3471780
   3.8900950  40.1235970  37.9530080   6.5445350  45.9519170  44.3503890
   7.1887570  46.1578550  45.0277310   6.9074790  45.1907570  43.8974740
   7.8177430  43.9551520  43.0681340   8.4599660  43.2544680  43.1813510
   8.3426780  44.7349960  42.8878230  11.6633150  44.2400140  32.7920480
  11.4370730  43.5230580  33.3845120  11.2729350  43.9912580  31.9542230
   9.5915050  44.7546420  46.2717400   9.9271290  45.3413110  46.9495320
   8.6715390  44.6239130  46.5015190  11.2449400  42.1572080  34.4534640
  10.9571100  42.6184770  35.2412520  12.0401570  41.6969850  34.7218860
   5.4203630  44.8037750  49.4405460   5.1000500  44.0846990  49.9851150
   4.7461990  45.4792820  49.5141520   3.4617800  45.6498200  34.3838610
   3.4527900  46.3827890  33.7683120   2.5416160  45.4029780  34.4765570
   8.6357230  35.0363910  44.8042260   9.0038050  34.2159120  45.1321830
   7.7755430  35.0965800  45.2197910  12.0019260  33.9920850  35.6129820
  11.3732420  34.0966520  34.8988050  11.5071180  34.2117630  36.4023700
   6.4477400  45.7126440  33.0463800   6.5489380  45.5090430  32.1165780
   5.5479140  45.4584720  33.2511580   3.9703290  36.2706800  37.0287700
   3.2619440  36.7393140  37.4701310   4.2547770  35.6128810  37.6632890
   5.5959220  37.6903500  45.0280230   6.0944470  38.1649320  45.6932080
   5.7382170  36.7667020  45.2350260   8.0018720  32.9957460  38.4683490
   7.8786500  33.0143590  37.5193000   8.9503280  33.0436400  38.5881890
   5.0895510  48.2312760  37.7411470   5.3437010  48.1934150  36.8190840
   4.1407990  48.1046090  37.7339720   2.1738310  34.5791880  34.4038410
   3.0228840  35.0162030  34.3378600   1.8069580  34.8912140  35.2310470
  12.8026080  33.9071460  45.8708620  12.2999680  34.6476860  46.2102430
  13.6182740  34.2955460  45.5545410  11.0948090  39.1504640  39.3169980
  10.1538230  39.1654870  39.4917670  11.4092160  38.3640600  39.7630280
  13.0973670  46.3213490  40.9924240  13.2221090  47.1444660  41.4648050
  13.9639230  46.1104220  40.6448390   3.6793510  47.5875010  32.4866940
   4.4722120  47.8763840  32.0348730   3.1597860  47.1567180  31.8079420
   8.4114110  43.7070640  49.8002360   7.8052270  43.7302240  49.0598110
   8.1068220  42.9753680  50.3369610   9.8414480  47.4350930  48.4111770
  10.7936230  47.3508950  48.3612010   9.6942700  48.0992640  49.0845560
  12.7323680  46.8145140  33.9103680  12.4465190  46.4010280  33.0957860
  12.5343230  47.7432850  33.7904200   4.1970910  42.8078420  32.3509290
   4.0921550  42.1930770  33.0770670   4.0295130  42.2844310  31.5672300
   4.3485230  41.4935220  48.3298520   3.5830900  42.0620220  48.2453190
   4.5301190  41.2011430  47.4366750   7.4373640  41.8698450  32.9551280
   6.8883740  42.3167750  33.5994020   8.0592900  41.3647700  33.4788950
  11.4908580  43.2240550  48.8873540  12.2318050  43.5616310  48.3841000
  10.7281260  43.3932610  48.3343310   3.1048760  40.8289370  34.8516580
   3.5265180  40.6629240  35.6947970   3.2299600  40.0189600  34.3571720
   5.6176400  39.8526980  32.0993680   6.1382060  39.1376000  31.7334830
   6.2644800  40.4912850  32.3994190  10.1654240  41.2755380  47.4228750
  10.5795260  41.4300460  48.2719170   9.2305240  41.4010600  47.5854530
  10.6376410  38.6151540  49.4267900  11.2197180  37.8603860  49.3388380
  10.8138180  39.1458980  48.6499380   4.5209920  32.3321530  44.7712240
   4.0727220  32.3545790  43.9257790   3.8875120  31.9340550  45.3682540
   4.9269470  41.2275860  45.3924680   5.3457580  42.0708590  45.2200920
   4.0078100  41.3647900  45.1631460   7.2633370  38.9592040  46.7762520
   7.3829580  38.3633180  47.5157360   8.1227370  38.9961730  46.3563820
   9.6021270  39.5129230  45.3525030   9.0756490  40.0371850  44.7490170
   9.9452610  40.1456620  45.9834760   2.0007660  36.9022600  31.7974740
   1.7996720  36.0389960  32.1588080   1.8299710  36.8155960  30.8596340
   2.7776890  47.5328870  46.5082410   2.2397980  48.2574930  46.1891110
   3.0310850  47.0559210  45.7179750   4.0302140  35.5013390  48.0338340
   4.6201830  35.1929240  48.7216160   3.2122380  35.0293140  48.1898240
   8.8495570  35.1179200  48.2671360   8.1611090  34.4560740  48.2021350
   9.5701590  34.6717470  48.7119820   9.4795970  31.7130830  34.3261620
   9.7598260  30.8698730  34.6821040   8.7061700  31.9453940  34.8400370
   5.6339100  48.7680080  46.7669060   5.5597800  49.6715220  47.0741430
   4.7317940  48.4491980  46.7391130   4.0175390  32.9457840  32.7708820
   3.6697390  32.2681830  32.1911270   4.2188160  32.4847350  33.5852210
   6.1824430  47.9338590  34.3895420   7.0775220  48.2723560  34.4114180
   6.2142060  47.2118000  33.7619700  13.1618780  46.4642260  47.0961620
  12.5620770  46.5234820  46.3525540  13.2912680  45.5247240  47.2258470
  14.4020230  44.2060080  32.4331330  13.5713190  44.2736730  32.9038560
  14.5792060  45.0964200  32.1298190  13.8576690  40.9507560  34.9365530
  14.6195600  41.5204210  35.0425220  13.8731060  40.3834760  35.7073840
  14.8636660  41.8057660  39.7807460  15.2345490  41.0224980  39.3743430
  15.5038590  42.4946760  39.6024760  11.8470420  43.1894240  45.1937780
  11.0330260  43.6191400  45.4563570  12.2544620  43.8012650  44.5806830
  13.9095860  41.2441930  32.0938050  14.1844700  42.1520810  31.9657270
  13.7206600  41.1804460  33.0300040  10.3071470  34.2686780  33.3891680
  10.7256350  34.0817760  32.5488340  10.0007530  33.4165830  33.6994610
  13.8061200  39.1810920  37.0867480  13.4304800  38.4138850  36.6548770
  13.0764320  39.5633620  37.5742410  13.1960820  38.3282440  46.7207000
  12.9646910  38.0995190  45.8204950  13.4565370  39.2481990  46.6751890
  11.6348890  33.5538870  49.4986700  12.5119070  33.5622270  49.8820700
  11.6469730  32.8169710  48.8879050  13.0812160  37.4068410  40.3874720
  13.6049640  36.9131060  39.7564890  13.6671580  37.5418770  41.1322290
  13.2601880  37.4908280  43.9094270  12.3104590  37.4571820  44.0239260
  13.4414890  38.4008390  43.6744040  12.5712130  36.6641760  36.3267130
  13.0671250  36.4312630  37.1116010  12.3728200  35.8253600  35.9104770
  13.9999290  35.3002710  38.8604810  13.8898570  35.1458750  39.7987080
  14.7606880  34.7723650  38.6180220  12.3465010  31.2396840  45.3187810
  12.9837230  31.8530980  45.6847000  12.4939900  31.2757500  44.3737040
  14.8889560  33.1310630  32.1010950  15.8138870  32.9991810  31.8929240
  14.8665350  33.2103450  33.0547400  14.9628050  33.9021290  34.7267660
  14.1679550  33.8366410  35.2560570  15.1671330  34.8371930  34.7153010
  11.9046470  47.9412840  38.7206050  12.5005540  47.6197410  38.0440470
  12.1624620  47.4684660  39.5119320   3.5115070  45.9290340  44.4706400
   3.2706430  46.1964900  43.5836920   4.4517710  46.0996070  44.5257260
   5.7169490  32.3923030  48.2262910   5.6558380  32.9844860  48.9758320
   6.6569870  32.2848990  48.0813170   8.3544050  32.0493090  47.8655200
   8.9684460  32.3672380  47.2036280   8.8993610  31.5641680  48.4851060
  14.7719230  47.9484720  45.2717040  14.2777510  48.3453590  44.5544170
  14.1632520  47.3233930  45.6654320   9.0952090  30.6125230  44.1924490
   8.2211930  30.9460340  43.9897420   8.9862840  30.1398410  45.0176360
  10.0024070  32.8196100  45.5766210   9.6737430  32.0047860  45.1967940
  10.9506370  32.7765910  45.4531900  12.4558680  48.5908140  42.5503780
  11.9961650  49.3423950  42.1761800  11.8271140  47.8714610  42.4918580
   2.8854400  46.8996380  41.7251910   3.4019420  46.2883740  41.2000170
   3.5351780  47.4025160  42.2162920   5.6249900  47.7904870  42.5520890
   5.9127710  47.5359170  41.6753900   6.1373120  47.2382230  43.1426460
   6.8426910  31.5295070  43.1317400   6.0598700  32.0040570  43.4114160
   6.5489840  30.6249900  43.0230580  11.3947980  32.2318170  41.1766490
  11.8356070  32.1763270  40.3288090  11.1255570  33.1476180  41.2476670
  13.2586550  31.8633410  39.1875310  13.1974950  30.9194630  39.0406330
  14.0378580  31.9713500  39.7328770   4.7281130  33.9481820  38.6433430
   3.9155640  33.5738710  38.3029310   5.2322770  33.1926900  38.9454620
   9.2306110  30.6124270  39.8816500   9.8335480  31.1844480  40.3565020
   8.4899100  31.1763710  39.6590400  12.3740710  31.0145830  35.1556780
  12.5691340  31.9129280  35.4224210  11.5870580  30.7832910  35.6489730
   2.7530310  32.0981740  37.2478480   2.1233050  31.3969050  37.4148610
   2.2135450  32.8585870  37.0311640   5.6922260  48.7120970  49.9189090
   6.6189570  48.4765240  49.9625050   5.6772690  49.5392970  49.4375120
  13.9267320  48.2546540  36.9163340  14.1019510  47.5684280  36.2724260
  13.2288890  48.7793590  36.5240010   2.8785870  31.3765720  49.6830970
   2.5970140  31.8799320  48.9191790   3.2605570  30.5787470  49.3173100
   1.7694970  48.6441380  34.4698650   2.5013790  48.3600660  33.9222540
   2.0288640  48.4054660  35.3598030   9.4801330  30.7919300  50.2611440
   9.3666780  31.1113910  51.1562960  10.2971070  31.1931810  49.9648720
  12.2599820  47.9390830  49.7430130  13.0525140  47.4440060  49.5356090
  12.5532970  48.6180970  50.3505740   8.3859480  38.8111770  20.6246180
   8.3053530  37.8966380  20.3537890   7.9723900  39.3078840  19.9185890
   6.5177520  40.5890790  22.5055450   5.7419620  40.1091230  22.7954020
   7.1690450  39.9096440  22.3311610  10.5384950  44.9950980  21.2854580
  10.0766480  44.2238220  21.6141750  11.3510500  45.0217050  21.7907030
   6.7648260  47.2808990  20.9058570   6.1459700  47.7366490  20.3353010
   7.6200040  47.4360450  20.5048270   5.9586510  43.2647980  22.5125610
   5.8894790  42.3237920  22.3514740   6.7206370  43.3549390  23.0848180
   6.9891680  36.0718360  22.7394540   7.3656500  35.1990240  22.6268210
   6.8911190  36.4077060  21.8484980  10.7715800  33.5668800  19.6722880
  11.5925420  33.0765370  19.7148360  10.8049880  34.1566460  20.4254720
   2.9604420  37.4130360  22.5337160   3.4682640  37.9111330  23.1742180
   3.4917660  36.6365560  22.3576520  15.0615350  35.5835550  26.2366510
  14.3567520  35.9717260  25.7181620  15.3273270  36.2785840  26.8387440
   7.6311610  42.1648230  18.2990480   7.0128880  42.6297680  17.7353200
   8.1434860  42.8575710  18.7159990   2.4943370  41.6924100  24.9774080
   2.1612750  42.3193020  25.6195150   2.6710050  42.2185980  24.1975750
  11.0077280  35.5069180  22.4450420  10.3032850  35.7954070  23.0253530
  11.3689440  36.3169290  22.0849980  12.6240060  45.1244310  24.7077900
  11.9403580  45.7943420  24.6994570  13.1634350  45.3224960  23.9422760
  14.0764200  34.9523970  22.8359630  13.1289110  34.9862950  22.9675060
  14.4014190  35.7662920  23.2208990   4.6083740  31.2521150  21.1315620
   4.9158720  30.6968040  20.4151120   3.6784440  31.3865610  20.9488610
  10.1598800  46.9688440  23.4223080  10.1725960  46.5650730  22.5545340
   9.6074020  47.7435730  23.3184510  11.4544220  43.6904660  18.5113250
  11.3440550  42.7478990  18.6362670  11.4512470  44.0520300  19.3976010
   9.5584240  41.8718280  24.7505690   9.9753030  41.6578390  23.9159150
  10.2824060  42.1291070  25.3214310   6.9964500  39.3169980  17.8675740
   6.0693780  39.2507360  18.0964210   7.1489320  40.2550110  17.7530980
   6.9833580  35.5886980  14.8642900   6.0437250  35.7500940  14.9495360
   7.3016840  36.3072660  14.3178890  13.5046340  40.2705500  24.8421930
  12.6764970  40.3398590  24.3672060  14.0996820  40.8559810  24.3737760
  11.0261790  40.8790280  18.3710990  10.4074210  40.5409830  17.7237290
  11.0086240  40.2350040  19.0790180  10.4688350  37.0574820  25.7876800
  10.0559530  37.8828530  26.0416790   9.7364300  36.4719860  25.5953160
   2.6021140  39.8434720  20.6495470   2.1978140  39.1311970  20.1541370
   2.6884260  39.4987960  21.5383510   3.0702840  43.5302280  22.8134680
   2.7731130  42.9247750  22.1342460   4.0202660  43.5679590  22.7024040
  11.1588450  47.1034150  26.4757780  10.6819010  47.9106340  26.2830390
  10.4750240  46.4512480  26.6283990   9.2026490  40.1177090  15.3783740
   9.6419770  39.2799520  15.2321560   9.9154910  40.7506490  15.4647880
   7.3121870  45.0573160  19.3464980   7.7517780  45.7997490  18.9320370
   7.2508760  45.2999730  20.2703940   2.7872840  46.0818990  30.2485000
   2.7588270  46.4861940  29.3813430   2.6237810  45.1529350  30.0856600
  12.7843630  31.3719900  13.6924780  12.4716290  31.4646730  14.5923850
  13.5456100  31.9500930  13.6422210  14.7387660  46.8646090  31.5449170
  15.2147380  47.3428980  32.2238250  15.3594820  46.7963580  30.8194670
  14.1420910  44.0558940  28.7049180  14.2683970  43.8170820  27.7866360
  14.1842290  43.2243480  29.1771260   8.0037650  47.7586940  27.2743990
   8.5182320  47.6694950  28.0766420   7.1606730  48.1046640  27.5671900
   9.9792050  48.0442280  16.7027990   9.8193190  47.7545220  17.6009820
   9.8138760  47.2682410  16.1673220   2.4580430  47.8240810  18.4799610
   2.2822910  46.9076350  18.2667410   1.6036170  48.1828100  18.7197410
   9.6818180  45.5529840  15.2625990   8.9883340  45.5507130  14.6028270
  10.4241040  45.1289160  14.8320160   9.2468110  47.1792550  19.3374480
   9.7025060  46.3981930  19.6513100   9.5860630  47.8899370  19.8815660
  13.9944920  36.1091400  29.6698920  13.3789190  36.6171070  29.1414380
  13.6741340  35.2089730  29.6124860   6.0559240  34.9483290  27.1361110
   5.5938610  35.1566310  27.9481050   5.6537350  34.1342640  26.8331780
  11.0563750  36.1692240  28.2657770  10.2057340  35.8697990  28.5866840
  10.8965540  36.4134250  27.3541590   8.1513460  37.6693990  30.3656560
   8.4766870  36.8357740  30.0258790   8.9393790  38.1922510  30.5134890
   4.8848250  31.7025470  16.4131620   4.2602430  31.6985340  17.1384930
   4.7978370  30.8356430  16.0167590   3.8065330  32.6262100  23.3915390
   4.1037660  33.5324930  23.3107410   4.3550890  32.1380880  22.7774960
   8.7901410  37.2111710  17.8597690   8.1910300  37.9347510  17.6761310
   9.3381020  37.1488490  17.0774140   4.0002860  38.1033920  29.9267310
   3.9046460  37.1628650  29.7767710   4.8434840  38.3248990  29.5315380
   7.3966280  35.8475250  19.8900970   7.7895850  36.1647450  19.0769660
   7.7583130  34.9687130  20.0045490   5.7058450  34.5982560  31.1497830
   5.0156770  34.4054760  31.7843920   6.4490750  34.8817200  31.6822130
   7.9821420  38.4381000  23.9851750   7.2502540  38.9467810  24.3341850
   7.5845760  37.6210980  23.6840530   4.4198810  35.1135200  22.3904240
   4.4234870  34.6725150  21.5408780   5.3149930  35.4352530  22.4976060
   4.4818960  36.1147280  15.3811000   4.6031780  36.0733760  16.3296820
   4.0967470  36.9771430  15.2257730   8.4447330  33.8914680  23.3974690
   8.4620070  34.3423330  24.2416540   8.1962910  32.9920320  23.6108130
   3.4940460  38.4248420  14.7794300   2.9257360  37.9766670  14.1530210
   4.2029460  38.7841200  14.2459450  11.8718080  31.3046860  29.2361070
  12.1963850  30.5736520  29.7619050  11.9074590  30.9860500  28.3342060
   4.7206780  39.1736980  24.1369650   5.0876910  38.6995550  24.8830990
   4.5311840  40.0478550  24.4777990   2.5106150  38.2145620  26.4553860
   2.2063220  39.0937600  26.6804220   3.4652610  38.2745410  26.4911300
  11.7975920  41.4171970  22.8447100  12.5175040  41.9127260  22.4543210
  11.5957740  40.7389860  22.2000970   7.2585860  32.8109930  16.9876490
   6.4450470  32.3123100  16.9121800   7.0647810  33.6508180  16.5712840
   7.1794720  41.4881030  28.7316100   7.1132030  40.5676700  28.4773690
   6.5499860  41.5856470  29.4460740   9.9734250  37.1829580  15.2838650
  10.8613870  37.4946810  15.1089990   9.9439340  36.3101830  14.8919230
   5.9694840  43.3553270  15.9626820   6.3110540  44.0995500  15.4670140
   5.1407550  43.6684390  16.3251650   1.7683000  39.5132600  30.4864770
   1.4683140  39.6589780  29.5892590   2.5394240  38.9537890  30.3938160
   7.1111450  44.3101600  28.4819900   7.1255990  43.3782560  28.2638810
   6.4036550  44.3961360  29.1209670  12.2448520  38.4941420  14.7518510
  12.1612240  38.9255640  13.9014950  12.9642710  38.9539770  15.1845330
  13.3222660  40.9508940  27.8288480  12.5970850  41.5437720  27.6317870
  13.8498120  40.9432480  27.0301850  13.2735770  45.3483680  17.4800640
  12.6311930  44.6939300  17.7544360  12.8866430  45.7538770  16.7041310
   8.8522250  42.6769110  21.3272330   9.2046070  42.0797240  20.6673700
   7.9684580  42.3513340  21.4980580   4.9385530  43.4366800  18.7342740
   5.6256660  43.9836010  19.1150330   4.1517950  43.9807530  18.7692350
   4.2412740  40.4412830  18.3468100   4.6975520  41.2518080  18.5728290
   3.8900950  40.1235970  19.1786590   6.5445350  45.9519170  25.5760400
   7.1887570  46.1578550  26.2533820   6.9074790  45.1907570  25.1231250
   7.8177430  43.9551520  24.2937850   8.4599660  43.2544680  24.4070020
   8.3426780  44.7349960  24.1134740  11.6633150  44.2400140  14.0176990
  11.4370730  43.5230580  14.6101630  11.2729350  43.9912580  13.1798740
   9.5915050  44.7546420  27.4973910   9.9271290  45.3413110  28.1751830
   8.6715390  44.6239130  27.7271700  11.2449400  42.1572080  15.6791150
  10.9571100  42.6184770  16.4669030  12.0401570  41.6969850  15.9475370
   5.4203630  44.8037750  30.6661970   5.1000500  44.0846990  31.2107660
   4.7461990  45.4792820  30.7398030   3.4617800  45.6498200  15.6095120
   3.4527900  46.3827890  14.9939630   2.5416160  45.4029780  15.7022080
   8.6357230  35.0363910  26.0298770   9.0038050  34.2159120  26.3578340
   7.7755430  35.0965800  26.4454420  12.0019260  33.9920850  16.8386330
  11.3732420  34.0966520  16.1244560  11.5071180  34.2117630  17.6280210
   6.4477400  45.7126440  14.2720310   6.5489380  45.5090430  13.3422290
   5.5479140  45.4584720  14.4768090   3.9703290  36.2706800  18.2544210
   3.2619440  36.7393140  18.6957820   4.2547770  35.6128810  18.8889400
   5.5959220  37.6903500  26.2536740   6.0944470  38.1649320  26.9188590
   5.7382170  36.7667020  26.4606770   8.0018720  32.9957460  19.6940000
   7.8786500  33.0143590  18.7449510   8.9503280  33.0436400  19.8138400
   5.0895510  48.2312760  18.9667980   5.3437010  48.1934150  18.0447350
   4.1407990  48.1046090  18.9596230   2.1738310  34.5791880  15.6294920
   3.0228840  35.0162030  15.5635110   1.8069580  34.8912140  16.4566980
  12.8026080  33.9071460  27.0965130  12.2999680  34.6476860  27.4358940
  13.6182740  34.2955460  26.7801920  11.0948090  39.1504640  20.5426490
  10.1538230  39.1654870  20.7174180  11.4092160  38.3640600  20.9886790
  13.0973670  46.3213490  22.2180750  13.2221090  47.1444660  22.6904560
  13.9639230  46.1104220  21.8704900   3.6793510  47.5875010  13.7123450
   4.4722120  47.8763840  13.2605240   3.1597860  47.1567180  13.0335930
   8.4114110  43.7070640  31.0258870   7.8052270  43.7302240  30.2854620
   8.1068220  42.9753680  31.5626120   9.8414480  47.4350930  29.6368280
  10.7936230  47.3508950  29.5868520   9.6942700  48.0992640  30.3102070
  12.7323680  46.8145140  15.1360190  12.4465190  46.4010280  14.3214370
  12.5343230  47.7432850  15.0160710   4.1970910  42.8078420  13.5765800
   4.0921550  42.1930770  14.3027180   4.0295130  42.2844310  12.7928810
   4.3485230  41.4935220  29.5555030   3.5830900  42.0620220  29.4709700
   4.5301190  41.2011430  28.6623260   7.4373640  41.8698450  14.1807790
   6.8883740  42.3167750  14.8250530   8.0592900  41.3647700  14.7045460
  11.4908580  43.2240550  30.1130050  12.2318050  43.5616310  29.6097510
  10.7281260  43.3932610  29.5599820   3.1048760  40.8289370  16.0773090
   3.5265180  40.6629240  16.9204480   3.2299600  40.0189600  15.5828230
   5.6176400  39.8526980  13.3250190   6.1382060  39.1376000  12.9591340
   6.2644800  40.4912850  13.6250700  10.1654240  41.2755380  28.6485260
  10.5795260  41.4300460  29.4975680   9.2305240  41.4010600  28.8111040
  10.6376410  38.6151540  30.6524410  11.2197180  37.8603860  30.5644890
  10.8138180  39.1458980  29.8755890   4.5209920  32.3321530  25.9968750
   4.0727220  32.3545790  25.1514300   3.8875120  31.9340550  26.5939050
   4.9269470  41.2275860  26.6181190   5.3457580  42.0708590  26.4457430
   4.0078100  41.3647900  26.3887970   7.2633370  38.9592040  28.0019030
   7.3829580  38.3633180  28.7413870   8.1227370  38.9961730  27.5820330
   9.6021270  39.5129230  26.5781540   9.0756490  40.0371850  25.9746680
   9.9452610  40.1456620  27.2091270   2.0007660  36.9022600  13.0231250
   1.7996720  36.0389960  13.3844590   1.8299710  36.8155960  12.0852850
   2.7776890  47.5328870  27.7338920   2.2397980  48.2574930  27.4147620
   3.0310850  47.0559210  26.9436260   4.0302140  35.5013390  29.2594850
   4.6201830  35.1929240  29.9472670   3.2122380  35.0293140  29.4154750
   8.8495570  35.1179200  29.4927870   8.1611090  34.4560740  29.4277860
   9.5701590  34.6717470  29.9376330   9.4795970  31.7130830  15.5518130
   9.7598260  30.8698730  15.9077550   8.7061700  31.9453940  16.0656880
   5.6339100  48.7680080  27.9925570   5.5597800  49.6715220  28.2997940
   4.7317940  48.4491980  27.9647640   4.0175390  32.9457840  13.9965330
   3.6697390  32.2681830  13.4167780   4.2188160  32.4847350  14.8108720
   6.1824430  47.9338590  15.6151930   7.0775220  48.2723560  15.6370690
   6.2142060  47.2118000  14.9876210  13.1618780  46.4642260  28.3218130
  12.5620770  46.5234820  27.5782050  13.2912680  45.5247240  28.4514980
  14.4020230  44.2060080  13.6587840  13.5713190  44.2736730  14.1295070
  14.5792060  45.0964200  13.3554700  13.8576690  40.9507560  16.1622040
  14.6195600  41.5204210  16.2681730  13.8731060  40.3834760  16.9330350
  14.8636660  41.8057660  21.0063970  15.2345490  41.0224980  20.5999940
  15.5038590  42.4946760  20.8281270  11.8470420  43.1894240  26.4194290
  11.0330260  43.6191400  26.6820080  12.2544620  43.8012650  25.8063340
  13.9095860  41.2441930  13.3194560  14.1844700  42.1520810  13.1913780
  13.7206600  41.1804460  14.2556550  10.3071470  34.2686780  14.6148190
  10.7256350  34.0817760  13.7744850  10.0007530  33.4165830  14.9251120
  13.8061200  39.1810920  18.3123990  13.4304800  38.4138850  17.8805280
  13.0764320  39.5633620  18.7998920  13.1960820  38.3282440  27.9463510
  12.9646910  38.0995190  27.0461460  13.4565370  39.2481990  27.9008400
  11.6348890  33.5538870  30.7243210  12.5119070  33.5622270  31.1077210
  11.6469730  32.8169710  30.1135560  13.0812160  37.4068410  21.6131230
  13.6049640  36.9131060  20.9821400  13.6671580  37.5418770  22.3578800
  13.2601880  37.4908280  25.1350780  12.3104590  37.4571820  25.2495770
  13.4414890  38.4008390  24.9000550  12.5712130  36.6641760  17.5523640
  13.0671250  36.4312630  18.3372520  12.3728200  35.8253600  17.1361280
  13.9999290  35.3002710  20.0861320  13.8898570  35.1458750  21.0243590
  14.7606880  34.7723650  19.8436730  12.3465010  31.2396840  26.5444320
  12.9837230  31.8530980  26.9103510  12.4939900  31.2757500  25.5993550
  14.8889560  33.1310630  13.3267460  15.8138870  32.9991810  13.1185750
  14.8665350  33.2103450  14.2803910  14.9628050  33.9021290  15.9524170
  14.1679550  33.8366410  16.4817080  15.1671330  34.8371930  15.9409520
  11.9046470  47.9412840  19.9462560  12.5005540  47.6197410  19.2696980
  12.1624620  47.4684660  20.7375830   3.5115070  45.9290340  25.6962910
   3.2706430  46.1964900  24.8093430   4.4517710  46.0996070  25.7513770
   5.7169490  32.3923030  29.4519420   5.6558380  32.9844860  30.2014830
   6.6569870  32.2848990  29.3069680   8.3544050  32.0493090  29.0911710
   8.9684460  32.3672380  28.4292790   8.8993610  31.5641680  29.7107570
  14.7719230  47.9484720  26.4973550  14.2777510  48.3453590  25.7800680
  14.1632520  47.3233930  26.8910830   9.0952090  30.6125230  25.4181000
   8.2211930  30.9460340  25.2153930   8.9862840  30.1398410  26.2432870
  10.0024070  32.8196100  26.8022720   9.6737430  32.0047860  26.4224450
  10.9506370  32.7765910  26.6788410  12.4558680  48.5908140  23.7760290
  11.9961650  49.3423950  23.4018310  11.8271140  47.8714610  23.7175090
   2.8854400  46.8996380  22.9508420   3.4019420  46.2883740  22.4256680
   3.5351780  47.4025160  23.4419430   5.6249900  47.7904870  23.7777400
   5.9127710  47.5359170  22.9010410   6.1373120  47.2382230  24.3682970
   6.8426910  31.5295070  24.3573910   6.0598700  32.0040570  24.6370670
   6.5489840  30.6249900  24.2487090  11.3947980  32.2318170  22.4023000
  11.8356070  32.1763270  21.5544600  11.1255570  33.1476180  22.4733180
  13.2586550  31.8633410  20.4131820  13.1974950  30.9194630  20.2662840
  14.0378580  31.9713500  20.9585280   4.7281130  33.9481820  19.8689940
   3.9155640  33.5738710  19.5285820   5.2322770  33.1926900  20.1711130
   9.2306110  30.6124270  21.1073010   9.8335480  31.1844480  21.5821530
   8.4899100  31.1763710  20.8846910  12.3740710  31.0145830  16.3813290
  12.5691340  31.9129280  16.6480720  11.5870580  30.7832910  16.8746240
   2.7530310  32.0981740  18.4734990   2.1233050  31.3969050  18.6405120
   2.2135450  32.8585870  18.2568150   5.6922260  48.7120970  31.1445600
   6.6189570  48.4765240  31.1881560   5.6772690  49.5392970  30.6631630
  13.9267320  48.2546540  18.1419850  14.1019510  47.5684280  17.4980770
  13.2288890  48.7793590  17.7496520   2.8785870  31.3765720  30.9087480
   2.5970140  31.8799320  30.1448300   3.2605570  30.5787470  30.5429610
   1.7694970  48.6441380  15.6955160   2.5013790  48.3600660  15.1479050
   2.0288640  48.4054660  16.5854540   9.4801330  30.7919300  31.4867950
   9.3666780  31.1113910  32.3819470  10.2971070  31.1931810  31.1905230
  12.2599820  47.9390830  30.9686640  13.0525140  47.4440060  30.7612600
  12.5532970  48.6180970  31.5762250   6.5177520  40.5890790   3.7311960
   5.7419620  40.1091230   4.0210530   7.1690450  39.9096440   3.5568120
  10.5384950  44.9950980   2.5111090  10.0766480  44.2238220   2.8398260
  11.3510500  45.0217050   3.0163540   5.9586510  43.2647980   3.7382120
   5.8894790  42.3237920   3.5771250   6.7206370  43.3549390   4.3104690
   6.9891680  36.0718360   3.9651050   7.3656500  35.1990240   3.8524720
   6.8911190  36.4077060   3.0741490   2.9604420  37.4130360   3.7593670
   3.4682640  37.9111330   4.3998690   3.4917660  36.6365560   3.5833030
  15.0615350  35.5835550   7.4623020  14.3567520  35.9717260   6.9438130
  15.3273270  36.2785840   8.0643950   2.4943370  41.6924100   6.2030590
   2.1612750  42.3193020   6.8451660   2.6710050  42.2185980   5.4232260
  11.0077280  35.5069180   3.6706930  10.3032850  35.7954070   4.2510040
  11.3689440  36.3169290   3.3106490  12.6240060  45.1244310   5.9334410
  11.9403580  45.7943420   5.9251080  13.1634350  45.3224960   5.1679270
  14.0764200  34.9523970   4.0616140  13.1289110  34.9862950   4.1931570
  14.4014190  35.7662920   4.4465500  10.1598800  46.9688440   4.6479590
  10.1725960  46.5650730   3.7801850   9.6074020  47.7435730   4.5441020
   9.5584240  41.8718280   5.9762200   9.9753030  41.6578390   5.1415660
  10.2824060  42.1291070   6.5470820  13.5046340  40.2705500   6.0678440
  12.6764970  40.3398590   5.5928570  14.0996820  40.8559810   5.5994270
  10.4688350  37.0574820   7.0133310  10.0559530  37.8828530   7.2673300
   9.7364300  36.4719860   6.8209670   3.0702840  43.5302280   4.0391190
   2.7731130  42.9247750   3.3598970   4.0202660  43.5679590   3.9280550
  11.1588450  47.1034150   7.7014290  10.6819010  47.9106340   7.5086900
  10.4750240  46.4512480   7.8540500   2.7872840  46.0818990  11.4741510
   2.7588270  46.4861940  10.6069940   2.6237810  45.1529350  11.3113110
  14.7387660  46.8646090  12.7705680  15.2147380  47.3428980  13.4494760
  15.3594820  46.7963580  12.0451180  14.1420910  44.0558940   9.9305690
  14.2683970  43.8170820   9.0122870  14.1842290  43.2243480  10.4027770
   8.0037650  47.7586940   8.5000500   8.5182320  47.6694950   9.3022930
   7.1606730  48.1046640   8.7928410  13.9944920  36.1091400  10.8955430
  13.3789190  36.6171070  10.3670890  13.6741340  35.2089730  10.8381370
   6.0559240  34.9483290   8.3617620   5.5938610  35.1566310   9.1737560
   5.6537350  34.1342640   8.0588290  11.0563750  36.1692240   9.4914280
  10.2057340  35.8697990   9.8123350  10.8965540  36.4134250   8.5798100
   8.1513460  37.6693990  11.5913070   8.4766870  36.8357740  11.2515300
   8.9393790  38.1922510  11.7391400   3.8065330  32.6262100   4.6171900
   4.1037660  33.5324930   4.5363920   4.3550890  32.1380880   4.0031470
   4.0002860  38.1033920  11.1523820   3.9046460  37.1628650  11.0024220
   4.8434840  38.3248990  10.7571890   5.7058450  34.5982560  12.3754340
   5.0156770  34.4054760  13.0100430   6.4490750  34.8817200  12.9078640
   7.9821420  38.4381000   5.2108260   7.2502540  38.9467810   5.5598360
   7.5845760  37.6210980   4.9097040   4.4198810  35.1135200   3.6160750
   4.4234870  34.6725150   2.7665290   5.3149930  35.4352530   3.7232570
   8.4447330  33.8914680   4.6231200   8.4620070  34.3423330   5.4673050
   8.1962910  32.9920320   4.8364640  11.8718080  31.3046860  10.4617580
  12.1963850  30.5736520  10.9875560  11.9074590  30.9860500   9.5598570
   4.7206780  39.1736980   5.3626160   5.0876910  38.6995550   6.1087500
   4.5311840  40.0478550   5.7034500   2.5106150  38.2145620   7.6810370
   2.2063220  39.0937600   7.9060730   3.4652610  38.2745410   7.7167810
  11.7975920  41.4171970   4.0703610  12.5175040  41.9127260   3.6799720
  11.5957740  40.7389860   3.4257480   7.1794720  41.4881030   9.9572610
   7.1132030  40.5676700   9.7030200   6.5499860  41.5856470  10.6717250
   1.7683000  39.5132600  11.7121280   1.4683140  39.6589780  10.8149100
   2.5394240  38.9537890  11.6194670   7.1111450  44.3101600   9.7076410
   7.1255990  43.3782560   9.4895320   6.4036550  44.3961360  10.3466180
  13.3222660  40.9508940   9.0544990  12.5970850  41.5437720   8.8574380
  13.8498120  40.9432480   8.2558360   8.8522250  42.6769110   2.5528840
   9.2046070  42.0797240   1.8930210   7.9684580  42.3513340   2.7237090
   6.5445350  45.9519170   6.8016910   7.1887570  46.1578550   7.4790330
   6.9074790  45.1907570   6.3487760   7.8177430  43.9551520   5.5194360
   8.4599660  43.2544680   5.6326530   8.3426780  44.7349960   5.3391250
   9.5915050  44.7546420   8.7230420   9.9271290  45.3413110   9.4008340
   8.6715390  44.6239130   8.9528210   5.4203630  44.8037750  11.8918480
   5.1000500  44.0846990  12.4364170   4.7461990  45.4792820  11.9654540
   8.6357230  35.0363910   7.2555280   9.0038050  34.2159120   7.5834850
   7.7755430  35.0965800   7.6710930   5.5959220  37.6903500   7.4793250
   6.0944470  38.1649320   8.1445100   5.7382170  36.7667020   7.6863280
  12.8026080  33.9071460   8.3221640  12.2999680  34.6476860   8.6615450
  13.6182740  34.2955460   8.0058430  11.0948090  39.1504640   1.7683000
  10.1538230  39.1654870   1.9430690  11.4092160  38.3640600   2.2143300
  13.0973670  46.3213490   3.4437260  13.2221090  47.1444660   3.9161070
  13.9639230  46.1104220   3.0961410   8.4114110  43.7070640  12.2515380
   7.8052270  43.7302240  11.5111130   8.1068220  42.9753680  12.7882630
   9.8414480  47.4350930  10.8624790  10.7936230  47.3508950  10.8125030
   9.6942700  48.0992640  11.5358580   4.3485230  41.4935220  10.7811540
   3.5830900  42.0620220  10.6966210   4.5301190  41.2011430   9.8879770
  11.4908580  43.2240550  11.3386560  12.2318050  43.5616310  10.8354020
  10.7281260  43.3932610  10.7856330  10.1654240  41.2755380   9.8741770
  10.5795260  41.4300460  10.7232190   9.2305240  41.4010600  10.0367550
  10.6376410  38.6151540  11.8780920  11.2197180  37.8603860  11.7901400
  10.8138180  39.1458980  11.1012400   4.5209920  32.3321530   7.2225260
   4.0727220  32.3545790   6.3770810   3.8875120  31.9340550   7.8195560
   4.9269470  41.2275860   7.8437700   5.3457580  42.0708590   7.6713940
   4.0078100  41.3647900   7.6144480   7.2633370  38.9592040   9.2275540
   7.3829580  38.3633180   9.9670380   8.1227370  38.9961730   8.8076840
   9.6021270  39.5129230   7.8038050   9.0756490  40.0371850   7.2003190
   9.9452610  40.1456620   8.4347780   2.7776890  47.5328870   8.9595430
   2.2397980  48.2574930   8.6404130   3.0310850  47.0559210   8.1692770
   4.0302140  35.5013390  10.4851360   4.6201830  35.1929240  11.1729180
   3.2122380  35.0293140  10.6411260   8.8495570  35.1179200  10.7184380
   8.1611090  34.4560740  10.6534370   9.5701590  34.6717470  11.1632840
   5.6339100  48.7680080   9.2182080   5.5597800  49.6715220   9.5254450
   4.7317940  48.4491980   9.1904150  13.1618780  46.4642260   9.5474640
  12.5620770  46.5234820   8.8038560  13.2912680  45.5247240   9.6771490
  14.8636660  41.8057660   2.2320480  15.2345490  41.0224980   1.8256450
  15.5038590  42.4946760   2.0537780  11.8470420  43.1894240   7.6450800
  11.0330260  43.6191400   7.9076590  12.2544620  43.8012650   7.0319850
  13.1960820  38.3282440   9.1720020  12.9646910  38.0995190   8.2717970
  13.4565370  39.2481990   9.1264910  11.6348890  33.5538870  11.9499720
  12.5119070  33.5622270  12.3333720  11.6469730  32.8169710  11.3392070
  13.0812160  37.4068410   2.8387740  13.6049640  36.9131060   2.2077910
  13.6671580  37.5418770   3.5835310  13.2601880  37.4908280   6.3607290
  12.3104590  37.4571820   6.4752280  13.4414890  38.4008390   6.1257060
  12.3465010  31.2396840   7.7700830  12.9837230  31.8530980   8.1360020
  12.4939900  31.2757500   6.8250060   3.5115070  45.9290340   6.9219420
   3.2706430  46.1964900   6.0349940   4.4517710  46.0996070   6.9770280
   5.7169490  32.3923030  10.6775930   5.6558380  32.9844860  11.4271340
   6.6569870  32.2848990  10.5326190   8.3544050  32.0493090  10.3168220
   8.9684460  32.3672380   9.6549300   8.8993610  31.5641680  10.9364080
  14.7719230  47.9484720   7.7230060  14.2777510  48.3453590   7.0057190
  14.1632520  47.3233930   8.1167340   9.0952090  30.6125230   6.6437510
   8.2211930  30.9460340   6.4410440   8.9862840  30.1398410   7.4689380
  10.0024070  32.8196100   8.0279230   9.6737430  32.0047860   7.6480960
  10.9506370  32.7765910   7.9044920  12.4558680  48.5908140   5.0016800
  11.9961650  49.3423950   4.6274820  11.8271140  47.8714610   4.9431600
   2.8854400  46.8996380   4.1764930   3.4019420  46.2883740   3.6513190
   3.5351780  47.4025160   4.6675940   5.6249900  47.7904870   5.0033910
   5.9127710  47.5359170   4.1266920   6.1373120  47.2382230   5.5939480
   6.8426910  31.5295070   5.5830420   6.0598700  32.0040570   5.8627180
   6.5489840  30.6249900   5.4743600  11.3947980  32.2318170   3.6279510
  11.8356070  32.1763270   2.7801110  11.1255570  33.1476180   3.6989690
   9.2306110  30.6124270   2.3329520   9.8335480  31.1844480   2.8078040
   8.4899100  31.1763710   2.1103420   5.6922260  48.7120970  12.3702110
   6.6189570  48.4765240  12.4138070   5.6772690  49.5392970  11.8888140
   2.8785870  31.3765720  12.1343990   2.5970140  31.8799320  11.3704810
   3.2605570  30.5787470  11.7686120   9.4801330  30.7919300  12.7124460
   9.3666780  31.1113910  13.6075980  10.2971070  31.1931810  12.4161740
  12.2599820  47.9390830  12.1943150  13.0525140  47.4440060  11.9869110
  12.5532970  48.6180970  12.8018760   8.3859480  20.0368280  58.1733160
   8.3053530  19.1222890  57.9024870   7.9723900  20.5335350  57.4672870
   6.5177520  21.8147300  60.0542430   5.7419620  21.3347740  60.3441000
   7.1690450  21.1352950  59.8798590  10.5384950  26.2207490  58.8341560
  10.0766480  25.4494730  59.1628730  11.3510500  26.2473560  59.3394010
   6.7648260  28.5065500  58.4545550   6.1459700  28.9623000  57.8839990
   7.6200040  28.6616960  58.0535250   5.9586510  24.4904490  60.0612590
   5.8894790  23.5494430  59.9001720   6.7206370  24.5805900  60.6335160
   6.9891680  17.2974870  60.2881520   7.3656500  16.4246750  60.1755190
   6.8911190  17.6333570  59.3971960  10.7715800  14.7925310  57.2209860
  11.5925420  14.3021880  57.2635340  10.8049880  15.3822970  57.9741700
   2.9604420  18.6386870  60.0824140   3.4682640  19.1367840  60.7229160
   3.4917660  17.8622070  59.9063500   7.6311610  23.3904740  55.8477460
   7.0128880  23.8554190  55.2840180   8.1434860  24.0832220  56.2646970
  11.0077280  16.7325690  59.9937400  10.3032850  17.0210580  60.5740510
  11.3689440  17.5425800  59.6336960  14.0764200  16.1780480  60.3846610
  13.1289110  16.2119460  60.5162040  14.4014190  16.9919430  60.7695970
   4.6083740  12.4777660  58.6802600   4.9158720  11.9224550  57.9638100
   3.6784440  12.6122120  58.4975590  10.1598800  28.1944950  60.9710060
  10.1725960  27.7907240  60.1032320   9.6074020  28.9692240  60.8671490
  11.4544220  24.9161170  56.0600230  11.3440550  23.9735500  56.1849650
  11.4512470  25.2776810  56.9462990   6.9964500  20.5426490  55.4162720
   6.0693780  20.4763870  55.6451190   7.1489320  21.4806620  55.3017960
   6.9833580  16.8143490  52.4129880   6.0437250  16.9757450  52.4982340
   7.3016840  17.5329170  51.8665870  11.0261790  22.1046790  55.9197970
  10.4074210  21.7666340  55.2724270  11.0086240  21.4606550  56.6277160
   2.6021140  21.0691230  58.1982450   2.1978140  20.3568480  57.7028350
   2.6884260  20.7244470  59.0870490   3.0702840  24.7558790  60.3621660
   2.7731130  24.1504260  59.6829440   4.0202660  24.7936100  60.2511020
   9.2026490  21.3433600  52.9270720   9.6419770  20.5056030  52.7808540
   9.9154910  21.9763000  53.0134860   7.3121870  26.2829670  56.8951960
   7.7517780  27.0254000  56.4807350   7.2508760  26.5256240  57.8190920
  12.7843630  12.5976410  51.2411760  12.4716290  12.6903240  52.1410830
  13.5456100  13.1757440  51.1909190   9.9792050  29.2698790  54.2514970
   9.8193190  28.9801730  55.1496800   9.8138760  28.4938920  53.7160200
   2.4580430  29.0497320  56.0286590   2.2822910  28.1332860  55.8154390
   1.6036170  29.4084610  56.2684390   9.6818180  26.7786350  52.8112970
   8.9883340  26.7763640  52.1515250  10.4241040  26.3545670  52.3807140
   9.2468110  28.4049060  56.8861460   9.7025060  27.6238440  57.2000080
   9.5860630  29.1155880  57.4302640   4.8848250  12.9281980  53.9618600
   4.2602430  12.9241850  54.6871910   4.7978370  12.0612940  53.5654570
   3.8065330  13.8518610  60.9402370   4.1037660  14.7581440  60.8594390
   4.3550890  13.3637390  60.3261940   8.7901410  18.4368220  55.4084670
   8.1910300  19.1604020  55.2248290   9.3381020  18.3745000  54.6261120
   7.3966280  17.0731760  57.4387950   7.7895850  17.3903960  56.6256640
   7.7583130  16.1943640  57.5532470   4.4198810  16.3391710  59.9391220
   4.4234870  15.8981660  59.0895760   5.3149930  16.6609040  60.0463040
   4.4818960  17.3403790  52.9297980   4.6031780  17.2990270  53.8783800
   4.0967470  18.2027940  52.7744710   3.4940460  19.6504930  52.3281280
   2.9257360  19.2023180  51.7017190   4.2029460  20.0097710  51.7946430
  11.7975920  22.6428480  60.3934080  12.5175040  23.1383770  60.0030190
  11.5957740  21.9646370  59.7487950   7.2585860  14.0366440  54.5363470
   6.4450470  13.5379610  54.4608780   7.0647810  14.8764690  54.1199820
   9.9734250  18.4086090  52.8325630  10.8613870  18.7203320  52.6576970
   9.9439340  17.5358340  52.4406210   5.9694840  24.5809780  53.5113800
   6.3110540  25.3252010  53.0157120   5.1407550  24.8940900  53.8738630
  12.2448520  19.7197930  52.3005490  12.1612240  20.1512150  51.4501930
  12.9642710  20.1796280  52.7332310  13.2735770  26.5740190  55.0287620
  12.6311930  25.9195810  55.3031340  12.8866430  26.9795280  54.2528290
   8.8522250  23.9025620  58.8759310   9.2046070  23.3053750  58.2160680
   7.9684580  23.5769850  59.0467560   4.9385530  24.6623310  56.2829720
   5.6256660  25.2092520  56.6637310   4.1517950  25.2064040  56.3179330
   4.2412740  21.6669340  55.8955080   4.6975520  22.4774590  56.1215270
   3.8900950  21.3492480  56.7273570  11.6633150  25.4656650  51.5663970
  11.4370730  24.7487090  52.1588610  11.2729350  25.2169090  50.7285720
  11.2449400  23.3828590  53.2278130  10.9571100  23.8441280  54.0156010
  12.0401570  22.9226360  53.4962350   3.4617800  26.8754710  53.1582100
   3.4527900  27.6084400  52.5426610   2.5416160  26.6286290  53.2509060
  12.0019260  15.2177360  54.3873310  11.3732420  15.3223030  53.6731540
  11.5071180  15.4374140  55.1767190   6.4477400  26.9382950  51.8207290
   6.5489380  26.7346940  50.8909270   5.5479140  26.6841230  52.0255070
   3.9703290  17.4963310  55.8031190   3.2619440  17.9649650  56.2444800
   4.2547770  16.8385320  56.4376380   8.0018720  14.2213970  57.2426980
   7.8786500  14.2400100  56.2936490   8.9503280  14.2692910  57.3625380
   5.0895510  29.4569270  56.5154960   5.3437010  29.4190660  55.5934330
   4.1407990  29.3302600  56.5083210   2.1738310  15.8048390  53.1781900
   3.0228840  16.2418540  53.1122090   1.8069580  16.1168650  54.0053960
  11.0948090  20.3761150  58.0913470  10.1538230  20.3911380  58.2661160
  11.4092160  19.5897110  58.5373770  13.0973670  27.5470000  59.7667730
  13.2221090  28.3701170  60.2391540  13.9639230  27.3360730  59.4191880
   3.6793510  28.8131520  51.2610430   4.4722120  29.1020350  50.8092220
   3.1597860  28.3823690  50.5822910  12.7323680  28.0401650  52.6847170
  12.4465190  27.6266790  51.8701350  12.5343230  28.9689360  52.5647690
   4.1970910  24.0334930  51.1252780   4.0921550  23.4187280  51.8514160
   4.0295130  23.5100820  50.3415790   7.4373640  23.0954960  51.7294770
   6.8883740  23.5424260  52.3737510   8.0592900  22.5904210  52.2532440
   3.1048760  22.0545880  53.6260070   3.5265180  21.8885750  54.4691460
   3.2299600  21.2446110  53.1315210   5.6176400  21.0783490  50.8737170
   6.1382060  20.3632510  50.5078320   6.2644800  21.7169360  51.1737680
   2.0007660  18.1279110  50.5718230   1.7996720  17.2646470  50.9331570
   1.8299710  18.0412470  49.6339830   9.4795970  12.9387340  53.1005110
   9.7598260  12.0955240  53.4564530   8.7061700  13.1710450  53.6143860
   4.0175390  14.1714350  51.5452310   3.6697390  13.4938340  50.9654760
   4.2188160  13.7103860  52.3595700   6.1824430  29.1595100  53.1638910
   7.0775220  29.4980070  53.1857670   6.2142060  28.4374510  52.5363190
  14.4020230  25.4316590  51.2074820  13.5713190  25.4993240  51.6782050
  14.5792060  26.3220710  50.9041680  13.8576690  22.1764070  53.7109020
  14.6195600  22.7460720  53.8168710  13.8731060  21.6091270  54.4817330
  14.8636660  23.0314170  58.5550950  15.2345490  22.2481490  58.1486920
  15.5038590  23.7203270  58.3768250  13.9095860  22.4698440  50.8681540
  14.1844700  23.3777320  50.7400760  13.7206600  22.4060970  51.8043530
  10.3071470  15.4943290  52.1635170  10.7256350  15.3074270  51.3231830
  10.0007530  14.6422340  52.4738100  13.8061200  20.4067430  55.8610970
  13.4304800  19.6395360  55.4292260  13.0764320  20.7890130  56.3485900
  13.0812160  18.6324920  59.1618210  13.6049640  18.1387570  58.5308380
  13.6671580  18.7675280  59.9065780  12.5712130  17.8898270  55.1010620
  13.0671250  17.6569140  55.8859500  12.3728200  17.0510110  54.6848260
  13.9999290  16.5259220  57.6348300  13.8898570  16.3715260  58.5730570
  14.7606880  15.9980160  57.3923710  14.8889560  14.3567140  50.8754440
  15.8138870  14.2248320  50.6672730  14.8665350  14.4359960  51.8290890
  14.9628050  15.1277800  53.5011150  14.1679550  15.0622920  54.0304060
  15.1671330  16.0628440  53.4896500  11.9046470  29.1669350  57.4949540
  12.5005540  28.8453920  56.8183960  12.1624620  28.6941170  58.2862810
  12.4558680  29.8164650  61.3247270  11.9961650  30.5680460  60.9505290
  11.8271140  29.0971120  61.2662070   2.8854400  28.1252890  60.4995400
   3.4019420  27.5140250  59.9743660   3.5351780  28.6281670  60.9906410
  11.3947980  13.4574680  59.9509980  11.8356070  13.4019780  59.1031580
  11.1255570  14.3732690  60.0220160  13.2586550  13.0889920  57.9618800
  13.1974950  12.1451140  57.8149820  14.0378580  13.1970010  58.5072260
   4.7281130  15.1738330  57.4176920   3.9155640  14.7995220  57.0772800
   5.2322770  14.4183410  57.7198110   9.2306110  11.8380780  58.6559990
   9.8335480  12.4100990  59.1308510   8.4899100  12.4020220  58.4333890
  12.3740710  12.2402340  53.9300270  12.5691340  13.1385790  54.1967700
  11.5870580  12.0089420  54.4233220   2.7530310  13.3238250  56.0221970
   2.1233050  12.6225560  56.1892100   2.2135450  14.0842380  55.8055130
  13.9267320  29.4803050  55.6906830  14.1019510  28.7940790  55.0467750
  13.2288890  30.0050100  55.2983500   1.7694970  29.8697890  53.2442140
   2.5013790  29.5857170  52.6966030   2.0288640  29.6311170  54.1341520
   8.3859480  20.0368280  39.3989670   8.3053530  19.1222890  39.1281380
   7.9723900  20.5335350  38.6929380   6.5177520  21.8147300  41.2798940
   5.7419620  21.3347740  41.5697510   7.1690450  21.1352950  41.1055100
  10.5384950  26.2207490  40.0598070  10.0766480  25.4494730  40.3885240
  11.3510500  26.2473560  40.5650520   6.7648260  28.5065500  39.6802060
   6.1459700  28.9623000  39.1096500   7.6200040  28.6616960  39.2791760
   5.9586510  24.4904490  41.2869100   5.8894790  23.5494430  41.1258230
   6.7206370  24.5805900  41.8591670   6.9891680  17.2974870  41.5138030
   7.3656500  16.4246750  41.4011700   6.8911190  17.6333570  40.6228470
  10.7715800  14.7925310  38.4466370  11.5925420  14.3021880  38.4891850
  10.8049880  15.3822970  39.1998210   2.9604420  18.6386870  41.3080650
   3.4682640  19.1367840  41.9485670   3.4917660  17.8622070  41.1320010
  15.0615350  16.8092060  45.0110000  14.3567520  17.1973770  44.4925110
  15.3273270  17.5042350  45.6130930   7.6311610  23.3904740  37.0733970
   7.0128880  23.8554190  36.5096690   8.1434860  24.0832220  37.4903480
   2.4943370  22.9180610  43.7517570   2.1612750  23.5449530  44.3938640
   2.6710050  23.4442490  42.9719240  11.0077280  16.7325690  41.2193910
  10.3032850  17.0210580  41.7997020  11.3689440  17.5425800  40.8593470
  12.6240060  26.3500820  43.4821390  11.9403580  27.0199930  43.4738060
  13.1634350  26.5481470  42.7166250  14.0764200  16.1780480  41.6103120
  13.1289110  16.2119460  41.7418550  14.4014190  16.9919430  41.9952480
   4.6083740  12.4777660  39.9059110   4.9158720  11.9224550  39.1894610
   3.6784440  12.6122120  39.7232100  10.1598800  28.1944950  42.1966570
  10.1725960  27.7907240  41.3288830   9.6074020  28.9692240  42.0928000
  11.4544220  24.9161170  37.2856740  11.3440550  23.9735500  37.4106160
  11.4512470  25.2776810  38.1719500   9.5584240  23.0974790  43.5249180
   9.9753030  22.8834900  42.6902640  10.2824060  23.3547580  44.0957800
   6.9964500  20.5426490  36.6419230   6.0693780  20.4763870  36.8707700
   7.1489320  21.4806620  36.5274470   6.9833580  16.8143490  33.6386390
   6.0437250  16.9757450  33.7238850   7.3016840  17.5329170  33.0922380
  13.5046340  21.4962010  43.6165420  12.6764970  21.5655100  43.1415550
  14.0996820  22.0816320  43.1481250  11.0261790  22.1046790  37.1454480
  10.4074210  21.7666340  36.4980780  11.0086240  21.4606550  37.8533670
  10.4688350  18.2831330  44.5620290  10.0559530  19.1085040  44.8160280
   9.7364300  17.6976370  44.3696650   2.6021140  21.0691230  39.4238960
   2.1978140  20.3568480  38.9284860   2.6884260  20.7244470  40.3127000
   3.0702840  24.7558790  41.5878170   2.7731130  24.1504260  40.9085950
   4.0202660  24.7936100  41.4767530  11.1588450  28.3290660  45.2501270
  10.6819010  29.1362850  45.0573880  10.4750240  27.6768990  45.4027480
   9.2026490  21.3433600  34.1527230   9.6419770  20.5056030  34.0065050
   9.9154910  21.9763000  34.2391370   7.3121870  26.2829670  38.1208470
   7.7517780  27.0254000  37.7063860   7.2508760  26.5256240  39.0447430
   2.7872840  27.3075500  49.0228490   2.7588270  27.7118450  48.1556920
   2.6237810  26.3785860  48.8600090  12.7843630  12.5976410  32.4668270
  12.4716290  12.6903240  33.3667340  13.5456100  13.1757440  32.4165700
  14.7387660  28.0902600  50.3192660  15.2147380  28.5685490  50.9981740
  15.3594820  28.0220090  49.5938160  14.1420910  25.2815450  47.4792670
  14.2683970  25.0427330  46.5609850  14.1842290  24.4499990  47.9514750
   8.0037650  28.9843450  46.0487480   8.5182320  28.8951460  46.8509910
   7.1606730  29.3303150  46.3415390   9.9792050  29.2698790  35.4771480
   9.8193190  28.9801730  36.3753310   9.8138760  28.4938920  34.9416710
   2.4580430  29.0497320  37.2543100   2.2822910  28.1332860  37.0410900
   1.6036170  29.4084610  37.4940900   9.6818180  26.7786350  34.0369480
   8.9883340  26.7763640  33.3771760  10.4241040  26.3545670  33.6063650
   9.2468110  28.4049060  38.1117970   9.7025060  27.6238440  38.4256590
   9.5860630  29.1155880  38.6559150  13.9944920  17.3347910  48.4442410
  13.3789190  17.8427580  47.9157870  13.6741340  16.4346240  48.3868350
   6.0559240  16.1739800  45.9104600   5.5938610  16.3822820  46.7224540
   5.6537350  15.3599150  45.6075270  11.0563750  17.3948750  47.0401260
  10.2057340  17.0954500  47.3610330  10.8965540  17.6390760  46.1285080
   8.1513460  18.8950500  49.1400050   8.4766870  18.0614250  48.8002280
   8.9393790  19.4179020  49.2878380   4.8848250  12.9281980  35.1875110
   4.2602430  12.9241850  35.9128420   4.7978370  12.0612940  34.7911080
   3.8065330  13.8518610  42.1658880   4.1037660  14.7581440  42.0850900
   4.3550890  13.3637390  41.5518450   8.7901410  18.4368220  36.6341180
   8.1910300  19.1604020  36.4504800   9.3381020  18.3745000  35.8517630
   4.0002860  19.3290430  48.7010800   3.9046460  18.3885160  48.5511200
   4.8434840  19.5505500  48.3058870   7.3966280  17.0731760  38.6644460
   7.7895850  17.3903960  37.8513150   7.7583130  16.1943640  38.7788980
   5.7058450  15.8239070  49.9241320   5.0156770  15.6311270  50.5587410
   6.4490750  16.1073710  50.4565620   7.9821420  19.6637510  42.7595240
   7.2502540  20.1724320  43.1085340   7.5845760  18.8467490  42.4584020
   4.4198810  16.3391710  41.1647730   4.4234870  15.8981660  40.3152270
   5.3149930  16.6609040  41.2719550   4.4818960  17.3403790  34.1554490
   4.6031780  17.2990270  35.1040310   4.0967470  18.2027940  34.0001220
   8.4447330  15.1171190  42.1718180   8.4620070  15.5679840  43.0160030
   8.1962910  14.2176830  42.3851620   3.4940460  19.6504930  33.5537790
   2.9257360  19.2023180  32.9273700   4.2029460  20.0097710  33.0202940
  11.8718080  12.5303370  48.0104560  12.1963850  11.7993030  48.5362540
  11.9074590  12.2117010  47.1085550   4.7206780  20.3993490  42.9113140
   5.0876910  19.9252060  43.6574480   4.5311840  21.2735060  43.2521480
   2.5106150  19.4402130  45.2297350   2.2063220  20.3194110  45.4547710
   3.4652610  19.5001920  45.2654790  11.7975920  22.6428480  41.6190590
  12.5175040  23.1383770  41.2286700  11.5957740  21.9646370  40.9744460
   7.2585860  14.0366440  35.7619980   6.4450470  13.5379610  35.6865290
   7.0647810  14.8764690  35.3456330   7.1794720  22.7137540  47.5059590
   7.1132030  21.7933210  47.2517180   6.5499860  22.8112980  48.2204230
   9.9734250  18.4086090  34.0582140  10.8613870  18.7203320  33.8833480
   9.9439340  17.5358340  33.6662720   5.9694840  24.5809780  34.7370310
   6.3110540  25.3252010  34.2413630   5.1407550  24.8940900  35.0995140
   1.7683000  20.7389110  49.2608260   1.4683140  20.8846290  48.3636080
   2.5394240  20.1794400  49.1681650   7.1111450  25.5358110  47.2563390
   7.1255990  24.6039070  47.0382300   6.4036550  25.6217870  47.8953160
  12.2448520  19.7197930  33.5262000  12.1612240  20.1512150  32.6758440
  12.9642710  20.1796280  33.9588820  13.3222660  22.1765450  46.6031970
  12.5970850  22.7694230  46.4061360  13.8498120  22.1688990  45.8045340
  13.2735770  26.5740190  36.2544130  12.6311930  25.9195810  36.5287850
  12.8866430  26.9795280  35.4784800   8.8522250  23.9025620  40.1015820
   9.2046070  23.3053750  39.4417190   7.9684580  23.5769850  40.2724070
   4.9385530  24.6623310  37.5086230   5.6256660  25.2092520  37.8893820
   4.1517950  25.2064040  37.5435840   4.2412740  21.6669340  37.1211590
   4.6975520  22.4774590  37.3471780   3.8900950  21.3492480  37.9530080
   6.5445350  27.1775680  44.3503890   7.1887570  27.3835060  45.0277310
   6.9074790  26.4164080  43.8974740   7.8177430  25.1808030  43.0681340
   8.4599660  24.4801190  43.1813510   8.3426780  25.9606470  42.8878230
  11.6633150  25.4656650  32.7920480  11.4370730  24.7487090  33.3845120
  11.2729350  25.2169090  31.9542230   9.5915050  25.9802930  46.2717400
   9.9271290  26.5669620  46.9495320   8.6715390  25.8495640  46.5015190
  11.2449400  23.3828590  34.4534640  10.9571100  23.8441280  35.2412520
  12.0401570  22.9226360  34.7218860   5.4203630  26.0294260  49.4405460
   5.1000500  25.3103500  49.9851150   4.7461990  26.7049330  49.5141520
   3.4617800  26.8754710  34.3838610   3.4527900  27.6084400  33.7683120
   2.5416160  26.6286290  34.4765570   8.6357230  16.2620420  44.8042260
   9.0038050  15.4415630  45.1321830   7.7755430  16.3222310  45.2197910
  12.0019260  15.2177360  35.6129820  11.3732420  15.3223030  34.8988050
  11.5071180  15.4374140  36.4023700   6.4477400  26.9382950  33.0463800
   6.5489380  26.7346940  32.1165780   5.5479140  26.6841230  33.2511580
   3.9703290  17.4963310  37.0287700   3.2619440  17.9649650  37.4701310
   4.2547770  16.8385320  37.6632890   5.5959220  18.9160010  45.0280230
   6.0944470  19.3905830  45.6932080   5.7382170  17.9923530  45.2350260
   8.0018720  14.2213970  38.4683490   7.8786500  14.2400100  37.5193000
   8.9503280  14.2692910  38.5881890   5.0895510  29.4569270  37.7411470
   5.3437010  29.4190660  36.8190840   4.1407990  29.3302600  37.7339720
   2.1738310  15.8048390  34.4038410   3.0228840  16.2418540  34.3378600
   1.8069580  16.1168650  35.2310470  12.8026080  15.1327970  45.8708620
  12.2999680  15.8733370  46.2102430  13.6182740  15.5211970  45.5545410
  11.0948090  20.3761150  39.3169980  10.1538230  20.3911380  39.4917670
  11.4092160  19.5897110  39.7630280  13.0973670  27.5470000  40.9924240
  13.2221090  28.3701170  41.4648050  13.9639230  27.3360730  40.6448390
   3.6793510  28.8131520  32.4866940   4.4722120  29.1020350  32.0348730
   3.1597860  28.3823690  31.8079420   8.4114110  24.9327150  49.8002360
   7.8052270  24.9558750  49.0598110   8.1068220  24.2010190  50.3369610
   9.8414480  28.6607440  48.4111770  10.7936230  28.5765460  48.3612010
   9.6942700  29.3249150  49.0845560  12.7323680  28.0401650  33.9103680
  12.4465190  27.6266790  33.0957860  12.5343230  28.9689360  33.7904200
   4.1970910  24.0334930  32.3509290   4.0921550  23.4187280  33.0770670
   4.0295130  23.5100820  31.5672300   4.3485230  22.7191730  48.3298520
   3.5830900  23.2876730  48.2453190   4.5301190  22.4267940  47.4366750
   7.4373640  23.0954960  32.9551280   6.8883740  23.5424260  33.5994020
   8.0592900  22.5904210  33.4788950  11.4908580  24.4497060  48.8873540
  12.2318050  24.7872820  48.3841000  10.7281260  24.6189120  48.3343310
   3.1048760  22.0545880  34.8516580   3.5265180  21.8885750  35.6947970
   3.2299600  21.2446110  34.3571720   5.6176400  21.0783490  32.0993680
   6.1382060  20.3632510  31.7334830   6.2644800  21.7169360  32.3994190
  10.1654240  22.5011890  47.4228750  10.5795260  22.6556970  48.2719170
   9.2305240  22.6267110  47.5854530  10.6376410  19.8408050  49.4267900
  11.2197180  19.0860370  49.3388380  10.8138180  20.3715490  48.6499380
   4.5209920  13.5578040  44.7712240   4.0727220  13.5802300  43.9257790
   3.8875120  13.1597060  45.3682540   4.9269470  22.4532370  45.3924680
   5.3457580  23.2965100  45.2200920   4.0078100  22.5904410  45.1631460
   7.2633370  20.1848550  46.7762520   7.3829580  19.5889690  47.5157360
   8.1227370  20.2218240  46.3563820   9.6021270  20.7385740  45.3525030
   9.0756490  21.2628360  44.7490170   9.9452610  21.3713130  45.9834760
   2.0007660  18.1279110  31.7974740   1.7996720  17.2646470  32.1588080
   1.8299710  18.0412470  30.8596340   2.7776890  28.7585380  46.5082410
   2.2397980  29.4831440  46.1891110   3.0310850  28.2815720  45.7179750
   4.0302140  16.7269900  48.0338340   4.6201830  16.4185750  48.7216160
   3.2122380  16.2549650  48.1898240   8.8495570  16.3435710  48.2671360
   8.1611090  15.6817250  48.2021350   9.5701590  15.8973980  48.7119820
   9.4795970  12.9387340  34.3261620   9.7598260  12.0955240  34.6821040
   8.7061700  13.1710450  34.8400370   5.6339100  29.9936590  46.7669060
   5.5597800  30.8971730  47.0741430   4.7317940  29.6748490  46.7391130
   4.0175390  14.1714350  32.7708820   3.6697390  13.4938340  32.1911270
   4.2188160  13.7103860  33.5852210   6.1824430  29.1595100  34.3895420
   7.0775220  29.4980070  34.4114180   6.2142060  28.4374510  33.7619700
  13.1618780  27.6898770  47.0961620  12.5620770  27.7491330  46.3525540
  13.2912680  26.7503750  47.2258470  14.4020230  25.4316590  32.4331330
  13.5713190  25.4993240  32.9038560  14.5792060  26.3220710  32.1298190
  13.8576690  22.1764070  34.9365530  14.6195600  22.7460720  35.0425220
  13.8731060  21.6091270  35.7073840  14.8636660  23.0314170  39.7807460
  15.2345490  22.2481490  39.3743430  15.5038590  23.7203270  39.6024760
  11.8470420  24.4150750  45.1937780  11.0330260  24.8447910  45.4563570
  12.2544620  25.0269160  44.5806830  13.9095860  22.4698440  32.0938050
  14.1844700  23.3777320  31.9657270  13.7206600  22.4060970  33.0300040
  10.3071470  15.4943290  33.3891680  10.7256350  15.3074270  32.5488340
  10.0007530  14.6422340  33.6994610  13.8061200  20.4067430  37.0867480
  13.4304800  19.6395360  36.6548770  13.0764320  20.7890130  37.5742410
  13.1960820  19.5538950  46.7207000  12.9646910  19.3251700  45.8204950
  13.4565370  20.4738500  46.6751890  11.6348890  14.7795380  49.4986700
  12.5119070  14.7878780  49.8820700  11.6469730  14.0426220  48.8879050
  13.0812160  18.6324920  40.3874720  13.6049640  18.1387570  39.7564890
  13.6671580  18.7675280  41.1322290  13.2601880  18.7164790  43.9094270
  12.3104590  18.6828330  44.0239260  13.4414890  19.6264900  43.6744040
  12.5712130  17.8898270  36.3267130  13.0671250  17.6569140  37.1116010
  12.3728200  17.0510110  35.9104770  13.9999290  16.5259220  38.8604810
  13.8898570  16.3715260  39.7987080  14.7606880  15.9980160  38.6180220
  12.3465010  12.4653350  45.3187810  12.9837230  13.0787490  45.6847000
  12.4939900  12.5014010  44.3737040  14.8889560  14.3567140  32.1010950
  15.8138870  14.2248320  31.8929240  14.8665350  14.4359960  33.0547400
  14.9628050  15.1277800  34.7267660  14.1679550  15.0622920  35.2560570
  15.1671330  16.0628440  34.7153010  11.9046470  29.1669350  38.7206050
  12.5005540  28.8453920  38.0440470  12.1624620  28.6941170  39.5119320
   3.5115070  27.1546850  44.4706400   3.2706430  27.4221410  43.5836920
   4.4517710  27.3252580  44.5257260   5.7169490  13.6179540  48.2262910
   5.6558380  14.2101370  48.9758320   6.6569870  13.5105500  48.0813170
   8.3544050  13.2749600  47.8655200   8.9684460  13.5928890  47.2036280
   8.8993610  12.7898190  48.4851060  14.7719230  29.1741230  45.2717040
  14.2777510  29.5710100  44.5544170  14.1632520  28.5490440  45.6654320
   9.0952090  11.8381740  44.1924490   8.2211930  12.1716850  43.9897420
   8.9862840  11.3654920  45.0176360  10.0024070  14.0452610  45.5766210
   9.6737430  13.2304370  45.1967940  10.9506370  14.0022420  45.4531900
  12.4558680  29.8164650  42.5503780  11.9961650  30.5680460  42.1761800
  11.8271140  29.0971120  42.4918580   2.8854400  28.1252890  41.7251910
   3.4019420  27.5140250  41.2000170   3.5351780  28.6281670  42.2162920
   5.6249900  29.0161380  42.5520890   5.9127710  28.7615680  41.6753900
   6.1373120  28.4638740  43.1426460   6.8426910  12.7551580  43.1317400
   6.0598700  13.2297080  43.4114160   6.5489840  11.8506410  43.0230580
  11.3947980  13.4574680  41.1766490  11.8356070  13.4019780  40.3288090
  11.1255570  14.3732690  41.2476670  13.2586550  13.0889920  39.1875310
  13.1974950  12.1451140  39.0406330  14.0378580  13.1970010  39.7328770
   4.7281130  15.1738330  38.6433430   3.9155640  14.7995220  38.3029310
   5.2322770  14.4183410  38.9454620   9.2306110  11.8380780  39.8816500
   9.8335480  12.4100990  40.3565020   8.4899100  12.4020220  39.6590400
  12.3740710  12.2402340  35.1556780  12.5691340  13.1385790  35.4224210
  11.5870580  12.0089420  35.6489730   2.7530310  13.3238250  37.2478480
   2.1233050  12.6225560  37.4148610   2.2135450  14.0842380  37.0311640
   5.6922260  29.9377480  49.9189090   6.6189570  29.7021750  49.9625050
   5.6772690  30.7649480  49.4375120  13.9267320  29.4803050  36.9163340
  14.1019510  28.7940790  36.2724260  13.2288890  30.0050100  36.5240010
   2.8785870  12.6022230  49.6830970   2.5970140  13.1055830  48.9191790
   3.2605570  11.8043980  49.3173100   1.7694970  29.8697890  34.4698650
   2.5013790  29.5857170  33.9222540   2.0288640  29.6311170  35.3598030
   9.4801330  12.0175810  50.2611440   9.3666780  12.3370420  51.1562960
  10.2971070  12.4188320  49.9648720  12.2599820  29.1647340  49.7430130
  13.0525140  28.6696570  49.5356090  12.5532970  29.8437480  50.3505740
   8.3859480  20.0368280  20.6246180   8.3053530  19.1222890  20.3537890
   7.9723900  20.5335350  19.9185890   6.5177520  21.8147300  22.5055450
   5.7419620  21.3347740  22.7954020   7.1690450  21.1352950  22.3311610
  10.5384950  26.2207490  21.2854580  10.0766480  25.4494730  21.6141750
  11.3510500  26.2473560  21.7907030   6.7648260  28.5065500  20.9058570
   6.1459700  28.9623000  20.3353010   7.6200040  28.6616960  20.5048270
   5.9586510  24.4904490  22.5125610   5.8894790  23.5494430  22.3514740
   6.7206370  24.5805900  23.0848180   6.9891680  17.2974870  22.7394540
   7.3656500  16.4246750  22.6268210   6.8911190  17.6333570  21.8484980
  10.7715800  14.7925310  19.6722880  11.5925420  14.3021880  19.7148360
  10.8049880  15.3822970  20.4254720   2.9604420  18.6386870  22.5337160
   3.4682640  19.1367840  23.1742180   3.4917660  17.8622070  22.3576520
  15.0615350  16.8092060  26.2366510  14.3567520  17.1973770  25.7181620
  15.3273270  17.5042350  26.8387440   7.6311610  23.3904740  18.2990480
   7.0128880  23.8554190  17.7353200   8.1434860  24.0832220  18.7159990
   2.4943370  22.9180610  24.9774080   2.1612750  23.5449530  25.6195150
   2.6710050  23.4442490  24.1975750  11.0077280  16.7325690  22.4450420
  10.3032850  17.0210580  23.0253530  11.3689440  17.5425800  22.0849980
  12.6240060  26.3500820  24.7077900  11.9403580  27.0199930  24.6994570
  13.1634350  26.5481470  23.9422760  14.0764200  16.1780480  22.8359630
  13.1289110  16.2119460  22.9675060  14.4014190  16.9919430  23.2208990
   4.6083740  12.4777660  21.1315620   4.9158720  11.9224550  20.4151120
   3.6784440  12.6122120  20.9488610  10.1598800  28.1944950  23.4223080
  10.1725960  27.7907240  22.5545340   9.6074020  28.9692240  23.3184510
  11.4544220  24.9161170  18.5113250  11.3440550  23.9735500  18.6362670
  11.4512470  25.2776810  19.3976010   9.5584240  23.0974790  24.7505690
   9.9753030  22.8834900  23.9159150  10.2824060  23.3547580  25.3214310
   6.9964500  20.5426490  17.8675740   6.0693780  20.4763870  18.0964210
   7.1489320  21.4806620  17.7530980   6.9833580  16.8143490  14.8642900
   6.0437250  16.9757450  14.9495360   7.3016840  17.5329170  14.3178890
  13.5046340  21.4962010  24.8421930  12.6764970  21.5655100  24.3672060
  14.0996820  22.0816320  24.3737760  11.0261790  22.1046790  18.3710990
  10.4074210  21.7666340  17.7237290  11.0086240  21.4606550  19.0790180
  10.4688350  18.2831330  25.7876800  10.0559530  19.1085040  26.0416790
   9.7364300  17.6976370  25.5953160   2.6021140  21.0691230  20.6495470
   2.1978140  20.3568480  20.1541370   2.6884260  20.7244470  21.5383510
   3.0702840  24.7558790  22.8134680   2.7731130  24.1504260  22.1342460
   4.0202660  24.7936100  22.7024040  11.1588450  28.3290660  26.4757780
  10.6819010  29.1362850  26.2830390  10.4750240  27.6768990  26.6283990
   9.2026490  21.3433600  15.3783740   9.6419770  20.5056030  15.2321560
   9.9154910  21.9763000  15.4647880   7.3121870  26.2829670  19.3464980
   7.7517780  27.0254000  18.9320370   7.2508760  26.5256240  20.2703940
   2.7872840  27.3075500  30.2485000   2.7588270  27.7118450  29.3813430
   2.6237810  26.3785860  30.0856600  12.7843630  12.5976410  13.6924780
  12.4716290  12.6903240  14.5923850  13.5456100  13.1757440  13.6422210
  14.7387660  28.0902600  31.5449170  15.2147380  28.5685490  32.2238250
  15.3594820  28.0220090  30.8194670  14.1420910  25.2815450  28.7049180
  14.2683970  25.0427330  27.7866360  14.1842290  24.4499990  29.1771260
   8.0037650  28.9843450  27.2743990   8.5182320  28.8951460  28.0766420
   7.1606730  29.3303150  27.5671900   9.9792050  29.2698790  16.7027990
   9.8193190  28.9801730  17.6009820   9.8138760  28.4938920  16.1673220
   2.4580430  29.0497320  18.4799610   2.2822910  28.1332860  18.2667410
   1.6036170  29.4084610  18.7197410   9.6818180  26.7786350  15.2625990
   8.9883340  26.7763640  14.6028270  10.4241040  26.3545670  14.8320160
   9.2468110  28.4049060  19.3374480   9.7025060  27.6238440  19.6513100
   9.5860630  29.1155880  19.8815660  13.9944920  17.3347910  29.6698920
  13.3789190  17.8427580  29.1414380  13.6741340  16.4346240  29.6124860
   6.0559240  16.1739800  27.1361110   5.5938610  16.3822820  27.9481050
   5.6537350  15.3599150  26.8331780  11.0563750  17.3948750  28.2657770
  10.2057340  17.0954500  28.5866840  10.8965540  17.6390760  27.3541590
   8.1513460  18.8950500  30.3656560   8.4766870  18.0614250  30.0258790
   8.9393790  19.4179020  30.5134890   4.8848250  12.9281980  16.4131620
   4.2602430  12.9241850  17.1384930   4.7978370  12.0612940  16.0167590
   3.8065330  13.8518610  23.3915390   4.1037660  14.7581440  23.3107410
   4.3550890  13.3637390  22.7774960   8.7901410  18.4368220  17.8597690
   8.1910300  19.1604020  17.6761310   9.3381020  18.3745000  17.0774140
   4.0002860  19.3290430  29.9267310   3.9046460  18.3885160  29.7767710
   4.8434840  19.5505500  29.5315380   7.3966280  17.0731760  19.8900970
   7.7895850  17.3903960  19.0769660   7.7583130  16.1943640  20.0045490
   5.7058450  15.8239070  31.1497830   5.0156770  15.6311270  31.7843920
   6.4490750  16.1073710  31.6822130   7.9821420  19.6637510  23.9851750
   7.2502540  20.1724320  24.3341850   7.5845760  18.8467490  23.6840530
   4.4198810  16.3391710  22.3904240   4.4234870  15.8981660  21.5408780
   5.3149930  16.6609040  22.4976060   4.4818960  17.3403790  15.3811000
   4.6031780  17.2990270  16.3296820   4.0967470  18.2027940  15.2257730
   8.4447330  15.1171190  23.3974690   8.4620070  15.5679840  24.2416540
   8.1962910  14.2176830  23.6108130   3.4940460  19.6504930  14.7794300
   2.9257360  19.2023180  14.1530210   4.2029460  20.0097710  14.2459450
  11.8718080  12.5303370  29.2361070  12.1963850  11.7993030  29.7619050
  11.9074590  12.2117010  28.3342060   4.7206780  20.3993490  24.1369650
   5.0876910  19.9252060  24.8830990   4.5311840  21.2735060  24.4777990
   2.5106150  19.4402130  26.4553860   2.2063220  20.3194110  26.6804220
   3.4652610  19.5001920  26.4911300  11.7975920  22.6428480  22.8447100
  12.5175040  23.1383770  22.4543210  11.5957740  21.9646370  22.2000970
   7.2585860  14.0366440  16.9876490   6.4450470  13.5379610  16.9121800
   7.0647810  14.8764690  16.5712840   7.1794720  22.7137540  28.7316100
   7.1132030  21.7933210  28.4773690   6.5499860  22.8112980  29.4460740
   9.9734250  18.4086090  15.2838650  10.8613870  18.7203320  15.1089990
   9.9439340  17.5358340  14.8919230   5.9694840  24.5809780  15.9626820
   6.3110540  25.3252010  15.4670140   5.1407550  24.8940900  16.3251650
   1.7683000  20.7389110  30.4864770   1.4683140  20.8846290  29.5892590
   2.5394240  20.1794400  30.3938160   7.1111450  25.5358110  28.4819900
   7.1255990  24.6039070  28.2638810   6.4036550  25.6217870  29.1209670
  12.2448520  19.7197930  14.7518510  12.1612240  20.1512150  13.9014950
  12.9642710  20.1796280  15.1845330  13.3222660  22.1765450  27.8288480
  12.5970850  22.7694230  27.6317870  13.8498120  22.1688990  27.0301850
  13.2735770  26.5740190  17.4800640  12.6311930  25.9195810  17.7544360
  12.8866430  26.9795280  16.7041310   8.8522250  23.9025620  21.3272330
   9.2046070  23.3053750  20.6673700   7.9684580  23.5769850  21.4980580
   4.9385530  24.6623310  18.7342740   5.6256660  25.2092520  19.1150330
   4.1517950  25.2064040  18.7692350   4.2412740  21.6669340  18.3468100
   4.6975520  22.4774590  18.5728290   3.8900950  21.3492480  19.1786590
   6.5445350  27.1775680  25.5760400   7.1887570  27.3835060  26.2533820
   6.9074790  26.4164080  25.1231250   7.8177430  25.1808030  24.2937850
   8.4599660  24.4801190  24.4070020   8.3426780  25.9606470  24.1134740
  11.6633150  25.4656650  14.0176990  11.4370730  24.7487090  14.6101630
  11.2729350  25.2169090  13.1798740   9.5915050  25.9802930  27.4973910
   9.9271290  26.5669620  28.1751830   8.6715390  25.8495640  27.7271700
  11.2449400  23.3828590  15.6791150  10.9571100  23.8441280  16.4669030
  12.0401570  22.9226360  15.9475370   5.4203630  26.0294260  30.6661970
   5.1000500  25.3103500  31.2107660   4.7461990  26.7049330  30.7398030
   3.4617800  26.8754710  15.6095120   3.4527900  27.6084400  14.9939630
   2.5416160  26.6286290  15.7022080   8.6357230  16.2620420  26.0298770
   9.0038050  15.4415630  26.3578340   7.7755430  16.3222310  26.4454420
  12.0019260  15.2177360  16.8386330  11.3732420  15.3223030  16.1244560
  11.5071180  15.4374140  17.6280210   6.4477400  26.9382950  14.2720310
   6.5489380  26.7346940  13.3422290   5.5479140  26.6841230  14.4768090
   3.9703290  17.4963310  18.2544210   3.2619440  17.9649650  18.6957820
   4.2547770  16.8385320  18.8889400   5.5959220  18.9160010  26.2536740
   6.0944470  19.3905830  26.9188590   5.7382170  17.9923530  26.4606770
   8.0018720  14.2213970  19.6940000   7.8786500  14.2400100  18.7449510
   8.9503280  14.2692910  19.8138400   5.0895510  29.4569270  18.9667980
   5.3437010  29.4190660  18.0447350   4.1407990  29.3302600  18.9596230
   2.1738310  15.8048390  15.6294920   3.0228840  16.2418540  15.5635110
   1.8069580  16.1168650  16.4566980  12.8026080  15.1327970  27.0965130
  12.2999680  15.8733370  27.4358940  13.6182740  15.5211970  26.7801920
  11.0948090  20.3761150  20.5426490  10.1538230  20.3911380  20.7174180
  11.4092160  19.5897110  20.9886790  13.0973670  27.5470000  22.2180750
  13.2221090  28.3701170  22.6904560  13.9639230  27.3360730  21.8704900
   3.6793510  28.8131520  13.7123450   4.4722120  29.1020350  13.2605240
   3.1597860  28.3823690  13.0335930   8.4114110  24.9327150  31.0258870
   7.8052270  24.9558750  30.2854620   8.1068220  24.2010190  31.5626120
   9.8414480  28.6607440  29.6368280  10.7936230  28.5765460  29.5868520
   9.6942700  29.3249150  30.3102070  12.7323680  28.0401650  15.1360190
  12.4465190  27.6266790  14.3214370  12.5343230  28.9689360  15.0160710
   4.1970910  24.0334930  13.5765800   4.0921550  23.4187280  14.3027180
   4.0295130  23.5100820  12.7928810   4.3485230  22.7191730  29.5555030
   3.5830900  23.2876730  29.4709700   4.5301190  22.4267940  28.6623260
   7.4373640  23.0954960  14.1807790   6.8883740  23.5424260  14.8250530
   8.0592900  22.5904210  14.7045460  11.4908580  24.4497060  30.1130050
  12.2318050  24.7872820  29.6097510  10.7281260  24.6189120  29.5599820
   3.1048760  22.0545880  16.0773090   3.5265180  21.8885750  16.9204480
   3.2299600  21.2446110  15.5828230   5.6176400  21.0783490  13.3250190
   6.1382060  20.3632510  12.9591340   6.2644800  21.7169360  13.6250700
  10.1654240  22.5011890  28.6485260  10.5795260  22.6556970  29.4975680
   9.2305240  22.6267110  28.8111040  10.6376410  19.8408050  30.6524410
  11.2197180  19.0860370  30.5644890  10.8138180  20.3715490  29.8755890
   4.5209920  13.5578040  25.9968750   4.0727220  13.5802300  25.1514300
   3.8875120  13.1597060  26.5939050   4.9269470  22.4532370  26.6181190
   5.3457580  23.2965100  26.4457430   4.0078100  22.5904410  26.3887970
   7.2633370  20.1848550  28.0019030   7.3829580  19.5889690  28.7413870
   8.1227370  20.2218240  27.5820330   9.6021270  20.7385740  26.5781540
   9.0756490  21.2628360  25.9746680   9.9452610  21.3713130  27.2091270
   2.0007660  18.1279110  13.0231250   1.7996720  17.2646470  13.3844590
   1.8299710  18.0412470  12.0852850   2.7776890  28.7585380  27.7338920
   2.2397980  29.4831440  27.4147620   3.0310850  28.2815720  26.9436260
   4.0302140  16.7269900  29.2594850   4.6201830  16.4185750  29.9472670
   3.2122380  16.2549650  29.4154750   8.8495570  16.3435710  29.4927870
   8.1611090  15.6817250  29.4277860   9.5701590  15.8973980  29.9376330
   9.4795970  12.9387340  15.5518130   9.7598260  12.0955240  15.9077550
   8.7061700  13.1710450  16.0656880   5.6339100  29.9936590  27.9925570
   5.5597800  30.8971730  28.2997940   4.7317940  29.6748490  27.9647640
   4.0175390  14.1714350  13.9965330   3.6697390  13.4938340  13.4167780
   4.2188160  13.7103860  14.8108720   6.1824430  29.1595100  15.6151930
   7.0775220  29.4980070  15.6370690   6.2142060  28.4374510  14.9876210
  13.1618780  27.6898770  28.3218130  12.5620770  27.7491330  27.5782050
  13.2912680  26.7503750  28.4514980  14.4020230  25.4316590  13.6587840
  13.5713190  25.4993240  14.1295070  14.5792060  26.3220710  13.3554700
  13.8576690  22.1764070  16.1622040  14.6195600  22.7460720  16.2681730
  13.8731060  21.6091270  16.9330350  14.8636660  23.0314170  21.0063970
  15.2345490  22.2481490  20.5999940  15.5038590  23.7203270  20.8281270
  11.8470420  24.4150750  26.4194290  11.0330260  24.8447910  26.6820080
  12.2544620  25.0269160  25.8063340  13.9095860  22.4698440  13.3194560
  14.1844700  23.3777320  13.1913780  13.7206600  22.4060970  14.2556550
  10.3071470  15.4943290  14.6148190  10.7256350  15.3074270  13.7744850
  10.0007530  14.6422340  14.9251120  13.8061200  20.4067430  18.3123990
  13.4304800  19.6395360  17.8805280  13.0764320  20.7890130  18.7998920
  13.1960820  19.5538950  27.9463510  12.9646910  19.3251700  27.0461460
  13.4565370  20.4738500  27.9008400  11.6348890  14.7795380  30.7243210
  12.5119070  14.7878780  31.1077210  11.6469730  14.0426220  30.1135560
  13.0812160  18.6324920  21.6131230  13.6049640  18.1387570  20.9821400
  13.6671580  18.7675280  22.3578800  13.2601880  18.7164790  25.1350780
  12.3104590  18.6828330  25.2495770  13.4414890  19.6264900  24.9000550
  12.5712130  17.8898270  17.5523640  13.0671250  17.6569140  18.3372520
  12.3728200  17.0510110  17.1361280  13.9999290  16.5259220  20.0861320
  13.8898570  16.3715260  21.0243590  14.7606880  15.9980160  19.8436730
  12.3465010  12.4653350  26.5444320  12.9837230  13.0787490  26.9103510
  12.4939900  12.5014010  25.5993550  14.8889560  14.3567140  13.3267460
  15.8138870  14.2248320  13.1185750  14.8665350  14.4359960  14.2803910
  14.9628050  15.1277800  15.9524170  14.1679550  15.0622920  16.4817080
  15.1671330  16.0628440  15.9409520  11.9046470  29.1669350  19.9462560
  12.5005540  28.8453920  19.2696980  12.1624620  28.6941170  20.7375830
   3.5115070  27.1546850  25.6962910   3.2706430  27.4221410  24.8093430
   4.4517710  27.3252580  25.7513770   5.7169490  13.6179540  29.4519420
   5.6558380  14.2101370  30.2014830   6.6569870  13.5105500  29.3069680
   8.3544050  13.2749600  29.0911710   8.9684460  13.5928890  28.4292790
   8.8993610  12.7898190  29.7107570  14.7719230  29.1741230  26.4973550
  14.2777510  29.5710100  25.7800680  14.1632520  28.5490440  26.8910830
   9.0952090  11.8381740  25.4181000   8.2211930  12.1716850  25.2153930
   8.9862840  11.3654920  26.2432870  10.0024070  14.0452610  26.8022720
   9.6737430  13.2304370  26.4224450  10.9506370  14.0022420  26.6788410
  12.4558680  29.8164650  23.7760290  11.9961650  30.5680460  23.4018310
  11.8271140  29.0971120  23.7175090   2.8854400  28.1252890  22.9508420
   3.4019420  27.5140250  22.4256680   3.5351780  28.6281670  23.4419430
   5.6249900  29.0161380  23.7777400   5.9127710  28.7615680  22.9010410
   6.1373120  28.4638740  24.3682970   6.8426910  12.7551580  24.3573910
   6.0598700  13.2297080  24.6370670   6.5489840  11.8506410  24.2487090
  11.3947980  13.4574680  22.4023000  11.8356070  13.4019780  21.5544600
  11.1255570  14.3732690  22.4733180  13.2586550  13.0889920  20.4131820
  13.1974950  12.1451140  20.2662840  14.0378580  13.1970010  20.9585280
   4.7281130  15.1738330  19.8689940   3.9155640  14.7995220  19.5285820
   5.2322770  14.4183410  20.1711130   9.2306110  11.8380780  21.1073010
   9.8335480  12.4100990  21.5821530   8.4899100  12.4020220  20.8846910
  12.3740710  12.2402340  16.3813290  12.5691340  13.1385790  16.6480720
  11.5870580  12.0089420  16.8746240   2.7530310  13.3238250  18.4734990
   2.1233050  12.6225560  18.6405120   2.2135450  14.0842380  18.2568150
   5.6922260  29.9377480  31.1445600   6.6189570  29.7021750  31.1881560
   5.6772690  30.7649480  30.6631630  13.9267320  29.4803050  18.1419850
  14.1019510  28.7940790  17.4980770  13.2288890  30.0050100  17.7496520
   2.8785870  12.6022230  30.9087480   2.5970140  13.1055830  30.1448300
   3.2605570  11.8043980  30.5429610   1.7694970  29.8697890  15.6955160
   2.5013790  29.5857170  15.1479050   2.0288640  29.6311170  16.5854540
   9.4801330  12.0175810  31.4867950   9.3666780  12.3370420  32.3819470
  10.2971070  12.4188320  31.1905230  12.2599820  29.1647340  30.9686640
  13.0525140  28.6696570  30.7612600  12.5532970  29.8437480  31.5762250
   6.5177520  21.8147300   3.7311960   5.7419620  21.3347740   4.0210530
   7.1690450  21.1352950   3.5568120  10.5384950  26.2207490   2.5111090
  10.0766480  25.4494730   2.8398260  11.3510500  26.2473560   3.0163540
   5.9586510  24.4904490   3.7382120   5.8894790  23.5494430   3.5771250
   6.7206370  24.5805900   4.3104690   6.9891680  17.2974870   3.9651050
   7.3656500  16.4246750   3.8524720   6.8911190  17.6333570   3.0741490
   2.9604420  18.6386870   3.7593670   3.4682640  19.1367840   4.3998690
   3.4917660  17.8622070   3.5833030  15.0615350  16.8092060   7.4623020
  14.3567520  17.1973770   6.9438130  15.3273270  17.5042350   8.0643950
   2.4943370  22.9180610   6.2030590   2.1612750  23.5449530   6.8451660
   2.6710050  23.4442490   5.4232260  11.0077280  16.7325690   3.6706930
  10.3032850  17.0210580   4.2510040  11.3689440  17.5425800   3.3106490
  12.6240060  26.3500820   5.9334410  11.9403580  27.0199930   5.9251080
  13.1634350  26.5481470   5.1679270  14.0764200  16.1780480   4.0616140
  13.1289110  16.2119460   4.1931570  14.4014190  16.9919430   4.4465500
  10.1598800  28.1944950   4.6479590  10.1725960  27.7907240   3.7801850
   9.6074020  28.9692240   4.5441020   9.5584240  23.0974790   5.9762200
   9.9753030  22.8834900   5.1415660  10.2824060  23.3547580   6.5470820
  13.5046340  21.4962010   6.0678440  12.6764970  21.5655100   5.5928570
  14.0996820  22.0816320   5.5994270  10.4688350  18.2831330   7.0133310
  10.0559530  19.1085040   7.2673300   9.7364300  17.6976370   6.8209670
   3.0702840  24.7558790   4.0391190   2.7731130  24.1504260   3.3598970
   4.0202660  24.7936100   3.9280550  11.1588450  28.3290660   7.7014290
  10.6819010  29.1362850   7.5086900  10.4750240  27.6768990   7.8540500
   2.7872840  27.3075500  11.4741510   2.7588270  27.7118450  10.6069940
   2.6237810  26.3785860  11.3113110  14.7387660  28.0902600  12.7705680
  15.2147380  28.5685490  13.4494760  15.3594820  28.0220090  12.0451180
  14.1420910  25.2815450   9.9305690  14.2683970  25.0427330   9.0122870
  14.1842290  24.4499990  10.4027770   8.0037650  28.9843450   8.5000500
   8.5182320  28.8951460   9.3022930   7.1606730  29.3303150   8.7928410
  13.9944920  17.3347910  10.8955430  13.3789190  17.8427580  10.3670890
  13.6741340  16.4346240  10.8381370   6.0559240  16.1739800   8.3617620
   5.5938610  16.3822820   9.1737560   5.6537350  15.3599150   8.0588290
  11.0563750  17.3948750   9.4914280  10.2057340  17.0954500   9.8123350
  10.8965540  17.6390760   8.5798100   8.1513460  18.8950500  11.5913070
   8.4766870  18.0614250  11.2515300   8.9393790  19.4179020  11.7391400
   3.8065330  13.8518610   4.6171900   4.1037660  14.7581440   4.5363920
   4.3550890  13.3637390   4.0031470   4.0002860  19.3290430  11.1523820
   3.9046460  18.3885160  11.0024220   4.8434840  19.5505500  10.7571890
   5.7058450  15.8239070  12.3754340   5.0156770  15.6311270  13.0100430
   6.4490750  16.1073710  12.9078640   7.9821420  19.6637510   5.2108260
   7.2502540  20.1724320   5.5598360   7.5845760  18.8467490   4.9097040
   4.4198810  16.3391710   3.6160750   4.4234870  15.8981660   2.7665290
   5.3149930  16.6609040   3.7232570   8.4447330  15.1171190   4.6231200
   8.4620070  15.5679840   5.4673050   8.1962910  14.2176830   4.8364640
  11.8718080  12.5303370  10.4617580  12.1963850  11.7993030  10.9875560
  11.9074590  12.2117010   9.5598570   4.7206780  20.3993490   5.3626160
   5.0876910  19.9252060   6.1087500   4.5311840  21.2735060   5.7034500
   2.5106150  19.4402130   7.6810370   2.2063220  20.3194110   7.9060730
   3.4652610  19.5001920   7.7167810  11.7975920  22.6428480   4.0703610
  12.5175040  23.1383770   3.6799720  11.5957740  21.9646370   3.4257480
   7.1794720  22.7137540   9.9572610   7.1132030  21.7933210   9.7030200
   6.5499860  22.8112980  10.6717250   1.7683000  20.7389110  11.7121280
   1.4683140  20.8846290  10.8149100   2.5394240  20.1794400  11.6194670
   7.1111450  25.5358110   9.7076410   7.1255990  24.6039070   9.4895320
   6.4036550  25.6217870  10.3466180  13.3222660  22.1765450   9.0544990
  12.5970850  22.7694230   8.8574380  13.8498120  22.1688990   8.2558360
   8.8522250  23.9025620   2.5528840   9.2046070  23.3053750   1.8930210
   7.9684580  23.5769850   2.7237090   6.5445350  27.1775680   6.8016910
   7.1887570  27.3835060   7.4790330   6.9074790  26.4164080   6.3487760
   7.8177430  25.1808030   5.5194360   8.4599660  24.4801190   5.6326530
   8.3426780  25.9606470   5.3391250   9.5915050  25.9802930   8.7230420
   9.9271290  26.5669620   9.4008340   8.6715390  25.8495640   8.9528210
   5.4203630  26.0294260  11.8918480   5.1000500  25.3103500  12.4364170
   4.7461990  26.7049330  11.9654540   8.6357230  16.2620420   7.2555280
   9.0038050  15.4415630   7.5834850   7.7755430  16.3222310   7.6710930
   5.5959220  18.9160010   7.4793250   6.0944470  19.3905830   8.1445100
   5.7382170  17.9923530   7.6863280  12.8026080  15.1327970   8.3221640
  12.2999680  15.8733370   8.6615450  13.6182740  15.5211970   8.0058430
  11.0948090  20.3761150   1.7683000  10.1538230  20.3911380   1.9430690
  11.4092160  19.5897110   2.2143300  13.0973670  27.5470000   3.4437260
  13.2221090  28.3701170   3.9161070  13.9639230  27.3360730   3.0961410
   8.4114110  24.9327150  12.2515380   7.8052270  24.9558750  11.5111130
   8.1068220  24.2010190  12.7882630   9.8414480  28.6607440  10.8624790
  10.7936230  28.5765460  10.8125030   9.6942700  29.3249150  11.5358580
   4.3485230  22.7191730  10.7811540   3.5830900  23.2876730  10.6966210
   4.5301190  22.4267940   9.8879770  11.4908580  24.4497060  11.3386560
  12.2318050  24.7872820  10.8354020  10.7281260  24.6189120  10.7856330
  10.1654240  22.5011890   9.8741770  10.5795260  22.6556970  10.7232190
   9.2305240  22.6267110  10.0367550  10.6376410  19.8408050  11.8780920
  11.2197180  19.0860370  11.7901400  10.8138180  20.3715490  11.1012400
   4.5209920  13.5578040   7.2225260   4.0727220  13.5802300   6.3770810
   3.8875120  13.1597060   7.8195560   4.9269470  22.4532370   7.8437700
   5.3457580  23.2965100   7.6713940   4.0078100  22.5904410   7.6144480
   7.2633370  20.1848550   9.2275540   7.3829580  19.5889690   9.9670380
   8.1227370  20.2218240   8.8076840   9.6021270  20.7385740   7.8038050
   9.0756490  21.2628360   7.2003190   9.9452610  21.3713130   8.4347780
   2.7776890  28.7585380   8.9595430   2.2397980  29.4831440   8.6404130
   3.0310850  28.2815720   8.1692770   4.0302140  16.7269900  10.4851360
   4.6201830  16.4185750  11.1729180   3.2122380  16.2549650  10.6411260
   8.8495570  16.3435710  10.7184380   8.1611090  15.6817250  10.6534370
   9.5701590  15.8973980  11.1632840   5.6339100  29.9936590   9.2182080
   5.5597800  30.8971730   9.5254450   4.7317940  29.6748490   9.1904150
  13.1618780  27.6898770   9.5474640  12.5620770  27.7491330   8.8038560
  13.2912680  26.7503750   9.6771490  14.8636660  23.0314170   2.2320480
  15.2345490  22.2481490   1.8256450  15.5038590  23.7203270   2.0537780
  11.8470420  24.4150750   7.6450800  11.0330260  24.8447910   7.9076590
  12.2544620  25.0269160   7.0319850  13.1960820  19.5538950   9.1720020
  12.9646910  19.3251700   8.2717970  13.4565370  20.4738500   9.1264910
  11.6348890  14.7795380  11.9499720  12.5119070  14.7878780  12.3333720
  11.6469730  14.0426220  11.3392070  13.0812160  18.6324920   2.8387740
  13.6049640  18.1387570   2.2077910  13.6671580  18.7675280   3.5835310
  13.2601880  18.7164790   6.3607290  12.3104590  18.6828330   6.4752280
  13.4414890  19.6264900   6.1257060  12.3465010  12.4653350   7.7700830
  12.9837230  13.0787490   8.1360020  12.4939900  12.5014010   6.8250060
   3.5115070  27.1546850   6.9219420   3.2706430  27.4221410   6.0349940
   4.4517710  27.3252580   6.9770280   5.7169490  13.6179540  10.6775930
   5.6558380  14.2101370  11.4271340   6.6569870  13.5105500  10.5326190
   8.3544050  13.2749600  10.3168220   8.9684460  13.5928890   9.6549300
   8.8993610  12.7898190  10.9364080  14.7719230  29.1741230   7.7230060
  14.2777510  29.5710100   7.0057190  14.1632520  28.5490440   8.1167340
   9.0952090  11.8381740   6.6437510   8.2211930  12.1716850   6.4410440
   8.9862840  11.3654920   7.4689380  10.0024070  14.0452610   8.0279230
   9.6737430  13.2304370   7.6480960  10.9506370  14.0022420   7.9044920
  12.4558680  29.8164650   5.0016800  11.9961650  30.5680460   4.6274820
  11.8271140  29.0971120   4.9431600   2.8854400  28.1252890   4.1764930
   3.4019420  27.5140250   3.6513190   3.5351780  28.6281670   4.6675940
   5.6249900  29.0161380   5.0033910   5.9127710  28.7615680   4.1266920
   6.1373120  28.4638740   5.5939480   6.8426910  12.7551580   5.5830420
   6.0598700  13.2297080   5.8627180   6.5489840  11.8506410   5.4743600
  11.3947980  13.4574680   3.6279510  11.8356070  13.4019780   2.7801110
  11.1255570  14.3732690   3.6989690   9.2306110  11.8380780   2.3329520
   9.8335480  12.4100990   2.8078040   8.4899100  12.4020220   2.1103420
   5.6922260  29.9377480  12.3702110   6.6189570  29.7021750  12.4138070
   5.6772690  30.7649480  11.8888140   2.8785870  12.6022230  12.1343990
   2.5970140  13.1055830  11.3704810   3.2605570  11.8043980  11.7686120
   9.4801330  12.0175810  12.7124460   9.3666780  12.3370420  13.6075980
  10.2971070  12.4188320  12.4161740  12.2599820  29.1647340  12.1943150
  13.0525140  28.6696570  11.9869110  12.5532970  29.8437480  12.8018760
   6.5177520   3.0403810  60.0542430   5.7419620   2.5604250  60.3441000
   7.1690450   2.3609460  59.8798590  10.5384950   7.4464000  58.8341560
  10.0766480   6.6751240  59.1628730  11.3510500   7.4730070  59.3394010
   6.7648260   9.7322010  58.4545550   6.1459700  10.1879510  57.8839990
   7.6200040   9.8873470  58.0535250   5.9586510   5.7161000  60.0612590
   5.8894790   4.7750940  59.9001720   6.7206370   5.8062410  60.6335160
   7.6311610   4.6161250  55.8477460   7.0128880   5.0810700  55.2840180
   8.1434860   5.3088730  56.2646970  10.1598800   9.4201460  60.9710060
  10.1725960   9.0163750  60.1032320   9.6074020  10.1948750  60.8671490
  11.4544220   6.1417680  56.0600230  11.3440550   5.1992010  56.1849650
  11.4512470   6.5033320  56.9462990   6.9964500   1.7683000  55.4162720
   6.0693780   1.7020380  55.6451190   7.1489320   2.7063130  55.3017960
  11.0261790   3.3303300  55.9197970  10.4074210   2.9922850  55.2724270
  11.0086240   2.6863060  56.6277160   2.6021140   2.2947740  58.1982450
   2.1978140   1.5824990  57.7028350   2.6884260   1.9500980  59.0870490
   3.0702840   5.9815300  60.3621660   2.7731130   5.3760770  59.6829440
   4.0202660   6.0192610  60.2511020   9.2026490   2.5690110  52.9270720
   9.6419770   1.7312540  52.7808540   9.9154910   3.2019510  53.0134860
   7.3121870   7.5086180  56.8951960   7.7517780   8.2510510  56.4807350
   7.2508760   7.7512750  57.8190920   9.9792050  10.4955300  54.2514970
   9.8193190  10.2058240  55.1496800   9.8138760   9.7195430  53.7160200
   2.4580430  10.2753830  56.0286590   2.2822910   9.3589370  55.8154390
   1.6036170  10.6341120  56.2684390   9.6818180   8.0042860  52.8112970
   8.9883340   8.0020150  52.1515250  10.4241040   7.5802180  52.3807140
   9.2468110   9.6305570  56.8861460   9.7025060   8.8494950  57.2000080
   9.5860630  10.3412390  57.4302640  11.7975920   3.8684990  60.3934080
  12.5175040   4.3640280  60.0030190  11.5957740   3.1902880  59.7487950
   5.9694840   5.8066290  53.5113800   6.3110540   6.5508520  53.0157120
   5.1407550   6.1197410  53.8738630  13.2735770   7.7996700  55.0287620
  12.6311930   7.1452320  55.3031340  12.8866430   8.2051790  54.2528290
   8.8522250   5.1282130  58.8759310   9.2046070   4.5310260  58.2160680
   7.9684580   4.8026360  59.0467560   4.9385530   5.8879820  56.2829720
   5.6256660   6.4349030  56.6637310   4.1517950   6.4320550  56.3179330
   4.2412740   2.8925850  55.8955080   4.6975520   3.7031100  56.1215270
   3.8900950   2.5748990  56.7273570  11.6633150   6.6913160  51.5663970
  11.4370730   5.9743600  52.1588610  11.2729350   6.4425600  50.7285720
  11.2449400   4.6085100  53.2278130  10.9571100   5.0697790  54.0156010
  12.0401570   4.1482870  53.4962350   3.4617800   8.1011220  53.1582100
   3.4527900   8.8340910  52.5426610   2.5416160   7.8542800  53.2509060
   6.4477400   8.1639460  51.8207290   6.5489380   7.9603450  50.8909270
   5.5479140   7.9097740  52.0255070   5.0895510  10.6825780  56.5154960
   5.3437010  10.6447170  55.5934330   4.1407990  10.5559110  56.5083210
  13.0973670   8.7726510  59.7667730  13.2221090   9.5957680  60.2391540
  13.9639230   8.5617240  59.4191880   3.6793510  10.0388030  51.2610430
   4.4722120  10.3276860  50.8092220   3.1597860   9.6080200  50.5822910
  12.7323680   9.2658160  52.6847170  12.4465190   8.8523300  51.8701350
  12.5343230  10.1945870  52.5647690   4.1970910   5.2591440  51.1252780
   4.0921550   4.6443790  51.8514160   4.0295130   4.7357330  50.3415790
   7.4373640   4.3211470  51.7294770   6.8883740   4.7680770  52.3737510
   8.0592900   3.8160720  52.2532440   3.1048760   3.2802390  53.6260070
   3.5265180   3.1142260  54.4691460   3.2299600   2.4702620  53.1315210
   5.6176400   2.3040000  50.8737170   6.1382060   1.5889020  50.5078320
   6.2644800   2.9425870  51.1737680   6.1824430  10.3851610  53.1638910
   7.0775220  10.7236580  53.1857670   6.2142060   9.6631020  52.5363190
  14.4020230   6.6573100  51.2074820  13.5713190   6.7249750  51.6782050
  14.5792060   7.5477220  50.9041680  13.8576690   3.4020580  53.7109020
  14.6195600   3.9717230  53.8168710  13.8731060   2.8347780  54.4817330
  14.8636660   4.2570680  58.5550950  15.2345490   3.4738000  58.1486920
  15.5038590   4.9459780  58.3768250  13.9095860   3.6954950  50.8681540
  14.1844700   4.6033830  50.7400760  13.7206600   3.6317480  51.8043530
  11.9046470  10.3925860  57.4949540  12.5005540  10.0710430  56.8183960
  12.1624620   9.9197680  58.2862810  12.4558680  11.0421160  61.3247270
  11.9961650  11.7936970  60.9505290  11.8271140  10.3227630  61.2662070
   2.8854400   9.3509400  60.4995400   3.4019420   8.7396760  59.9743660
   3.5351780   9.8538180  60.9906410  13.9267320  10.7059560  55.6906830
  14.1019510  10.0197300  55.0467750  13.2288890  11.2306610  55.2983500
   1.7694970  11.0954400  53.2442140   2.5013790  10.8113680  52.6966030
   2.0288640  10.8567680  54.1341520   6.5177520   3.0403810  41.2798940
   5.7419620   2.5604250  41.5697510   7.1690450   2.3609460  41.1055100
  10.5384950   7.4464000  40.0598070  10.0766480   6.6751240  40.3885240
  11.3510500   7.4730070  40.5650520   6.7648260   9.7322010  39.6802060
   6.1459700  10.1879510  39.1096500   7.6200040   9.8873470  39.2791760
   5.9586510   5.7161000  41.2869100   5.8894790   4.7750940  41.1258230
   6.7206370   5.8062410  41.8591670   7.6311610   4.6161250  37.0733970
   7.0128880   5.0810700  36.5096690   8.1434860   5.3088730  37.4903480
   2.4943370   4.1437120  43.7517570   2.1612750   4.7706040  44.3938640
   2.6710050   4.6699000  42.9719240  12.6240060   7.5757330  43.4821390
  11.9403580   8.2456440  43.4738060  13.1634350   7.7737980  42.7166250
  10.1598800   9.4201460  42.1966570  10.1725960   9.0163750  41.3288830
   9.6074020  10.1948750  42.0928000  11.4544220   6.1417680  37.2856740
  11.3440550   5.1992010  37.4106160  11.4512470   6.5033320  38.1719500
   9.5584240   4.3231300  43.5249180   9.9753030   4.1091410  42.6902640
  10.2824060   4.5804090  44.0957800   6.9964500   1.7683000  36.6419230
   6.0693780   1.7020380  36.8707700   7.1489320   2.7063130  36.5274470
  13.5046340   2.7218520  43.6165420  12.6764970   2.7911610  43.1415550
  14.0996820   3.3072830  43.1481250  11.0261790   3.3303300  37.1454480
  10.4074210   2.9922850  36.4980780  11.0086240   2.6863060  37.8533670
   2.6021140   2.2947740  39.4238960   2.1978140   1.5824990  38.9284860
   2.6884260   1.9500980  40.3127000   3.0702840   5.9815300  41.5878170
   2.7731130   5.3760770  40.9085950   4.0202660   6.0192610  41.4767530
  11.1588450   9.5547170  45.2501270  10.6819010  10.3619360  45.0573880
  10.4750240   8.9025500  45.4027480   9.2026490   2.5690110  34.1527230
   9.6419770   1.7312540  34.0065050   9.9154910   3.2019510  34.2391370
   7.3121870   7.5086180  38.1208470   7.7517780   8.2510510  37.7063860
   7.2508760   7.7512750  39.0447430   2.7872840   8.5332010  49.0228490
   2.7588270   8.9374960  48.1556920   2.6237810   7.6042370  48.8600090
  14.7387660   9.3159110  50.3192660  15.2147380   9.7942000  50.9981740
  15.3594820   9.2476600  49.5938160  14.1420910   6.5071960  47.4792670
  14.2683970   6.2683840  46.5609850  14.1842290   5.6756500  47.9514750
   8.0037650  10.2099960  46.0487480   8.5182320  10.1207970  46.8509910
   7.1606730  10.5559660  46.3415390   9.9792050  10.4955300  35.4771480
   9.8193190  10.2058240  36.3753310   9.8138760   9.7195430  34.9416710
   2.4580430  10.2753830  37.2543100   2.2822910   9.3589370  37.0410900
   1.6036170  10.6341120  37.4940900   9.6818180   8.0042860  34.0369480
   8.9883340   8.0020150  33.3771760  10.4241040   7.5802180  33.6063650
   9.2468110   9.6305570  38.1117970   9.7025060   8.8494950  38.4256590
   9.5860630  10.3412390  38.6559150  11.7975920   3.8684990  41.6190590
  12.5175040   4.3640280  41.2286700  11.5957740   3.1902880  40.9744460
   7.1794720   3.9394050  47.5059590   7.1132030   3.0189720  47.2517180
   6.5499860   4.0369490  48.2204230   5.9694840   5.8066290  34.7370310
   6.3110540   6.5508520  34.2413630   5.1407550   6.1197410  35.0995140
   7.1111450   6.7614620  47.2563390   7.1255990   5.8295580  47.0382300
   6.4036550   6.8474380  47.8953160  13.3222660   3.4021960  46.6031970
  12.5970850   3.9950740  46.4061360  13.8498120   3.3945500  45.8045340
  13.2735770   7.7996700  36.2544130  12.6311930   7.1452320  36.5287850
  12.8866430   8.2051790  35.4784800   8.8522250   5.1282130  40.1015820
   9.2046070   4.5310260  39.4417190   7.9684580   4.8026360  40.2724070
   4.9385530   5.8879820  37.5086230   5.6256660   6.4349030  37.8893820
   4.1517950   6.4320550  37.5435840   4.2412740   2.8925850  37.1211590
   4.6975520   3.7031100  37.3471780   3.8900950   2.5748990  37.9530080
   6.5445350   8.4032190  44.3503890   7.1887570   8.6091570  45.0277310
   6.9074790   7.6420590  43.8974740   7.8177430   6.4064540  43.0681340
   8.4599660   5.7057700  43.1813510   8.3426780   7.1862980  42.8878230
  11.6633150   6.6913160  32.7920480  11.4370730   5.9743600  33.3845120
  11.2729350   6.4425600  31.9542230   9.5915050   7.2059440  46.2717400
   9.9271290   7.7926130  46.9495320   8.6715390   7.0752150  46.5015190
  11.2449400   4.6085100  34.4534640  10.9571100   5.0697790  35.2412520
  12.0401570   4.1482870  34.7218860   5.4203630   7.2550770  49.4405460
   5.1000500   6.5360010  49.9851150   4.7461990   7.9305840  49.5141520
   3.4617800   8.1011220  34.3838610   3.4527900   8.8340910  33.7683120
   2.5416160   7.8542800  34.4765570   6.4477400   8.1639460  33.0463800
   6.5489380   7.9603450  32.1165780   5.5479140   7.9097740  33.2511580
   5.0895510  10.6825780  37.7411470   5.3437010  10.6447170  36.8190840
   4.1407990  10.5559110  37.7339720  13.0973670   8.7726510  40.9924240
  13.2221090   9.5957680  41.4648050  13.9639230   8.5617240  40.6448390
   3.6793510  10.0388030  32.4866940   4.4722120  10.3276860  32.0348730
   3.1597860   9.6080200  31.8079420   8.4114110   6.1583660  49.8002360
   7.8052270   6.1815260  49.0598110   8.1068220   5.4266700  50.3369610
   9.8414480   9.8863950  48.4111770  10.7936230   9.8021970  48.3612010
   9.6942700  10.5505660  49.0845560  12.7323680   9.2658160  33.9103680
  12.4465190   8.8523300  33.0957860  12.5343230  10.1945870  33.7904200
   4.1970910   5.2591440  32.3509290   4.0921550   4.6443790  33.0770670
   4.0295130   4.7357330  31.5672300   4.3485230   3.9448240  48.3298520
   3.5830900   4.5133240  48.2453190   4.5301190   3.6524450  47.4366750
   7.4373640   4.3211470  32.9551280   6.8883740   4.7680770  33.5994020
   8.0592900   3.8160720  33.4788950  11.4908580   5.6753570  48.8873540
  12.2318050   6.0129330  48.3841000  10.7281260   5.8445630  48.3343310
   3.1048760   3.2802390  34.8516580   3.5265180   3.1142260  35.6947970
   3.2299600   2.4702620  34.3571720   5.6176400   2.3040000  32.0993680
   6.1382060   1.5889020  31.7334830   6.2644800   2.9425870  32.3994190
  10.1654240   3.7268400  47.4228750  10.5795260   3.8813480  48.2719170
   9.2305240   3.8523620  47.5854530   4.9269470   3.6788880  45.3924680
   5.3457580   4.5221610  45.2200920   4.0078100   3.8160920  45.1631460
   9.6021270   1.9642250  45.3525030   9.0756490   2.4884870  44.7490170
   9.9452610   2.5969640  45.9834760   2.7776890   9.9841890  46.5082410
   2.2397980  10.7087950  46.1891110   3.0310850   9.5072230  45.7179750
   5.6339100  11.2193100  46.7669060   5.5597800  12.1228240  47.0741430
   4.7317940  10.9005000  46.7391130   6.1824430  10.3851610  34.3895420
   7.0775220  10.7236580  34.4114180   6.2142060   9.6631020  33.7619700
  13.1618780   8.9155280  47.0961620  12.5620770   8.9747840  46.3525540
  13.2912680   7.9760260  47.2258470  14.4020230   6.6573100  32.4331330
  13.5713190   6.7249750  32.9038560  14.5792060   7.5477220  32.1298190
  13.8576690   3.4020580  34.9365530  14.6195600   3.9717230  35.0425220
  13.8731060   2.8347780  35.7073840  14.8636660   4.2570680  39.7807460
  15.2345490   3.4738000  39.3743430  15.5038590   4.9459780  39.6024760
  11.8470420   5.6407260  45.1937780  11.0330260   6.0704420  45.4563570
  12.2544620   6.2525670  44.5806830  13.9095860   3.6954950  32.0938050
  14.1844700   4.6033830  31.9657270  13.7206600   3.6317480  33.0300040
  11.9046470  10.3925860  38.7206050  12.5005540  10.0710430  38.0440470
  12.1624620   9.9197680  39.5119320   3.5115070   8.3803360  44.4706400
   3.2706430   8.6477920  43.5836920   4.4517710   8.5509090  44.5257260
  14.7719230  10.3997740  45.2717040  14.2777510  10.7966610  44.5544170
  14.1632520   9.7746950  45.6654320  12.4558680  11.0421160  42.5503780
  11.9961650  11.7936970  42.1761800  11.8271140  10.3227630  42.4918580
   2.8854400   9.3509400  41.7251910   3.4019420   8.7396760  41.2000170
   3.5351780   9.8538180  42.2162920   5.6249900  10.2417890  42.5520890
   5.9127710   9.9872190  41.6753900   6.1373120   9.6895250  43.1426460
   5.6922260  11.1633990  49.9189090   6.6189570  10.9278260  49.9625050
   5.6772690  11.9905990  49.4375120  13.9267320  10.7059560  36.9163340
  14.1019510  10.0197300  36.2724260  13.2288890  11.2306610  36.5240010
   1.7694970  11.0954400  34.4698650   2.5013790  10.8113680  33.9222540
   2.0288640  10.8567680  35.3598030  12.2599820  10.3903850  49.7430130
  13.0525140   9.8953080  49.5356090  12.5532970  11.0693990  50.3505740
   6.5177520   3.0403810  22.5055450   5.7419620   2.5604250  22.7954020
   7.1690450   2.3609460  22.3311610  10.5384950   7.4464000  21.2854580
  10.0766480   6.6751240  21.6141750  11.3510500   7.4730070  21.7907030
   6.7648260   9.7322010  20.9058570   6.1459700  10.1879510  20.3353010
   7.6200040   9.8873470  20.5048270   5.9586510   5.7161000  22.5125610
   5.8894790   4.7750940  22.3514740   6.7206370   5.8062410  23.0848180
   7.6311610   4.6161250  18.2990480   7.0128880   5.0810700  17.7353200
   8.1434860   5.3088730  18.7159990   2.4943370   4.1437120  24.9774080
   2.1612750   4.7706040  25.6195150   2.6710050   4.6699000  24.1975750
  12.6240060   7.5757330  24.7077900  11.9403580   8.2456440  24.6994570
  13.1634350   7.7737980  23.9422760  10.1598800   9.4201460  23.4223080
  10.1725960   9.0163750  22.5545340   9.6074020  10.1948750  23.3184510
  11.4544220   6.1417680  18.5113250  11.3440550   5.1992010  18.6362670
  11.4512470   6.5033320  19.3976010   9.5584240   4.3231300  24.7505690
   9.9753030   4.1091410  23.9159150  10.2824060   4.5804090  25.3214310
   6.9964500   1.7683000  17.8675740   6.0693780   1.7020380  18.0964210
   7.1489320   2.7063130  17.7530980  13.5046340   2.7218520  24.8421930
  12.6764970   2.7911610  24.3672060  14.0996820   3.3072830  24.3737760
  11.0261790   3.3303300  18.3710990  10.4074210   2.9922850  17.7237290
  11.0086240   2.6863060  19.0790180   2.6021140   2.2947740  20.6495470
   2.1978140   1.5824990  20.1541370   2.6884260   1.9500980  21.5383510
   3.0702840   5.9815300  22.8134680   2.7731130   5.3760770  22.1342460
   4.0202660   6.0192610  22.7024040  11.1588450   9.5547170  26.4757780
  10.6819010  10.3619360  26.2830390  10.4750240   8.9025500  26.6283990
   9.2026490   2.5690110  15.3783740   9.6419770   1.7312540  15.2321560
   9.9154910   3.2019510  15.4647880   7.3121870   7.5086180  19.3464980
   7.7517780   8.2510510  18.9320370   7.2508760   7.7512750  20.2703940
   2.7872840   8.5332010  30.2485000   2.7588270   8.9374960  29.3813430
   2.6237810   7.6042370  30.0856600  14.7387660   9.3159110  31.5449170
  15.2147380   9.7942000  32.2238250  15.3594820   9.2476600  30.8194670
  14.1420910   6.5071960  28.7049180  14.2683970   6.2683840  27.7866360
  14.1842290   5.6756500  29.1771260   8.0037650  10.2099960  27.2743990
   8.5182320  10.1207970  28.0766420   7.1606730  10.5559660  27.5671900
   9.9792050  10.4955300  16.7027990   9.8193190  10.2058240  17.6009820
   9.8138760   9.7195430  16.1673220   2.4580430  10.2753830  18.4799610
   2.2822910   9.3589370  18.2667410   1.6036170  10.6341120  18.7197410
   9.6818180   8.0042860  15.2625990   8.9883340   8.0020150  14.6028270
  10.4241040   7.5802180  14.8320160   9.2468110   9.6305570  19.3374480
   9.7025060   8.8494950  19.6513100   9.5860630  10.3412390  19.8815660
  11.7975920   3.8684990  22.8447100  12.5175040   4.3640280  22.4543210
  11.5957740   3.1902880  22.2000970   7.1794720   3.9394050  28.7316100
   7.1132030   3.0189720  28.4773690   6.5499860   4.0369490  29.4460740
   5.9694840   5.8066290  15.9626820   6.3110540   6.5508520  15.4670140
   5.1407550   6.1197410  16.3251650   7.1111450   6.7614620  28.4819900
   7.1255990   5.8295580  28.2638810   6.4036550   6.8474380  29.1209670
  13.3222660   3.4021960  27.8288480  12.5970850   3.9950740  27.6317870
  13.8498120   3.3945500  27.0301850  13.2735770   7.7996700  17.4800640
  12.6311930   7.1452320  17.7544360  12.8866430   8.2051790  16.7041310
   8.8522250   5.1282130  21.3272330   9.2046070   4.5310260  20.6673700
   7.9684580   4.8026360  21.4980580   4.9385530   5.8879820  18.7342740
   5.6256660   6.4349030  19.1150330   4.1517950   6.4320550  18.7692350
   4.2412740   2.8925850  18.3468100   4.6975520   3.7031100  18.5728290
   3.8900950   2.5748990  19.1786590   6.5445350   8.4032190  25.5760400
   7.1887570   8.6091570  26.2533820   6.9074790   7.6420590  25.1231250
   7.8177430   6.4064540  24.2937850   8.4599660   5.7057700  24.4070020
   8.3426780   7.1862980  24.1134740  11.6633150   6.6913160  14.0176990
  11.4370730   5.9743600  14.6101630  11.2729350   6.4425600  13.1798740
   9.5915050   7.2059440  27.4973910   9.9271290   7.7926130  28.1751830
   8.6715390   7.0752150  27.7271700  11.2449400   4.6085100  15.6791150
  10.9571100   5.0697790  16.4669030  12.0401570   4.1482870  15.9475370
   5.4203630   7.2550770  30.6661970   5.1000500   6.5360010  31.2107660
   4.7461990   7.9305840  30.7398030   3.4617800   8.1011220  15.6095120
   3.4527900   8.8340910  14.9939630   2.5416160   7.8542800  15.7022080
   6.4477400   8.1639460  14.2720310   6.5489380   7.9603450  13.3422290
   5.5479140   7.9097740  14.4768090   5.0895510  10.6825780  18.9667980
   5.3437010  10.6447170  18.0447350   4.1407990  10.5559110  18.9596230
  13.0973670   8.7726510  22.2180750  13.2221090   9.5957680  22.6904560
  13.9639230   8.5617240  21.8704900   3.6793510  10.0388030  13.7123450
   4.4722120  10.3276860  13.2605240   3.1597860   9.6080200  13.0335930
   8.4114110   6.1583660  31.0258870   7.8052270   6.1815260  30.2854620
   8.1068220   5.4266700  31.5626120   9.8414480   9.8863950  29.6368280
  10.7936230   9.8021970  29.5868520   9.6942700  10.5505660  30.3102070
  12.7323680   9.2658160  15.1360190  12.4465190   8.8523300  14.3214370
  12.5343230  10.1945870  15.0160710   4.1970910   5.2591440  13.5765800
   4.0921550   4.6443790  14.3027180   4.0295130   4.7357330  12.7928810
   4.3485230   3.9448240  29.5555030   3.5830900   4.5133240  29.4709700
   4.5301190   3.6524450  28.6623260   7.4373640   4.3211470  14.1807790
   6.8883740   4.7680770  14.8250530   8.0592900   3.8160720  14.7045460
  11.4908580   5.6753570  30.1130050  12.2318050   6.0129330  29.6097510
  10.7281260   5.8445630  29.5599820   3.1048760   3.2802390  16.0773090
   3.5265180   3.1142260  16.9204480   3.2299600   2.4702620  15.5828230
   5.6176400   2.3040000  13.3250190   6.1382060   1.5889020  12.9591340
   6.2644800   2.9425870  13.6250700  10.1654240   3.7268400  28.6485260
  10.5795260   3.8813480  29.4975680   9.2305240   3.8523620  28.8111040
   4.9269470   3.6788880  26.6181190   5.3457580   4.5221610  26.4457430
   4.0078100   3.8160920  26.3887970   9.6021270   1.9642250  26.5781540
   9.0756490   2.4884870  25.9746680   9.9452610   2.5969640  27.2091270
   2.7776890   9.9841890  27.7338920   2.2397980  10.7087950  27.4147620
   3.0310850   9.5072230  26.9436260   5.6339100  11.2193100  27.9925570
   5.5597800  12.1228240  28.2997940   4.7317940  10.9005000  27.9647640
   6.1824430  10.3851610  15.6151930   7.0775220  10.7236580  15.6370690
   6.2142060   9.6631020  14.9876210  13.1618780   8.9155280  28.3218130
  12.5620770   8.9747840  27.5782050  13.2912680   7.9760260  28.4514980
  14.4020230   6.6573100  13.6587840  13.5713190   6.7249750  14.1295070
  14.5792060   7.5477220  13.3554700  13.8576690   3.4020580  16.1622040
  14.6195600   3.9717230  16.2681730  13.8731060   2.8347780  16.9330350
  14.8636660   4.2570680  21.0063970  15.2345490   3.4738000  20.5999940
  15.5038590   4.9459780  20.8281270  11.8470420   5.6407260  26.4194290
  11.0330260   6.0704420  26.6820080  12.2544620   6.2525670  25.8063340
  13.9095860   3.6954950  13.3194560  14.1844700   4.6033830  13.1913780
  13.7206600   3.6317480  14.2556550  11.9046470  10.3925860  19.9462560
  12.5005540  10.0710430  19.2696980  12.1624620   9.9197680  20.7375830
   3.5115070   8.3803360  25.6962910   3.2706430   8.6477920  24.8093430
   4.4517710   8.5509090  25.7513770  14.7719230  10.3997740  26.4973550
  14.2777510  10.7966610  25.7800680  14.1632520   9.7746950  26.8910830
  12.4558680  11.0421160  23.7760290  11.9961650  11.7936970  23.4018310
  11.8271140  10.3227630  23.7175090   2.8854400   9.3509400  22.9508420
   3.4019420   8.7396760  22.4256680   3.5351780   9.8538180  23.4419430
   5.6249900  10.2417890  23.7777400   5.9127710   9.9872190  22.9010410
   6.1373120   9.6895250  24.3682970   5.6922260  11.1633990  31.1445600
   6.6189570  10.9278260  31.1881560   5.6772690  11.9905990  30.6631630
  13.9267320  10.7059560  18.1419850  14.1019510  10.0197300  17.4980770
  13.2288890  11.2306610  17.7496520   1.7694970  11.0954400  15.6955160
   2.5013790  10.8113680  15.1479050   2.0288640  10.8567680  16.5854540
  12.2599820  10.3903850  30.9686640  13.0525140   9.8953080  30.7612600
  12.5532970  11.0693990  31.5762250   6.5177520   3.0403810   3.7311960
   5.7419620   2.5604250   4.0210530   7.1690450   2.3609460   3.5568120
  10.5384950   7.4464000   2.5111090  10.0766480   6.6751240   2.8398260
  11.3510500   7.4730070   3.0163540   5.9586510   5.7161000   3.7382120
   5.8894790   4.7750940   3.5771250   6.7206370   5.8062410   4.3104690
   2.4943370   4.1437120   6.2030590   2.1612750   4.7706040   6.8451660
   2.6710050   4.6699000   5.4232260  12.6240060   7.5757330   5.9334410
  11.9403580   8.2456440   5.9251080  13.1634350   7.7737980   5.1679270
  10.1598800   9.4201460   4.6479590  10.1725960   9.0163750   3.7801850
   9.6074020  10.1948750   4.5441020   9.5584240   4.3231300   5.9762200
   9.9753030   4.1091410   5.1415660  10.2824060   4.5804090   6.5470820
  13.5046340   2.7218520   6.0678440  12.6764970   2.7911610   5.5928570
  14.0996820   3.3072830   5.5994270   3.0702840   5.9815300   4.0391190
   2.7731130   5.3760770   3.3598970   4.0202660   6.0192610   3.9280550
  11.1588450   9.5547170   7.7014290  10.6819010  10.3619360   7.5086900
  10.4750240   8.9025500   7.8540500   2.7872840   8.5332010  11.4741510
   2.7588270   8.9374960  10.6069940   2.6237810   7.6042370  11.3113110
  14.7387660   9.3159110  12.7705680  15.2147380   9.7942000  13.4494760
  15.3594820   9.2476600  12.0451180  14.1420910   6.5071960   9.9305690
  14.2683970   6.2683840   9.0122870  14.1842290   5.6756500  10.4027770
   8.0037650  10.2099960   8.5000500   8.5182320  10.1207970   9.3022930
   7.1606730  10.5559660   8.7928410  11.7975920   3.8684990   4.0703610
  12.5175040   4.3640280   3.6799720  11.5957740   3.1902880   3.4257480
   7.1794720   3.9394050   9.9572610   7.1132030   3.0189720   9.7030200
   6.5499860   4.0369490  10.6717250   7.1111450   6.7614620   9.7076410
   7.1255990   5.8295580   9.4895320   6.4036550   6.8474380  10.3466180
  13.3222660   3.4021960   9.0544990  12.5970850   3.9950740   8.8574380
  13.8498120   3.3945500   8.2558360   8.8522250   5.1282130   2.5528840
   9.2046070   4.5310260   1.8930210   7.9684580   4.8026360   2.7237090
   6.5445350   8.4032190   6.8016910   7.1887570   8.6091570   7.4790330
   6.9074790   7.6420590   6.3487760   7.8177430   6.4064540   5.5194360
   8.4599660   5.7057700   5.6326530   8.3426780   7.1862980   5.3391250
   9.5915050   7.2059440   8.7230420   9.9271290   7.7926130   9.4008340
   8.6715390   7.0752150   8.9528210   5.4203630   7.2550770  11.8918480
   5.1000500   6.5360010  12.4364170   4.7461990   7.9305840  11.9654540
  13.0973670   8.7726510   3.4437260  13.2221090   9.5957680   3.9161070
  13.9639230   8.5617240   3.0961410   8.4114110   6.1583660  12.2515380
   7.8052270   6.1815260  11.5111130   8.1068220   5.4266700  12.7882630
   9.8414480   9.8863950  10.8624790  10.7936230   9.8021970  10.8125030
   9.6942700  10.5505660  11.5358580   4.3485230   3.9448240  10.7811540
   3.5830900   4.5133240  10.6966210   4.5301190   3.6524450   9.8879770
  11.4908580   5.6753570  11.3386560  12.2318050   6.0129330  10.8354020
  10.7281260   5.8445630  10.7856330  10.1654240   3.7268400   9.8741770
  10.5795260   3.8813480  10.7232190   9.2305240   3.8523620  10.0367550
   4.9269470   3.6788880   7.8437700   5.3457580   4.5221610   7.6713940
   4.0078100   3.8160920   7.6144480   9.6021270   1.9642250   7.8038050
   9.0756490   2.4884870   7.2003190   9.9452610   2.5969640   8.4347780
   2.7776890   9.9841890   8.9595430   2.2397980  10.7087950   8.6404130
   3.0310850   9.5072230   8.1692770   5.6339100  11.2193100   9.2182080
   5.5597800  12.1228240   9.5254450   4.7317940  10.9005000   9.1904150
  13.1618780   8.9155280   9.5474640  12.5620770   8.9747840   8.8038560
  13.2912680   7.9760260   9.6771490  14.8636660   4.2570680   2.2320480
  15.2345490   3.4738000   1.8256450  15.5038590   4.9459780   2.0537780
  11.8470420   5.6407260   7.6450800  11.0330260   6.0704420   7.9076590
  12.2544620   6.2525670   7.0319850   3.5115070   8.3803360   6.9219420
   3.2706430   8.6477920   6.0349940   4.4517710   8.5509090   6.9770280
  14.7719230  10.3997740   7.7230060  14.2777510  10.7966610   7.0057190
  14.1632520   9.7746950   8.1167340  12.4558680  11.0421160   5.0016800
  11.9961650  11.7936970   4.6274820  11.8271140  10.3227630   4.9431600
   2.8854400   9.3509400   4.1764930   3.4019420   8.7396760   3.6513190
   3.5351780   9.8538180   4.6675940   5.6249900  10.2417890   5.0033910
   5.9127710   9.9872190   4.1266920   6.1373120   9.6895250   5.5939480
   5.6922260  11.1633990  12.3702110   6.6189570  10.9278260  12.4138070
   5.6772690  11.9905990  11.8888140  12.2599820  10.3903850  12.1943150
  13.0525140   9.8953080  11.9869110  12.5532970  11.0693990  12.8018760
  67.6828520  60.4024550  63.0930270  90.0000000  90.0000000  90.0000000
