default_name
 20938
  42.6280747  25.0693323  25.7321794  43.1270747  24.8793323  24.7821794
  43.0780747  24.6213323  26.6191794  40.1660747  30.6963323  26.4401794
  40.7130747  29.6623323  26.7851794  40.0360747  28.4633323  27.4411794
  39.5570747  28.7803323  28.3771794  41.1800747  27.4613323  27.7471794
  40.7770747  26.1103323  27.0961794  41.5210747  25.8213323  25.8071794
  39.2600747  26.2493323  26.8351794  39.0350747  27.7393323  26.5131794
  37.6200747  28.2563323  26.7071794  41.2880747  27.3433323  28.8331794
  42.0660747  29.3693323  26.6661794  43.0590747  30.4073323  26.3111794
  43.0850747  30.8373323  24.8221794  42.7260747  29.7693323  23.7561794
  43.4570747  28.4123323  23.8431794  44.8200747  28.6193323  24.2181794
  45.5420747  27.4433323  24.6491794  46.7280747  27.9823323  25.4921794
  46.2330747  28.4593323  26.7501794  47.8310747  26.9143323  25.7271794
  49.1200747  27.4993323  26.3481794  48.8670747  27.9563323  27.6781794
  48.1990747  26.3453323  24.4571794  47.1370747  25.6353323  23.8091794
  47.6290747  25.0433323  22.6231794  46.0200747  26.6273323  23.4171794
  44.9490747  25.8503323  22.8531794  42.4440747  28.1373323  27.2061794
  43.5860747  27.7183323  27.3001794  40.9650747  25.2883323  27.8001794
  41.0940747  26.2513323  24.9051794  38.7170747  25.9973323  27.7541794
  38.9070747  25.5883323  26.0311794  39.3390747  27.9253323  25.4741794
  37.5550747  29.3443323  26.7511794  44.0580747  30.0373323  26.5681794
  42.8800747  31.2923323  26.9351794  42.3790747  31.6673323  24.6991794
  44.0760747  31.2523323  24.5991794  41.6470747  29.5803323  23.7931794
  42.9210747  30.2003323  22.7661794  43.3970747  27.9253323  22.8661794
  42.9530747  27.7773323  24.5791794  44.9190747  26.7973323  25.2841794
  47.1870747  28.8113323  24.9341794  45.3070747  28.1393323  26.8581794
  47.4500747  26.1263323  26.3911794  49.8970747  26.7233323  26.3581794
  49.4820747  28.3233323  25.7191794  47.9760747  28.3683323  27.6611794
  46.7400747  24.8593323  24.4771794  46.8060747  24.8593323  22.1311794
  46.4430747  27.3253323  22.6791794  44.2750747  26.4463323  22.4611794
  31.9370747  26.3093323  24.0531794  32.9050747  26.9183323  24.4751794
  33.0460747  27.5503323  25.8531794  32.1630747  28.1623323  26.0801794
  34.3160747  28.4343323  25.7721794  35.1380747  28.1613323  27.0651794
  36.4970747  27.5263323  26.8241794  34.2360747  27.2693323  27.9451794
  33.3150747  26.5163323  26.9651794  32.0260747  25.9683323  27.5481794
  34.0300747  29.4923323  25.7131794  34.0680747  27.1963323  23.7711794
  34.1930747  26.8853323  22.3301794  34.4740747  25.4013323  21.9941794
  35.4180747  24.6293323  22.9511794  36.7740747  25.2913323  23.2751794
  37.3030747  25.8943323  22.0811794  38.4650747  26.7293323  22.2701794
  38.3930747  27.8903323  21.2431794  37.3110747  28.7703323  21.5671794
  39.7260747  28.6953323  21.1911794  39.7780747  29.7123323  20.0291794
  38.8580747  30.7793323  20.2671794  40.8340747  27.7863323  21.0081794
  40.9720747  26.8043323  22.0411794  42.1190747  26.0143323  21.7951794
  39.7360747  25.8873323  22.0121794  39.8910747  24.8633323  22.9981794
  34.9550747  28.0483323  24.4321794  36.0030747  28.4803323  23.9771794
  35.2940747  29.1153323  27.5871794  36.5150747  26.4383323  26.7671794
  33.6320747  27.9143323  28.5971794  34.8110747  26.5883323  28.5851794
  33.8860747  25.6843323  26.5271794  31.3020747  25.6443323  26.7981794
  35.0030747  27.4903323  21.9081794  33.2710747  27.1883323  21.8221794
  33.5160747  24.8683323  21.9771794  34.8670747  25.3433323  20.9711794
  34.8880747  24.4463323  23.8931794  35.6100747  23.6403323  22.5181794
  37.4500747  24.5313323  23.6831794  36.6300747  26.0443323  24.0561794
  38.4960747  27.1503323  23.2851794  38.2270747  27.4533323  20.2481794
  36.9590747  28.5353323  22.4571794  39.8560747  29.2453323  22.1331794
  40.7980747  30.1093323  19.9451794  39.5430747  29.2013323  19.0861794
  38.0380747  30.3663323  20.6121794  41.0560747  27.2983323  23.0161794
  41.8750747  25.1643323  22.2161794  39.6690747  25.4523323  21.0021794
  39.1130747  24.2753323  22.9221794  30.3860747  22.9253323  33.3271794
  30.5980747  23.1243323  32.1421794  29.6250747  23.7433323  31.1371794
  28.7560747  23.0853323  31.0241794  30.4190747  23.8283323  29.8041794
  30.3960747  25.3123323  29.3431794  31.7240747  25.8533323  28.8511794
  29.8120747  26.1483323  30.5051794  29.2110747  25.1753323  31.5451794
  27.7120747  25.3293323  31.7621794  29.9590747  23.1823323  29.0441794
  31.7940747  22.8933323  31.4781794  32.9230747  22.1833323  32.1141794
  33.7290747  23.0303323  33.1291794  34.0420747  24.5003323  32.7361794
  34.7950747  24.7263323  31.4061794  35.8480747  23.7603323  31.2941794
  36.7510747  23.9383323  30.1801794  36.2360747  23.1893323  28.9181794
  35.1170747  23.8813323  28.3541794  37.3550747  23.0953323  27.8391794
  36.9800747  22.2143323  26.6291794  36.0350747  22.9063323  25.8101794
  38.5540747  22.5443323  28.4201794  39.1120747  23.3243323  29.4851794
  40.2960747  22.7073323  29.9461794  38.1010747  23.3553323  30.6451794
  38.6160747  24.1583323  31.7121794  31.7950747  23.2423323  30.1321794
  32.7140747  23.0643323  29.3471794  29.6900747  25.3783323  28.5061794
  32.4320747  26.1433323  29.6251794  29.0620747  26.8613323  30.1381794
  30.6040747  26.7373323  30.9861794  29.6910747  25.4053323  32.5081794
  27.4550747  25.6013323  32.7871794  33.6080747  21.8373323  31.3301794
  32.5340747  21.2893323  32.6181794  33.1630747  23.0553323  34.0681794
  34.6640747  22.5043323  33.3581794  33.1070747  25.0733323  32.7091794
  34.6400747  24.9413323  33.5431794  35.2000747  25.7463323  31.3991794
  34.0970747  24.6453323  30.5711794  36.8920747  25.0023323  29.9451794
  35.9550747  22.1653323  29.2091794  34.2960747  23.5633323  28.8051794
  37.5670747  24.1003323  27.4621794  37.8880747  21.9943323  26.0511794
  36.5700747  21.2573323  26.9801794  35.3250747  23.2073323  26.4141794
  39.3300747  24.3433323  29.1441794  40.3700747  23.0403323  30.8621794
  37.9410747  22.3173323  30.9731794  37.9030747  24.2033323  32.3811794
  22.3830747  24.2773323  29.7811794  23.5380747  23.9133323  29.6351794
  24.5160747  24.4153323  28.5651794  24.1720747  24.0693323  27.5861794
  25.8460747  23.7143323  28.9261794  26.8060747  24.8223323  29.4051794
  26.7060747  25.1683323  30.8831794  26.3490747  26.0293323  28.5811794
  24.8030747  25.9423323  28.5331794  24.0680747  26.6393323  27.3821794
  26.2510747  23.2053323  28.0401794  24.1900747  22.9233323  30.3781794
  23.4900747  22.0093323  31.3111794  23.2460747  22.5373323  32.7471794
  24.2890747  23.5023323  33.3691794  25.7550747  23.0213323  33.4841794
  25.8060747  21.7393323  34.1271794  27.1370747  21.3323323  34.5261794
  27.7430747  20.3143323  33.5231794  28.0170747  20.9443323  32.2691794
  29.0680747  19.7343323  34.1011794  29.7080747  18.6423323  33.2161794
  30.2500747  19.2353323  32.0331794  28.8010747  19.1533323  35.3951794
  28.3490747  20.0973323  36.3781794  28.1340747  19.4313323  37.6071794
  26.9980747  20.6783323  35.9151794  26.5360747  21.6543323  36.8551794
  25.5010747  22.6843323  29.9861794  26.2390747  21.8053323  30.3971794
  27.8180747  24.5283323  29.1381794  25.6900747  25.3363323  31.2371794
  26.7810747  25.8893323  27.5881794  26.7050747  26.9813323  28.9961794
  24.4200747  26.3663323  29.4711794  22.9890747  26.5003323  27.4601794
  24.0780747  21.0863323  31.3881794  22.5270747  21.7243323  30.8721794
  22.2850747  23.0663323  32.7411794  23.1060747  21.6773323  33.4141794
  24.2730747  24.4433323  32.8081794  23.9440747  23.7593323  34.3771794
  26.3080747  23.7633323  34.0731794  26.2270747  22.9783323  32.5011794
  27.8190747  22.1923323  34.6131794  27.0340747  19.4843323  33.3901794
  27.1680747  21.1473323  31.8111794  29.7980747  20.5483323  34.2151794
  30.5040747  18.1423323  33.7841794  28.9530747  17.8863323  32.9641794
  29.5770747  19.8863323  31.7381794  29.0900747  20.8983323  36.5071794
  27.5310747  20.0453323  38.0681794  26.2860747  19.8423323  35.8381794
  25.7740747  22.0893323  36.4231794  25.7130747  26.5293323  21.4731794
  25.9160747  26.4063323  22.6691794  26.6190747  27.4093323  23.5771794
  27.6440747  27.5353323  23.2311794  26.6330747  26.7573323  24.9831794
  25.9350747  27.7543323  25.9481794  24.5110747  27.3603323  26.3231794
  25.9960747  29.0973323  25.1981794  25.9170747  28.7783323  23.6901794
  26.5010747  29.7653323  22.6721794  27.6730747  26.5903323  25.2931794
  25.5520747  25.3203323  23.4541794  24.9330747  24.1033323  22.8841794
  23.4460747  24.2553323  22.4751794  22.5550747  25.1533323  23.3731794
  22.4270747  24.7363323  24.8521794  21.9160747  23.3983323  24.9261794
  21.5540747  22.9923323  26.2631794  22.2190747  21.6323323  26.5741794
  23.6400747  21.7903323  26.5891794  21.7030747  21.1033323  27.9411794
  22.2520747  19.7123323  28.3191794  23.6210747  19.8243323  28.7171794
  20.2640747  21.0123323  27.8871794  19.5990747  22.2723323  27.6991794
  18.2010747  22.0603323  27.6711794  20.0180747  22.8513323  26.3301794
  19.3990747  24.1273323  26.1271794  25.9570747  25.3973323  24.7841794
  25.8360747  24.5123323  25.6161794  26.5330747  27.8983323  26.8521794
  23.7600747  27.7433323  25.6321794  26.9720747  29.5243323  25.4391794
  25.2200747  29.7983323  25.5301794  24.8550747  28.6303323  23.4471794
  26.3550747  29.4103323  21.6511794  25.0050747  23.2963323  23.6231794
  25.5160747  23.7893323  22.0091794  23.4210747  24.6813323  21.4641794
  22.9980747  23.2573323  22.3911794  22.9290747  26.1833323  23.3321794
  21.5490747  25.1833323  22.9361794  21.7490747  25.4383323  25.3541794
  23.3970747  24.8003323  25.3501794  21.8720747  23.7243323  27.0201794
  21.9230747  20.9123323  25.7961794  23.8830747  22.2543323  25.7631794
  21.9830747  21.8093323  28.7301794  21.6550747  19.3073323  29.1481794
  22.1450747  19.0283323  27.4671794  24.0810747  20.3083323  28.0011794
  19.8620747  22.9673323  28.5091794  17.8730747  22.8803323  27.2561794
  19.6970747  22.1353323  25.5591794  19.7260747  24.4543323  25.2671794
  31.7350747  32.5883323  22.7911794  30.8510747  31.9843323  23.3711794
  29.8150747  32.5853323  24.3211794  30.3370747  32.9433323  25.2181794
  28.8770747  31.4063323  24.6811794  27.4810747  31.7253323  24.0701794
  27.1600747  30.9393323  22.8071794  27.4910747  33.2463323  23.8071794
  28.9600747  33.6963323  23.6751794  29.2280747  35.0543323  24.3001794
  28.8020747  31.3063323  25.7691794  30.6330747  30.6133323  23.3201794
  31.5950747  29.6923323  22.6711794  31.4830747  29.6213323  21.1271794
  30.0610747  29.3903323  20.5651794  29.3550747  28.1153323  21.0651794
  30.0040747  26.9543323  20.5211794  29.2670747  25.7243323  20.7211794
  29.7520747  24.9753323  21.9911794  29.4270747  25.7143323  23.1721794
  29.1060747  23.5623323  22.0661794  29.6410747  22.7023323  23.2341794
  29.1850747  23.2303323  24.4821794  29.3960747  22.8533323  20.8431794
  28.8640747  23.4623323  19.6551794  29.2090747  22.6763323  18.5331794
  29.5150747  24.8493323  19.4771794  28.9670747  25.4963323  18.3251794
  29.5950747  30.1693323  24.1361794  29.3780747  29.0113323  24.4531794
  26.6880747  31.5543323  24.8021794  27.4890747  31.4333323  21.8921794
  27.0210747  33.7473323  24.6611794  26.9080747  33.5203323  22.9181794
  29.1990747  33.7443323  22.6021794  29.7260747  35.7663323  23.6401794
  31.4350747  28.6853323  23.0691794  32.6130747  29.9963323  22.9431794
  31.8630747  30.5623323  20.7101794  32.1470747  28.8343323  20.7541794
  29.4360747  30.2533323  20.8211794  30.1080747  29.3633323  19.4701794
  28.3060747  28.1503323  20.7431794  29.3790747  28.0903323  22.1551794
  28.1850747  25.9123323  20.7961794  30.8410747  24.8403323  21.9161794
  30.2640747  26.1433323  23.4701794  28.0180747  23.6623323  22.1791794
  29.2850747  21.6693323  23.1111794  30.7380747  22.6803323  23.1981794
  29.2220747  24.2043323  24.3911794  27.7720747  23.5573323  19.7281794
  29.1070747  23.3113323  17.7981794  30.5990747  24.6993323  19.3621794
  29.2310747  26.4353323  18.3941794  25.8140747  38.0143323  29.2611794
  26.3560747  37.7303323  28.2071794  27.8280747  37.9333323  27.8711794
  28.1190747  38.9703323  28.0861794  27.9440747  37.6533323  26.3541794
  29.2070747  36.7703323  26.1541794  28.9120747  35.4073323  25.5591794
  29.8710747  36.6623323  27.5481794  28.7630747  36.9333323  28.5871794
  29.2250747  37.4933323  29.9241794  28.0490747  38.6003323  25.8101794
  25.7330747  37.2043323  27.0821794  24.2660747  37.3173323  26.9101794
  23.4070747  36.2933323  27.6901794  23.9090747  34.8293323  27.7221794
  24.3640747  34.2273323  26.3781794  23.4280747  34.5763323  25.3441794
  23.8700747  34.2773323  24.0011794  23.3180747  35.3643323  23.0451794
  23.9340747  36.6253323  23.3331794  23.5700747  34.9853323  21.5551794
  22.8530747  35.9243323  20.5591794  23.4460747  37.2233323  20.5931794
  23.0760747  33.6503323  21.3081794  23.6890747  32.6243323  22.1001794
  23.1460747  31.3693323  21.7451794  23.3430747  32.8853323  23.5781794
  23.9080747  31.8483323  24.3871794  26.5800747  37.0543323  25.9791794
  26.2530747  36.6213323  24.8841794  29.8980747  37.3003323  25.4831794
  28.4080747  34.7103323  26.2241794  30.6450747  37.4383323  27.6251794
  30.3560747  35.6903323  27.7091794  28.2030747  36.0033323  28.7581794
  28.4340747  37.9843323  30.4941794  24.0270747  37.2153323  25.8461794
  23.9590747  38.3293323  27.2021794  23.3170747  36.6383323  28.7271794
  22.3910747  36.3143323  27.2761794  24.7420747  34.7583323  28.4311794
  23.1100747  34.2003323  28.1331794  24.4490747  33.1413323  26.4931794
  25.3620747  34.6113323  26.1411794  24.9630747  34.2893323  23.9331794
  22.2310747  35.4373323  23.1971794  24.7470747  36.4713323  23.8661794
  24.6470747  35.0193323  21.3451794  22.9340747  35.5013323  19.5481794
  21.7860747  35.9773323  20.8111794  23.5880747  37.4373323  21.5391794
  24.7770747  32.6183323  21.9501794  23.3240747  30.8413323  22.5461794
  22.2450747  32.8903323  23.6621794  23.6720747  32.0673323  25.3101794
  34.0430747  35.4853323  33.6021794  32.9080747  35.8833323  33.3921794
  32.4300747  37.3333323  33.4451794  32.4710747  37.6743323  34.4841794
  30.9600747  37.2933323  32.9641794  30.8500747  38.2023323  31.7081794
  30.4740747  37.4843323  30.4211794  32.2000747  38.9453323  31.5601794
  33.2190747  38.2673323  32.5041794  34.1200747  39.2293323  33.2631794
  30.3050747  37.6673323  33.7611794  31.8210747  35.0953323  33.0431794
  31.8060747  33.6403323  33.3081794  32.6010747  32.7613323  32.3121794
  32.6370747  33.2143323  30.8281794  31.2840747  33.5613323  30.1761794
  30.3110747  32.5603323  30.5301794  28.9360747  32.9253323  30.2751794
  28.0360747  32.2813323  31.3631794  28.2910747  32.8833323  32.6351794
  26.5200747  32.4143323  31.0131794  25.6120747  31.5623323  31.9271794
  25.6020747  32.0943323  33.2521794  26.2850747  31.9723323  29.6551794
  27.0330747  32.6823323  28.6631794  26.7110747  32.1993323  27.3801794
  28.5210747  32.3773323  28.8961794  29.3120747  32.9453323  27.8511794
  30.6530747  35.8083323  32.7661794  29.5690747  35.3263323  32.4701794
  30.0740747  38.9523323  31.9201794  31.2930747  37.0013323  29.8891794
  32.0710747  40.0043323  31.8091794  32.5640747  38.9233323  30.5251794
  33.8600747  37.6353323  31.8711794  35.1820747  39.0483323  33.0961794
  30.7660747  33.2973323  33.3091794  32.1880747  33.4663323  34.3201794
  33.6380747  32.7083323  32.6641794  32.2120747  31.7373323  32.3691794
  33.2940747  34.0893323  30.7431794  33.1140747  32.4203323  30.2411794
  31.4230747  33.6283323  29.0921794  30.9650747  34.5493323  30.5201794
  28.7960747  34.0163323  30.3051794  28.2750747  31.2093323  31.4161794
  28.6980747  33.7713323  32.5041794  26.2160747  33.4663323  31.1111794
  24.5930747  31.5613323  31.5191794  25.9680747  30.5233323  31.9311794
  26.5270747  32.3353323  33.4711794  26.8370747  33.7613323  28.7271794
  27.5430747  32.4013323  26.9091794  28.6340747  31.2813323  28.9151794
  30.2340747  32.8513323  28.1621794  34.6760747  42.4963323  37.7531794
  33.8640747  41.7063323  37.3021794  32.5880747  42.0533323  36.5291794
  31.8510747  42.4443323  37.2421794  32.0950747  40.6863323  36.0011794
  32.3680747  40.6913323  34.4811794  33.7710747  40.2253323  34.1031794
  32.2290747  42.1783323  34.1031794  32.7870747  42.9913323  35.3021794
  32.1410747  44.3583323  35.5341794  31.0230747  40.5673323  36.2021794
  33.9130747  40.3193323  37.4321794  34.8030747  39.6403323  38.3991794
  36.2510747  39.4023323  37.9101794  36.4430747  38.8613323  36.4671794
  35.6950747  37.5643323  36.0811794  35.7860747  36.6223323  37.1601794
  35.3600747  35.2823323  36.8271794  33.9120747  35.0153323  37.3191794
  32.9690747  35.7833323  36.5641794  33.5770747  33.5023323  37.1671794
  32.1940747  33.1103323  37.7321794  31.1610747  33.6333323  36.8941794
  34.5670747  32.7263323  37.8721794  35.9010747  32.8643323  37.3601794
  36.7780747  32.0513323  38.1141794  36.3420747  34.3293323  37.5391794
  37.6550747  34.5123323  37.0011794  32.8740747  39.6503323  36.7981794
  32.5990747  38.4673323  36.9101794  31.6000747  40.0903323  33.9831794
  34.5710747  40.8123323  34.5511794  31.1730747  42.4103323  33.9471794
  32.7570747  42.3903323  33.1661794  33.8680747  43.1353323  35.1621794
  31.8710747  44.5493323  36.5731794  34.3640747  38.6683323  38.6581794
  34.8330747  40.2333323  39.3221794  36.7900747  40.3563323  37.9791794
  36.7470747  38.7263323  38.6171794  36.1750747  39.6463323  35.7531794
  37.5150747  38.6853323  36.3201794  36.1550747  37.1573323  35.1711794
  34.6520747  37.7823323  35.8401794  35.4160747  35.0953323  35.7441794
  33.8500747  35.2723323  38.3871794  33.0640747  36.7333323  36.8061794
  33.6010747  33.2363323  36.1021794  32.1230747  32.0153323  37.7771794
  32.0950747  33.4913323  38.7581794  31.4170747  34.5593323  36.7001794
  35.9350747  32.5783323  36.3001794  37.6440747  32.4713323  37.9471794
  36.3260747  34.5503323  38.6171794  37.7950747  35.4803323  36.9761794
  28.8600747  48.4873323  32.4401794  29.3790747  47.3863323  32.4981794
  30.7400747  46.9943323  31.9231794  30.7210747  47.1133323  30.8311794
  30.9210747  45.4973323  32.2951794  32.2020747  45.3993323  33.1681794
  31.8940747  45.3523323  34.6581794  32.9860747  46.6793323  32.8151794
  31.9200747  47.7663323  32.5551794  32.3570747  48.9433323  31.6991794
  31.0300747  44.8993323  31.3811794  28.8360747  46.2583323  33.1021794
  27.4420747  46.2253323  33.5991794  27.2030747  46.9563323  34.9431794
  28.2410747  46.7243323  36.0731794  28.5340747  45.2583323  36.4561794
  27.2950747  44.5373323  36.5551794  27.3820747  43.1743323  37.0321794
  27.7270747  42.2023323  35.8691794  29.1010747  42.3613323  35.5111794
  27.4790747  40.7133323  36.2601794  27.5800747  39.7383323  35.0611794
  28.8790747  39.8093323  34.4651794  26.1480747  40.5803323  36.7941794
  25.8950747  41.3463323  37.9811794  24.5760747  41.0953323  38.4211794
  25.9970747  42.8413323  37.6221794  25.7810747  43.6383323  38.7911794
  29.6140747  45.1093323  32.9901794  29.2880747  43.9873323  33.3431794
  32.8010747  44.5353323  32.8691794  31.4380747  46.2633323  35.0451794
  33.5590747  46.4913323  31.8981794  33.6940747  46.9713323  33.6031794
  31.5890747  48.1583323  33.5271794  31.5540747  49.6443323  31.4611794
  27.1360747  45.1783323  33.7211794  26.7890747  46.6633323  32.8341794
  27.1700747  48.0343323  34.7411794  26.2040747  46.6903323  35.3101794
  29.1850747  47.2073323  35.7961794  27.8880747  47.2493323  36.9701794
  29.0730747  45.2393323  37.4121794  29.1870747  44.8213323  35.6981794
  28.1320747  43.0773323  37.8301794  27.0710747  42.4383323  35.0161794
  29.1450747  43.0753323  34.8291794  28.2100747  40.4083323  37.0211794
  27.3750747  38.7163323  35.4111794  26.8050747  39.9933323  34.3251794
  29.1700747  40.7373323  34.5961794  26.6130747  41.0843323  38.7701794
  24.3910747  41.8683323  38.9891794  25.2310747  43.0493323  36.8591794
  25.9690747  44.5613323  38.5301794  33.5950747  49.1823323  31.2341794
  34.4440747  48.5363323  31.4441794  33.8000747  50.0633323  30.6261794
  64.7089950  61.3956060  45.7608370  64.6284000  60.4810670  45.4900080
  64.2954370  61.8923130  45.0548080  62.8407990  63.1735080  47.6417640
  62.0650090  62.6935520  47.9316210  63.4920920  62.4940730  47.4673800
  56.8573820  63.4854890  48.5193400  56.0258700  63.2303600  48.9189910
  57.4654800  63.5565660  49.2551320  55.2665770  58.4456780  42.3035790
  54.3782470  58.7872750  42.2015670  55.5506960  58.2457100  41.4116620
  53.2298780  61.0462430  48.1875490  53.8014890  60.2784630  48.1879130
  53.2300320  61.3451190  47.2782100  62.2816980  65.8492270  47.6487800
  62.2125260  64.9082210  47.4876930  63.0436840  65.9393680  48.2210370
  54.4723650  56.4546790  49.9744420  54.2926490  55.5572540  50.2547180
  54.0703730  57.0018660  50.6491370  63.3122150  58.6562650  47.8756730
  63.6886970  57.7834530  47.7630400  63.2141660  58.9921350  46.9847170
  57.4427160  57.0288280  43.3374170  57.5493910  57.9292010  43.6442930
  56.5319520  56.9806250  43.0468820  55.0910320  58.9507290  48.5826760
  55.7720430  59.2145660  49.2014160  54.7758370  58.1108160  48.9164770
  59.2834890  59.9974650  47.6699350  59.7913110  60.4955620  48.3104370
  59.8148130  59.2209850  47.4938710  57.5670990  54.6373210  51.9362770
  57.5689430  55.1545600  51.1308670  56.7375300  54.1603390  51.9132700
  63.9542080  64.7492520  43.4352670  63.3359350  65.2141970  42.8715390
  64.4665330  65.4420000  43.8522180  58.8173840  64.2768390  50.1136270
  58.4843220  64.9037310  50.7557340  58.9940520  64.8030270  49.3337940
  57.2486320  56.3483170  49.9433220  57.5903130  57.1925220  49.6487090
  56.3102130  56.4966910  50.0598560  53.3225280  65.4349050  40.8092300
  52.9453260  65.9236150  40.0777200  53.5798350  66.1074330  41.4398830
  60.9314210  53.8365440  46.2677810  61.2389190  53.2812330  45.5513310
  60.0014910  53.9709900  46.0850800  63.3194970  61.9014270  43.0037930
  62.3924250  61.8351650  43.2326400  63.4719790  62.8394400  42.8893170
  63.3064050  58.1731270  40.0005090  62.3667720  58.3345230  40.0857550
  63.6247310  58.8916950  39.4541080  58.9251610  62.4279010  45.7857660
  58.5208610  61.7156260  45.2903560  59.0114730  62.0832250  46.6745700
  59.3933310  66.1146570  47.9496870  59.0961600  65.5092040  47.2704650
  60.3433130  66.1523880  47.8386230  57.6380230  59.2022220  49.5656700
  58.1894820  59.3117560  48.7909950  58.1523740  59.5759820  50.2811930
  58.4851740  65.8528260  54.6004670  57.5880270  66.0768230  54.8478070
  58.5104610  65.9763200  53.6516070  65.5256960  62.7021380  40.5145930
  65.9650240  61.8643810  40.3683750  66.2385380  63.3350780  40.6010070
  57.3122960  62.7241580  53.1762040  57.1730730  63.5964380  53.5449440
  56.4304320  62.3814390  53.0309980  55.6256240  61.3223990  43.2864310
  55.5053840  62.0486080  42.6745580  55.3157130  60.5526900  42.8092220
  53.2641610  64.4939130  49.0932950  53.3422030  64.6287900  48.1488670
  53.8783290  63.7855020  49.2861070  54.5089240  66.1939320  45.5039130
  54.1017320  66.3353910  44.6492730  55.4002250  65.9099480  45.3010340
  53.3201130  65.5353300  51.6327410  53.4832170  65.0658660  50.8146780
  53.7853580  65.0276860  52.2976250  58.0919900  54.6659060  46.6687980
  57.6488050  55.4468600  46.3372500  58.6504890  54.9888950  47.3758920
  62.3789710  57.5327580  52.2723300  61.9169080  57.7410600  53.0843240
  61.9767820  56.7186930  51.9693970  64.4743930  60.2538280  55.5018750
  64.7997340  59.4202030  55.1620980  65.2624260  60.7766800  55.6497080
  61.2078720  54.2869760  41.5493810  60.5832900  54.2829630  42.2747120
  61.1208840  53.4200720  41.1529780  60.1295800  55.2106390  48.5277580
  60.4268130  56.1169220  48.4469600  60.6781360  54.7225170  47.9137150
  57.8834120  59.7892630  44.3969230  57.6575040  59.5729800  45.3015850
  57.1026650  60.2221090  44.0515200  65.1131880  59.7956000  42.9959880
  64.5140770  60.5191800  42.8123500  65.6611490  59.7332780  42.2136330
  60.3233330  60.6878210  55.0629500  60.2276930  59.7472940  54.9129900
  61.1665310  60.9093280  54.6677570  63.7196750  58.4319540  45.0263160
  64.1126320  58.7491740  44.2131850  64.0813600  57.5531420  45.1407680
  55.4543870  57.0991880  53.2163280  55.0607260  57.9467090  53.4236060
  54.7662270  56.4618250  53.4071920  52.7560920  55.0220340  47.2493360
  52.4673970  55.5923200  47.9618340  53.5006680  54.5424790  47.6124590
  52.9431150  58.9640460  38.4596080  52.8605820  59.9071220  38.6011070
  52.5914210  58.8215370  37.5808430  64.3051890  61.0225290  49.1213940
  63.5733010  61.5312100  49.4704040  63.9076230  60.2055270  48.8202720
  60.7429280  57.6979490  47.5266430  60.7465340  57.2569440  46.6770970
  61.6380400  58.0196820  47.6338250  56.5931660  57.5805980  46.4860640
  56.2531710  58.0581210  47.2427690  55.8308980  57.1271100  46.1261740
  60.8049430  58.6991570  40.5173190  60.9262250  58.6578050  41.4659010
  60.4197940  59.5615720  40.3619920  64.7677800  56.4758970  48.5336880
  64.7850540  56.9267620  49.3778730  64.5193380  55.5764610  48.7470320
  59.8170930  61.0092710  39.9156490  59.2487830  60.5610960  39.2892400
  60.5259930  61.3685490  39.3821640  54.8940110  64.9104730  53.7923220
  54.5094900  64.2698400  54.3906180  55.2052300  65.6140850  54.3617950
  61.0437250  61.7581270  49.2731840  61.4107380  61.2839840  50.0193180
  60.8542310  62.6322840  49.6140180  53.9077740  56.5024960  45.4025310
  53.6224660  56.1380630  46.2403930  53.8456600  55.7705420  44.7888450
  58.8336620  60.7989910  51.5916050  58.5293690  61.6781890  51.8166410
  59.7883080  60.8589700  51.6273490  57.3618410  65.0050900  42.1882900
  56.5880670  64.4648520  42.0281620  58.0913040  64.4857510  41.8500660
  63.5816330  55.3954220  42.1238680  62.7680940  54.8967390  42.0483990
  63.3878280  56.2352470  41.7075030  63.5025190  64.0725320  53.8678290
  63.4362500  63.1520990  53.6135880  62.8730330  64.1700760  54.5822930
  57.4055810  64.6731280  45.8261710  57.9234480  63.8699540  45.7718600
  56.9539830  64.6110420  46.6678540  54.8900350  61.6392650  52.7387410
  54.5315290  62.3046500  53.3260750  54.5954910  60.8076200  53.1100030
  58.0913470  62.0976890  55.6226960  57.7913610  62.2434070  54.7254780
  58.8624710  61.5382180  55.5300350  65.1752720  65.2613400  46.4634520
  65.5276540  64.6641530  45.8035890  64.2915050  64.9357630  46.6342770
  53.4008400  61.6383910  39.3622010  54.2703250  61.9208710  39.6457930
  52.9098720  62.4519780  39.2470820  60.5643210  63.0257120  43.4830290
  61.0205990  63.8362370  43.7090480  60.2131420  62.7080260  44.3148780
  56.4654990  53.3694770  43.9552810  56.3369620  53.3612670  44.9037730
  55.6417010  53.7077860  43.6043820  53.4648920  55.1285890  53.4159510
  52.7507440  55.3282810  54.0212120  53.8843960  54.3525460  53.7874310
  55.3854910  63.4557380  41.4904070  54.7782860  64.1956280  41.4999370
  55.8604260  63.5456740  40.6642270  64.9587700  57.6208200  51.1660960
  65.3268520  56.8003410  51.4940530  64.0985900  57.6810090  51.5816610
  60.2933760  58.8551090  43.3906400  59.5849910  59.3237430  43.8320010
  60.5778240  58.1973100  44.0251590  61.9189690  60.2747790  51.3898930
  62.4174940  60.7493610  52.0550780  62.0612640  59.3511310  51.5968960
  64.3249190  55.5801750  44.8302190  64.2016970  55.5987880  43.8811700
  65.2733750  55.6280690  44.9500590  58.4968780  57.1636170  40.7657110
  59.3459310  57.6006320  40.6997300  58.1300050  57.4756430  41.5929170
  57.3960200  63.4168530  39.2392640  58.1623470  63.3049890  39.8018070
  57.4734890  62.7206500  38.5869410  56.0906960  60.8493600  39.9225530
  56.1710550  59.9021110  40.0342930  56.9826710  61.1800480  40.0286190
  60.5201380  65.3922710  38.7127990  60.4152020  64.7775060  39.4389370
  60.3525600  64.8688600  37.9291000  60.6715700  64.0779510  54.6917220
  59.9061370  64.6464510  54.6071890  60.8531660  63.7855720  53.7985450
  63.7604110  64.4542740  39.3169980  63.2114210  64.9012040  39.9612720
  64.3823370  63.9491990  39.8407650  59.4279230  63.4133660  41.2135280
  59.8495650  63.2473530  42.0566670  59.5530070  62.6033890  40.7190420
  57.5906650  59.3930210  54.0206260  57.0603110  58.9021160  53.3929600
  58.2594720  59.8214410  53.4864190  61.9406870  62.4371270  38.4612380
  62.4612530  61.7220290  38.0953530  62.5875270  63.0757140  38.7612890
  58.0778950  56.3592580  54.1003550  57.9835820  55.7413330  53.3754420
  57.4976340  57.0858870  53.8733460  60.8440390  54.9165820  51.1330940
  60.3957690  54.9390080  50.2876490  60.2105590  54.5184840  51.7301240
  61.2499940  63.8120150  51.7543380  61.6688050  64.6552880  51.5819620
  60.3308570  63.9492190  51.5250160  63.5863840  61.5436330  53.1381220
  63.7060050  60.9477470  53.8776060  64.4457840  61.5806020  52.7182520
  58.3238130  59.4866890  38.1593440  58.1227190  58.6234250  38.5206780
  58.1530180  59.4000250  37.2215040  60.3532610  58.0857680  54.3957040
  60.9432300  57.7773530  55.0834860  59.5352850  57.6137430  54.5516940
  65.1726040  57.7023490  54.6290060  64.4841560  57.0405030  54.5640050
  65.8932060  57.2561760  55.0738520  65.8026440  54.2975120  40.6880320
  66.0828730  53.4543020  41.0439740  65.0292170  54.5298230  41.2019070
  57.1220930  56.5867510  38.1471320  57.4246830  56.5934940  37.2390470
  57.8615520  56.2365370  38.6438980  60.3405860  55.5302130  39.1327520
  59.9927860  54.8526120  38.5529970  60.5418630  55.0691640  39.9470910
  56.1451060  65.8909930  38.9801120  56.5825930  66.4339600  39.6358700
  56.6298790  65.0656880  38.9897460  53.6811500  62.0589780  45.5291890
  53.0260340  61.7901420  44.8851590  54.5189450  61.9494260  45.0793870
  54.7187430  62.4442350  50.0695230  55.0860470  62.3569750  50.9491250
  54.1498250  61.6808900  49.9702090  54.2703430  59.3551440  53.9753650
  53.3759480  59.3218200  54.3147360  54.8100980  59.5538230  54.7404900
  52.8949580  59.2688710  41.4717220  51.9913660  59.5318910  41.2968880
  53.3790200  59.5399880  40.6917180  55.4376790  58.3254250  39.3811600
  56.1468490  57.9037470  38.8958880  54.7216730  58.3929480  38.7494950
  55.0850950  54.3793580  38.4214250  55.8079080  54.9202520  38.7395470
  55.3575470  54.1057000  37.5455790  54.7743140  53.6299770  48.3236870
  55.4219330  53.0797150  47.8832030  55.1944980  53.8842920  49.1452680
  54.5275140  53.7855440  51.0662190  54.1789960  54.2419260  51.8320370
  54.1962840  52.8912570  51.1484620  62.0399960  54.9767320  54.5881610
  61.9788850  55.5689150  55.3377020  62.9800340  54.8693280  54.4431870
  64.6774520  54.6337380  54.2273900  65.2914930  54.9516670  53.5654980
  65.2224080  54.1485970  54.8469760  55.1995780  53.3131640  54.3412960
  55.7478770  53.1319690  53.5779070  55.2651090  52.5225750  54.8769270
  65.4182560  53.1969520  50.5543190  64.5442400  53.5304630  50.3516120
  65.3093310  52.7242700  51.3795060  63.1657380  54.1139360  49.4936100
  62.3829170  54.5884860  49.7732860  62.8720310  53.2094190  49.3849280
  54.5097790  54.4186840  42.0149820  55.2677150  54.5315720  41.4413850
  54.0474960  55.2556040  41.9693250  61.0511600  56.5326110  45.0052130
  60.2386110  56.1583000  44.6648010  61.5553240  55.7771190  45.3073320
  65.5536580  53.1968560  46.2435200  66.1565950  53.7688770  46.7183720
  64.8129570  53.7608000  46.0209100  56.8822940  54.9450890  40.5551790
  57.4115700  54.1580690  40.4259740  57.5151260  55.6242080  40.7887320
  59.0760780  54.6826030  43.6097180  58.4463520  53.9813340  43.7767310
  58.5365920  55.4430160  43.3930340  64.7089950  61.3956060  26.9864880
  64.6284000  60.4810670  26.7156590  64.2954370  61.8923130  26.2804590
  62.8407990  63.1735080  28.8674150  62.0650090  62.6935520  29.1572720
  63.4920920  62.4940730  28.6930310  56.8573820  63.4854890  29.7449910
  56.0258700  63.2303600  30.1446420  57.4654800  63.5565660  30.4807830
  55.2665770  58.4456780  23.5292300  54.3782470  58.7872750  23.4272180
  55.5506960  58.2457100  22.6373130  53.2298780  61.0462430  29.4132000
  53.8014890  60.2784630  29.4135640  53.2300320  61.3451190  28.5038610
  62.2816980  65.8492270  28.8744310  62.2125260  64.9082210  28.7133440
  63.0436840  65.9393680  29.4466880  54.4723650  56.4546790  31.2000930
  54.2926490  55.5572540  31.4803690  54.0703730  57.0018660  31.8747880
  63.3122150  58.6562650  29.1013240  63.6886970  57.7834530  28.9886910
  63.2141660  58.9921350  28.2103680  57.4427160  57.0288280  24.5630680
  57.5493910  57.9292010  24.8699440  56.5319520  56.9806250  24.2725330
  55.0910320  58.9507290  29.8083270  55.7720430  59.2145660  30.4270670
  54.7758370  58.1108160  30.1421280  59.2834890  59.9974650  28.8955860
  59.7913110  60.4955620  29.5360880  59.8148130  59.2209850  28.7195220
  57.5670990  54.6373210  33.1619280  57.5689430  55.1545600  32.3565180
  56.7375300  54.1603390  33.1389210  63.9542080  64.7492520  24.6609180
  63.3359350  65.2141970  24.0971900  64.4665330  65.4420000  25.0778690
  58.8173840  64.2768390  31.3392780  58.4843220  64.9037310  31.9813850
  58.9940520  64.8030270  30.5594450  57.2486320  56.3483170  31.1689730
  57.5903130  57.1925220  30.8743600  56.3102130  56.4966910  31.2855070
  53.3225280  65.4349050  22.0348810  52.9453260  65.9236150  21.3033710
  53.5798350  66.1074330  22.6655340  60.9314210  53.8365440  27.4934320
  61.2389190  53.2812330  26.7769820  60.0014910  53.9709900  27.3107310
  63.3194970  61.9014270  24.2294440  62.3924250  61.8351650  24.4582910
  63.4719790  62.8394400  24.1149680  63.3064050  58.1731270  21.2261600
  62.3667720  58.3345230  21.3114060  63.6247310  58.8916950  20.6797590
  58.9251610  62.4279010  27.0114170  58.5208610  61.7156260  26.5160070
  59.0114730  62.0832250  27.9002210  59.3933310  66.1146570  29.1753380
  59.0961600  65.5092040  28.4961160  60.3433130  66.1523880  29.0642740
  57.6380230  59.2022220  30.7913210  58.1894820  59.3117560  30.0166460
  58.1523740  59.5759820  31.5068440  58.4851740  65.8528260  35.8261180
  57.5880270  66.0768230  36.0734580  58.5104610  65.9763200  34.8772580
  65.5256960  62.7021380  21.7402440  65.9650240  61.8643810  21.5940260
  66.2385380  63.3350780  21.8266580  57.3122960  62.7241580  34.4018550
  57.1730730  63.5964380  34.7705950  56.4304320  62.3814390  34.2566490
  55.6256240  61.3223990  24.5120820  55.5053840  62.0486080  23.9002090
  55.3157130  60.5526900  24.0348730  53.2641610  64.4939130  30.3189460
  53.3422030  64.6287900  29.3745180  53.8783290  63.7855020  30.5117580
  54.5089240  66.1939320  26.7295640  54.1017320  66.3353910  25.8749240
  55.4002250  65.9099480  26.5266850  53.3201130  65.5353300  32.8583920
  53.4832170  65.0658660  32.0403290  53.7853580  65.0276860  33.5232760
  58.0919900  54.6659060  27.8944490  57.6488050  55.4468600  27.5629010
  58.6504890  54.9888950  28.6015430  62.3789710  57.5327580  33.4979810
  61.9169080  57.7410600  34.3099750  61.9767820  56.7186930  33.1950480
  64.4743930  60.2538280  36.7275260  64.7997340  59.4202030  36.3877490
  65.2624260  60.7766800  36.8753590  61.2078720  54.2869760  22.7750320
  60.5832900  54.2829630  23.5003630  61.1208840  53.4200720  22.3786290
  60.1295800  55.2106390  29.7534090  60.4268130  56.1169220  29.6726110
  60.6781360  54.7225170  29.1393660  57.8834120  59.7892630  25.6225740
  57.6575040  59.5729800  26.5272360  57.1026650  60.2221090  25.2771710
  65.1131880  59.7956000  24.2216390  64.5140770  60.5191800  24.0380010
  65.6611490  59.7332780  23.4392840  60.3233330  60.6878210  36.2886010
  60.2276930  59.7472940  36.1386410  61.1665310  60.9093280  35.8934080
  63.7196750  58.4319540  26.2519670  64.1126320  58.7491740  25.4388360
  64.0813600  57.5531420  26.3664190  55.4543870  57.0991880  34.4419790
  55.0607260  57.9467090  34.6492570  54.7662270  56.4618250  34.6328430
  62.0288920  57.1826850  37.5116530  61.3387240  56.9899050  38.1462620
  62.7721220  57.4661490  38.0440830  52.7560920  55.0220340  28.4749870
  52.4673970  55.5923200  29.1874850  53.5006680  54.5424790  28.8381100
  52.9431150  58.9640460  19.6852590  52.8605820  59.9071220  19.8267580
  52.5914210  58.8215370  18.8064940  64.3051890  61.0225290  30.3470450
  63.5733010  61.5312100  30.6960550  63.9076230  60.2055270  30.0459230
  60.7429280  57.6979490  28.7522940  60.7465340  57.2569440  27.9027480
  61.6380400  58.0196820  28.8594760  56.5931660  57.5805980  27.7117150
  56.2531710  58.0581210  28.4684200  55.8308980  57.1271100  27.3518250
  60.8049430  58.6991570  21.7429700  60.9262250  58.6578050  22.6915520
  60.4197940  59.5615720  21.5876430  64.7677800  56.4758970  29.7593390
  64.7850540  56.9267620  30.6035240  64.5193380  55.5764610  29.9726830
  59.8170930  61.0092710  21.1413000  59.2487830  60.5610960  20.5148910
  60.5259930  61.3685490  20.6078150  54.8940110  64.9104730  35.0179730
  54.5094900  64.2698400  35.6162690  55.2052300  65.6140850  35.5874460
  61.0437250  61.7581270  30.4988350  61.4107380  61.2839840  31.2449690
  60.8542310  62.6322840  30.8396690  53.9077740  56.5024960  26.6281820
  53.6224660  56.1380630  27.4660440  53.8456600  55.7705420  26.0144960
  58.8336620  60.7989910  32.8172560  58.5293690  61.6781890  33.0422920
  59.7883080  60.8589700  32.8530000  57.3618410  65.0050900  23.4139410
  56.5880670  64.4648520  23.2538130  58.0913040  64.4857510  23.0757170
  63.5816330  55.3954220  23.3495190  62.7680940  54.8967390  23.2740500
  63.3878280  56.2352470  22.9331540  63.5025190  64.0725320  35.0934800
  63.4362500  63.1520990  34.8392390  62.8730330  64.1700760  35.8079440
  57.4055810  64.6731280  27.0518220  57.9234480  63.8699540  26.9975110
  56.9539830  64.6110420  27.8935050  54.8900350  61.6392650  33.9643920
  54.5315290  62.3046500  34.5517260  54.5954910  60.8076200  34.3356540
  58.0913470  62.0976890  36.8483470  57.7913610  62.2434070  35.9511290
  58.8624710  61.5382180  36.7556860  65.1752720  65.2613400  27.6891030
  65.5276540  64.6641530  27.0292400  64.2915050  64.9357630  27.8599280
  53.4008400  61.6383910  20.5878520  54.2703250  61.9208710  20.8714440
  52.9098720  62.4519780  20.4727330  60.5643210  63.0257120  24.7086800
  61.0205990  63.8362370  24.9346990  60.2131420  62.7080260  25.5405290
  56.4654990  53.3694770  25.1809320  56.3369620  53.3612670  26.1294240
  55.6417010  53.7077860  24.8300330  53.4648920  55.1285890  34.6416020
  52.7507440  55.3282810  35.2468630  53.8843960  54.3525460  35.0130820
  55.3854910  63.4557380  22.7160580  54.7782860  64.1956280  22.7255880
  55.8604260  63.5456740  21.8898780  64.9587700  57.6208200  32.3917470
  65.3268520  56.8003410  32.7197040  64.0985900  57.6810090  32.8073120
  60.2933760  58.8551090  24.6162910  59.5849910  59.3237430  25.0576520
  60.5778240  58.1973100  25.2508100  61.9189690  60.2747790  32.6155440
  62.4174940  60.7493610  33.2807290  62.0612640  59.3511310  32.8225470
  64.3249190  55.5801750  26.0558700  64.2016970  55.5987880  25.1068210
  65.2733750  55.6280690  26.1757100  58.4968780  57.1636170  21.9913620
  59.3459310  57.6006320  21.9253810  58.1300050  57.4756430  22.8185680
  57.3960200  63.4168530  20.4649150  58.1623470  63.3049890  21.0274580
  57.4734890  62.7206500  19.8125920  56.0906960  60.8493600  21.1482040
  56.1710550  59.9021110  21.2599440  56.9826710  61.1800480  21.2542700
  64.7344580  66.2914930  37.3877570  64.1282740  66.3146530  36.6473320
  64.4298690  65.5597970  37.9244820  53.6177760  62.6708520  36.3838210
  54.1216780  62.0915800  36.9554440  52.8785180  62.9548750  36.9214580
  60.5201380  65.3922710  19.9384500  60.4152020  64.7775060  20.6645880
  60.3525600  64.8688600  19.1547510  60.6715700  64.0779510  35.9173730
  59.9061370  64.6464510  35.8328400  60.8531660  63.7855720  35.0241960
  63.7604110  64.4542740  20.5426490  63.2114210  64.9012040  21.1869230
  64.3823370  63.9491990  21.0664160  55.6500840  60.8138110  37.2788280
  55.6906180  60.5151980  38.1873510  56.5046340  61.2145720  37.1195800
  59.4279230  63.4133660  22.4391790  59.8495650  63.2473530  23.2823180
  59.5530070  62.6033890  21.9446930  57.5906650  59.3930210  35.2462770
  57.0603110  58.9021160  34.6186110  58.2594720  59.8214410  34.7120700
  61.9406870  62.4371270  19.6868890  62.4612530  61.7220290  19.3210040
  62.5875270  63.0757140  19.9869400  58.0778950  56.3592580  35.3260060
  57.9835820  55.7413330  34.6010930  57.4976340  57.0858870  35.0989970
  60.8440390  54.9165820  32.3587450  60.3957690  54.9390080  31.5133000
  60.2105590  54.5184840  32.9557750  61.2499940  63.8120150  32.9799890
  61.6688050  64.6552880  32.8076130  60.3308570  63.9492190  32.7506670
  63.5863840  61.5436330  34.3637730  63.7060050  60.9477470  35.1032570
  64.4457840  61.5806020  33.9439030  58.3238130  59.4866890  19.3849950
  58.1227190  58.6234250  19.7463290  58.1530180  59.4000250  18.4471550
  60.3532610  58.0857680  35.6213550  60.9432300  57.7773530  36.3091370
  59.5352850  57.6137430  35.7773450  65.1726040  57.7023490  35.8546570
  64.4841560  57.0405030  35.7896560  65.8932060  57.2561760  36.2995030
  65.8026440  54.2975120  21.9136830  66.0828730  53.4543020  22.2696250
  65.0292170  54.5298230  22.4275580  57.1220930  56.5867510  19.3727830
  57.4246830  56.5934940  18.4646980  57.8615520  56.2365370  19.8695490
  60.3405860  55.5302130  20.3584030  59.9927860  54.8526120  19.7786480
  60.5418630  55.0691640  21.1727420  56.1451060  65.8909930  20.2057630
  56.5825930  66.4339600  20.8615210  56.6298790  65.0656880  20.2153970
  53.6811500  62.0589780  26.7548400  53.0260340  61.7901420  26.1108100
  54.5189450  61.9494260  26.3050380  54.7187430  62.4442350  31.2951740
  55.0860470  62.3569750  32.1747760  54.1498250  61.6808900  31.1958600
  54.2703430  59.3551440  35.2010160  53.3759480  59.3218200  35.5403870
  54.8100980  59.5538230  35.9661410  52.8949580  59.2688710  22.6973730
  51.9913660  59.5318910  22.5225390  53.3790200  59.5399880  21.9173690
  55.4376790  58.3254250  20.6068110  56.1468490  57.9037470  20.1215390
  54.7216730  58.3929480  19.9751460  55.0850950  54.3793580  19.6470760
  55.8079080  54.9202520  19.9651980  55.3575470  54.1057000  18.7712300
  54.7743140  53.6299770  29.5493380  55.4219330  53.0797150  29.1088540
  55.1944980  53.8842920  30.3709190  54.5275140  53.7855440  32.2918700
  54.1789960  54.2419260  33.0576880  54.1962840  52.8912570  32.3741130
  62.0399960  54.9767320  35.8138120  61.9788850  55.5689150  36.5633530
  62.9800340  54.8693280  35.6688380  64.6774520  54.6337380  35.4530410
  65.2914930  54.9516670  34.7911490  65.2224080  54.1485970  36.0726270
  55.1995780  53.3131640  35.5669470  55.7478770  53.1319690  34.8035580
  55.2651090  52.5225750  36.1025780  65.4182560  53.1969520  31.7799700
  64.5442400  53.5304630  31.5772630  65.3093310  52.7242700  32.6051570
  63.1657380  54.1139360  30.7192610  62.3829170  54.5884860  30.9989370
  62.8720310  53.2094190  30.6105790  54.5097790  54.4186840  23.2406330
  55.2677150  54.5315720  22.6670360  54.0474960  55.2556040  23.1949760
  61.0511600  56.5326110  26.2308640  60.2386110  56.1583000  25.8904520
  61.5553240  55.7771190  26.5329830  65.5536580  53.1968560  27.4691710
  66.1565950  53.7688770  27.9440230  64.8129570  53.7608000  27.2465610
  56.8822940  54.9450890  21.7808300  57.4115700  54.1580690  21.6516250
  57.5151260  55.6242080  22.0143830  59.0760780  54.6826030  24.8353690
  58.4463520  53.9813340  25.0023820  58.5365920  55.4430160  24.6186850
  59.2016340  53.9610010  37.2706180  58.9200610  54.4643610  36.5067000
  59.5836040  53.1631760  36.9048310  64.7089950  61.3956060   8.2121390
  64.6284000  60.4810670   7.9413100  64.2954370  61.8923130   7.5061100
  62.8407990  63.1735080  10.0930660  62.0650090  62.6935520  10.3829230
  63.4920920  62.4940730   9.9186820  56.8573820  63.4854890  10.9706420
  56.0258700  63.2303600  11.3702930  57.4654800  63.5565660  11.7064340
  55.2665770  58.4456780   4.7548810  54.3782470  58.7872750   4.6528690
  55.5506960  58.2457100   3.8629640  53.2298780  61.0462430  10.6388510
  53.8014890  60.2784630  10.6392150  53.2300320  61.3451190   9.7295120
  62.2816980  65.8492270  10.1000820  62.2125260  64.9082210   9.9389950
  63.0436840  65.9393680  10.6723390  54.4723650  56.4546790  12.4257440
  54.2926490  55.5572540  12.7060200  54.0703730  57.0018660  13.1004390
  63.3122150  58.6562650  10.3269750  63.6886970  57.7834530  10.2143420
  63.2141660  58.9921350   9.4360190  57.4427160  57.0288280   5.7887190
  57.5493910  57.9292010   6.0955950  56.5319520  56.9806250   5.4981840
  55.0910320  58.9507290  11.0339780  55.7720430  59.2145660  11.6527180
  54.7758370  58.1108160  11.3677790  59.2834890  59.9974650  10.1212370
  59.7913110  60.4955620  10.7617390  59.8148130  59.2209850   9.9451730
  57.5670990  54.6373210  14.3875790  57.5689430  55.1545600  13.5821690
  56.7375300  54.1603390  14.3645720  63.9542080  64.7492520   5.8865690
  63.3359350  65.2141970   5.3228410  64.4665330  65.4420000   6.3035200
  58.8173840  64.2768390  12.5649290  58.4843220  64.9037310  13.2070360
  58.9940520  64.8030270  11.7850960  57.2486320  56.3483170  12.3946240
  57.5903130  57.1925220  12.1000110  56.3102130  56.4966910  12.5111580
  53.3225280  65.4349050   3.2605320  52.9453260  65.9236150   2.5290220
  53.5798350  66.1074330   3.8911850  60.9314210  53.8365440   8.7190830
  61.2389190  53.2812330   8.0026330  60.0014910  53.9709900   8.5363820
  63.3194970  61.9014270   5.4550950  62.3924250  61.8351650   5.6839420
  63.4719790  62.8394400   5.3406190  63.3064050  58.1731270   2.4518110
  62.3667720  58.3345230   2.5370570  63.6247310  58.8916950   1.9054100
  58.9251610  62.4279010   8.2370680  58.5208610  61.7156260   7.7416580
  59.0114730  62.0832250   9.1258720  59.3933310  66.1146570  10.4009890
  59.0961600  65.5092040   9.7217670  60.3433130  66.1523880  10.2899250
  57.6380230  59.2022220  12.0169720  58.1894820  59.3117560  11.2422970
  58.1523740  59.5759820  12.7324950  58.4851740  65.8528260  17.0517690
  57.5880270  66.0768230  17.2991090  58.5104610  65.9763200  16.1029090
  65.5256960  62.7021380   2.9658950  65.9650240  61.8643810   2.8196770
  66.2385380  63.3350780   3.0523090  57.3122960  62.7241580  15.6275060
  57.1730730  63.5964380  15.9962460  56.4304320  62.3814390  15.4823000
  55.6256240  61.3223990   5.7377330  55.5053840  62.0486080   5.1258600
  55.3157130  60.5526900   5.2605240  53.2641610  64.4939130  11.5445970
  53.3422030  64.6287900  10.6001690  53.8783290  63.7855020  11.7374090
  54.5089240  66.1939320   7.9552150  54.1017320  66.3353910   7.1005750
  55.4002250  65.9099480   7.7523360  53.3201130  65.5353300  14.0840430
  53.4832170  65.0658660  13.2659800  53.7853580  65.0276860  14.7489270
  58.0919900  54.6659060   9.1201000  57.6488050  55.4468600   8.7885520
  58.6504890  54.9888950   9.8271940  62.3789710  57.5327580  14.7236320
  61.9169080  57.7410600  15.5356260  61.9767820  56.7186930  14.4206990
  64.4743930  60.2538280  17.9531770  64.7997340  59.4202030  17.6134000
  65.2624260  60.7766800  18.1010100  61.2078720  54.2869760   4.0006830
  60.5832900  54.2829630   4.7260140  61.1208840  53.4200720   3.6042800
  60.1295800  55.2106390  10.9790600  60.4268130  56.1169220  10.8982620
  60.6781360  54.7225170  10.3650170  57.8834120  59.7892630   6.8482250
  57.6575040  59.5729800   7.7528870  57.1026650  60.2221090   6.5028220
  65.1131880  59.7956000   5.4472900  64.5140770  60.5191800   5.2636520
  65.6611490  59.7332780   4.6649350  60.3233330  60.6878210  17.5142520
  60.2276930  59.7472940  17.3642920  61.1665310  60.9093280  17.1190590
  63.7196750  58.4319540   7.4776180  64.1126320  58.7491740   6.6644870
  64.0813600  57.5531420   7.5920700  55.4543870  57.0991880  15.6676300
  55.0607260  57.9467090  15.8749080  54.7662270  56.4618250  15.8584940
  62.0288920  57.1826850  18.7373040  61.3387240  56.9899050  19.3719130
  62.7721220  57.4661490  19.2697340  52.7560920  55.0220340   9.7006380
  52.4673970  55.5923200  10.4131360  53.5006680  54.5424790  10.0637610
  64.3051890  61.0225290  11.5726960  63.5733010  61.5312100  11.9217060
  63.9076230  60.2055270  11.2715740  60.7429280  57.6979490   9.9779450
  60.7465340  57.2569440   9.1283990  61.6380400  58.0196820  10.0851270
  56.5931660  57.5805980   8.9373660  56.2531710  58.0581210   9.6940710
  55.8308980  57.1271100   8.5774760  60.8049430  58.6991570   2.9686210
  60.9262250  58.6578050   3.9172030  60.4197940  59.5615720   2.8132940
  64.7677800  56.4758970  10.9849900  64.7850540  56.9267620  11.8291750
  64.5193380  55.5764610  11.1983340  59.8170930  61.0092710   2.3669510
  59.2487830  60.5610960   1.7405420  60.5259930  61.3685490   1.8334660
  54.8940110  64.9104730  16.2436240  54.5094900  64.2698400  16.8419200
  55.2052300  65.6140850  16.8130970  61.0437250  61.7581270  11.7244860
  61.4107380  61.2839840  12.4706200  60.8542310  62.6322840  12.0653200
  53.9077740  56.5024960   7.8538330  53.6224660  56.1380630   8.6916950
  53.8456600  55.7705420   7.2401470  58.8336620  60.7989910  14.0429070
  58.5293690  61.6781890  14.2679430  59.7883080  60.8589700  14.0786510
  57.3618410  65.0050900   4.6395920  56.5880670  64.4648520   4.4794640
  58.0913040  64.4857510   4.3013680  63.5816330  55.3954220   4.5751700
  62.7680940  54.8967390   4.4997010  63.3878280  56.2352470   4.1588050
  63.5025190  64.0725320  16.3191310  63.4362500  63.1520990  16.0648900
  62.8730330  64.1700760  17.0335950  57.4055810  64.6731280   8.2774730
  57.9234480  63.8699540   8.2231620  56.9539830  64.6110420   9.1191560
  54.8900350  61.6392650  15.1900430  54.5315290  62.3046500  15.7773770
  54.5954910  60.8076200  15.5613050  58.0913470  62.0976890  18.0739980
  57.7913610  62.2434070  17.1767800  58.8624710  61.5382180  17.9813370
  65.1752720  65.2613400   8.9147540  65.5276540  64.6641530   8.2548910
  64.2915050  64.9357630   9.0855790  53.4008400  61.6383910   1.8135030
  54.2703250  61.9208710   2.0970950  52.9098720  62.4519780   1.6983840
  60.5643210  63.0257120   5.9343310  61.0205990  63.8362370   6.1603500
  60.2131420  62.7080260   6.7661800  56.4654990  53.3694770   6.4065830
  56.3369620  53.3612670   7.3550750  55.6417010  53.7077860   6.0556840
  53.4648920  55.1285890  15.8672530  52.7507440  55.3282810  16.4725140
  53.8843960  54.3525460  16.2387330  55.3854910  63.4557380   3.9417090
  54.7782860  64.1956280   3.9512390  55.8604260  63.5456740   3.1155290
  64.9587700  57.6208200  13.6173980  65.3268520  56.8003410  13.9453550
  64.0985900  57.6810090  14.0329630  60.2933760  58.8551090   5.8419420
  59.5849910  59.3237430   6.2833030  60.5778240  58.1973100   6.4764610
  61.9189690  60.2747790  13.8411950  62.4174940  60.7493610  14.5063800
  62.0612640  59.3511310  14.0481980  64.3249190  55.5801750   7.2815210
  64.2016970  55.5987880   6.3324720  65.2733750  55.6280690   7.4013610
  58.4968780  57.1636170   3.2170130  59.3459310  57.6006320   3.1510320
  58.1300050  57.4756430   4.0442190  56.0906960  60.8493600   2.3738550
  56.1710550  59.9021110   2.4855950  56.9826710  61.1800480   2.4799210
  64.7344580  66.2914930  18.6134080  64.1282740  66.3146530  17.8729830
  64.4298690  65.5597970  19.1501330  53.6177760  62.6708520  17.6094720
  54.1216780  62.0915800  18.1810950  52.8785180  62.9548750  18.1471090
  60.6715700  64.0779510  17.1430240  59.9061370  64.6464510  17.0584910
  60.8531660  63.7855720  16.2498470  63.7604110  64.4542740   1.7683000
  63.2114210  64.9012040   2.4125740  64.3823370  63.9491990   2.2920670
  55.6500840  60.8138110  18.5044790  55.6906180  60.5151980  19.4130020
  56.5046340  61.2145720  18.3452310  59.4279230  63.4133660   3.6648300
  59.8495650  63.2473530   4.5079690  59.5530070  62.6033890   3.1703440
  57.5906650  59.3930210  16.4719280  57.0603110  58.9021160  15.8442620
  58.2594720  59.8214410  15.9377210  58.0778950  56.3592580  16.5516570
  57.9835820  55.7413330  15.8267440  57.4976340  57.0858870  16.3246480
  60.8440390  54.9165820  13.5843960  60.3957690  54.9390080  12.7389510
  60.2105590  54.5184840  14.1814260  61.2499940  63.8120150  14.2056400
  61.6688050  64.6552880  14.0332640  60.3308570  63.9492190  13.9763180
  63.5863840  61.5436330  15.5894240  63.7060050  60.9477470  16.3289080
  64.4457840  61.5806020  15.1695540  60.3532610  58.0857680  16.8470060
  60.9432300  57.7773530  17.5347880  59.5352850  57.6137430  17.0029960
  65.1726040  57.7023490  17.0803080  64.4841560  57.0405030  17.0153070
  65.8932060  57.2561760  17.5251540  65.8026440  54.2975120   3.1393340
  66.0828730  53.4543020   3.4952760  65.0292170  54.5298230   3.6532090
  53.6811500  62.0589780   7.9804910  53.0260340  61.7901420   7.3364610
  54.5189450  61.9494260   7.5306890  54.7187430  62.4442350  12.5208250
  55.0860470  62.3569750  13.4004270  54.1498250  61.6808900  12.4215110
  54.2703430  59.3551440  16.4266670  53.3759480  59.3218200  16.7660380
  54.8100980  59.5538230  17.1917920  52.8949580  59.2688710   3.9230240
  51.9913660  59.5318910   3.7481900  53.3790200  59.5399880   3.1430200
  54.7743140  53.6299770  10.7749890  55.4219330  53.0797150  10.3345050
  55.1944980  53.8842920  11.5965700  54.5275140  53.7855440  13.5175210
  54.1789960  54.2419260  14.2833390  54.1962840  52.8912570  13.5997640
  62.0399960  54.9767320  17.0394630  61.9788850  55.5689150  17.7890040
  62.9800340  54.8693280  16.8944890  64.6774520  54.6337380  16.6786920
  65.2914930  54.9516670  16.0168000  65.2224080  54.1485970  17.2982780
  55.1995780  53.3131640  16.7925980  55.7478770  53.1319690  16.0292090
  55.2651090  52.5225750  17.3282290  65.4182560  53.1969520  13.0056210
  64.5442400  53.5304630  12.8029140  65.3093310  52.7242700  13.8308080
  63.1657380  54.1139360  11.9449120  62.3829170  54.5884860  12.2245880
  62.8720310  53.2094190  11.8362300  54.5097790  54.4186840   4.4662840
  55.2677150  54.5315720   3.8926870  54.0474960  55.2556040   4.4206270
  61.0511600  56.5326110   7.4565150  60.2386110  56.1583000   7.1161030
  61.5553240  55.7771190   7.7586340  65.5536580  53.1968560   8.6948220
  66.1565950  53.7688770   9.1696740  64.8129570  53.7608000   8.4722120
  56.8822940  54.9450890   3.0064810  57.4115700  54.1580690   2.8772760
  57.5151260  55.6242080   3.2400340  59.0760780  54.6826030   6.0610200
  58.4463520  53.9813340   6.2280330  58.5365920  55.4430160   5.8443360
  59.2016340  53.9610010  18.4962690  58.9200610  54.4643610  17.7323510
  59.5836040  53.1631760  18.1304820  64.7089950  42.6212570  45.7608370
  64.6284000  41.7067180  45.4900080  64.2954370  43.1179640  45.0548080
  62.8407990  44.3991590  47.6417640  62.0650090  43.9192030  47.9316210
  63.4920920  43.7197240  47.4673800  56.8573820  44.7111400  48.5193400
  56.0258700  44.4560110  48.9189910  57.4654800  44.7822170  49.2551320
  56.8375080  48.7451490  48.7151420  57.1403120  47.8549230  48.5361640
  57.5818670  49.3021710  48.4873670  55.2665770  39.6713290  42.3035790
  54.3782470  40.0129260  42.2015670  55.5506960  39.4713610  41.4116620
  53.2298780  42.2718940  48.1875490  53.8014890  41.5041140  48.1879130
  53.2300320  42.5707700  47.2782100  63.0878730  51.0909790  46.0420760
  62.4690170  51.5467290  45.4715200  63.9430510  51.2461250  45.6410460
  62.2816980  47.0748780  47.6487800  62.2125260  46.1338720  47.4876930
  63.0436840  47.1650190  48.2210370  54.4723650  37.6803300  49.9744420
  54.2926490  36.7829050  50.2547180  54.0703730  38.2275170  50.6491370
  63.3122150  39.8819160  47.8756730  63.6886970  39.0091040  47.7630400
  63.2141660  40.2177860  46.9847170  57.4427160  38.2544790  43.3374170
  57.5493910  39.1548520  43.6442930  56.5319520  38.2062760  43.0468820
  55.0910320  40.1763800  48.5826760  55.7720430  40.4402170  49.2014160
  54.7758370  39.3364670  48.9164770  59.2834890  41.2231160  47.6699350
  59.7913110  41.7212130  48.3104370  59.8148130  40.4466360  47.4938710
  57.5670990  35.8629720  51.9362770  57.5689430  36.3802110  51.1308670
  56.7375300  35.3859900  51.9132700  63.9542080  45.9749030  43.4352670
  63.3359350  46.4398480  42.8715390  64.4665330  46.6676510  43.8522180
  58.8173840  45.5024900  50.1136270  58.4843220  46.1293820  50.7557340
  58.9940520  46.0286780  49.3337940  57.2486320  37.5739680  49.9433220
  57.5903130  38.4181730  49.6487090  56.3102130  37.7223420  50.0598560
  58.0292940  47.4705700  51.9285450  58.6466940  48.1456780  51.6469900
  57.1686060  47.8793680  51.8372950  53.3225280  46.6605560  40.8092300
  52.9453260  47.1492660  40.0777200  53.5798350  47.3330840  41.4398830
  60.9314210  35.0621950  46.2677810  61.2389190  34.5068840  45.5513310
  60.0014910  35.1966410  46.0850800  63.3194970  43.1270780  43.0037930
  62.3924250  43.0608160  43.2326400  63.4719790  44.0650910  42.8893170
  63.3064050  39.3987780  40.0005090  62.3667720  39.5601740  40.0857550
  63.6247310  40.1173460  39.4541080  58.9251610  43.6535520  45.7857660
  58.5208610  42.9412770  45.2903560  59.0114730  43.3088760  46.6745700
  59.3933310  47.3403080  47.9496870  59.0961600  46.7348550  47.2704650
  60.3433130  47.3780390  47.8386230  57.6380230  40.4278730  49.5656700
  58.1894820  40.5374070  48.7909950  58.1523740  40.8016330  50.2811930
  58.4851740  47.0784770  54.6004670  57.5880270  47.3024740  54.8478070
  58.5104610  47.2019710  53.6516070  65.5256960  43.9277890  40.5145930
  65.9650240  43.0900320  40.3683750  66.2385380  44.5607290  40.6010070
  57.3122960  43.9498090  53.1762040  57.1730730  44.8220890  53.5449440
  56.4304320  43.6070900  53.0309980  63.6352340  48.8673960  44.4827170
  64.0748250  49.6098290  44.0682560  63.5739230  49.1100530  45.4066130
  59.1103310  49.8919790  55.3847190  59.0818740  50.2962740  54.5175620
  58.9468280  48.9630150  55.2218790  55.6256240  42.5480500  43.2864310
  55.5053840  43.2742590  42.6745580  55.3157130  41.7783410  42.8092220
  53.2641610  45.7195640  49.0932950  53.3422030  45.8544410  48.1488670
  53.8783290  45.0111530  49.2861070  54.5089240  47.4195830  45.5039130
  54.1017320  47.5610420  44.6492730  55.4002250  47.1355990  45.3010340
  64.3268120  51.5687740  52.4106180  64.8412790  51.4795750  53.2128610
  63.4837200  51.9147440  52.7034090  58.7810900  51.6341610  43.6161800
  58.6053380  50.7177150  43.4029600  57.9266640  51.9928900  43.8559600
  65.5698580  50.9893350  44.4736670  66.0255530  50.2082730  44.7875290
  65.9091100  51.7000170  45.0177850  53.3201130  46.7609810  51.6327410
  53.4832170  46.2915170  50.8146780  53.7853580  46.2533370  52.2976250
  58.0919900  35.8915570  46.6687980  57.6488050  36.6725110  46.3372500
  58.6504890  36.2145460  47.3758920  62.3789710  38.7584090  52.2723300
  61.9169080  38.9667110  53.0843240  61.9767820  37.9443440  51.9693970
  64.4743930  41.4794790  55.5018750  64.7997340  40.6458540  55.1620980
  65.2624260  42.0023310  55.6497080  61.2078720  35.5126270  41.5493810
  60.5832900  35.5086140  42.2747120  61.1208840  34.6457230  41.1529780
  60.1295800  36.4362900  48.5277580  60.4268130  37.3425730  48.4469600
  60.6781360  35.9481680  47.9137150  57.8834120  41.0149140  44.3969230
  57.6575040  40.7986310  45.3015850  57.1026650  41.4477600  44.0515200
  65.1131880  41.0212510  42.9959880  64.5140770  41.7448310  42.8123500
  65.6611490  40.9589290  42.2136330  60.3233330  41.9134720  55.0629500
  60.2276930  40.9729450  54.9129900  61.1665310  42.1349790  54.6677570
  63.7196750  39.6576050  45.0263160  64.1126320  39.9748250  44.2131850
  64.0813600  38.7787930  45.1407680  55.4543870  38.3248390  53.2163280
  55.0607260  39.1723600  53.4236060  54.7662270  37.6874760  53.4071920
  52.7560920  36.2476850  47.2493360  52.4673970  36.8179710  47.9618340
  53.5006680  35.7681300  47.6124590  52.9431150  40.1896970  38.4596080
  52.8605820  41.1327730  38.6011070  52.5914210  40.0471880  37.5808430
  64.3051890  42.2481800  49.1213940  63.5733010  42.7568610  49.4704040
  63.9076230  41.4311780  48.8202720  60.7429280  38.9236000  47.5266430
  60.7465340  38.4825950  46.6770970  61.6380400  39.2453330  47.6338250
  56.5931660  38.8062490  46.4860640  56.2531710  39.2837720  47.2427690
  55.8308980  38.3527610  46.1261740  60.8049430  39.9248080  40.5173190
  60.9262250  39.8834560  41.4659010  60.4197940  40.7872230  40.3619920
  64.7677800  37.7015480  48.5336880  64.7850540  38.1524130  49.3778730
  64.5193380  36.8021120  48.7470320  59.8170930  42.2349220  39.9156490
  59.2487830  41.7867470  39.2892400  60.5259930  42.5942000  39.3821640
  54.8940110  46.1361240  53.7923220  54.5094900  45.4954910  54.3906180
  55.2052300  46.8397360  54.3617950  61.0437250  42.9837780  49.2731840
  61.4107380  42.5096350  50.0193180  60.8542310  43.8579350  49.6140180
  53.9077740  37.7281470  45.4025310  53.6224660  37.3637140  46.2403930
  53.8456600  36.9961930  44.7888450  58.8336620  42.0246420  51.5916050
  58.5293690  42.9038400  51.8166410  59.7883080  42.0846210  51.6273490
  57.3618410  46.2307410  42.1882900  56.5880670  45.6905030  42.0281620
  58.0913040  45.7114020  41.8500660  63.5816330  36.6210730  42.1238680
  62.7680940  36.1223900  42.0483990  63.3878280  37.4608980  41.7075030
  63.5025190  45.2981830  53.8678290  63.4362500  44.3777500  53.6135880
  62.8730330  45.3957270  54.5822930  57.4055810  45.8987790  45.8261710
  57.9234480  45.0956050  45.7718600  56.9539830  45.8366930  46.6678540
  62.2925310  47.1654070  41.0989010  62.6341010  47.9096300  40.6032330
  61.4638020  47.4785190  41.4613840  54.8900350  42.8649160  52.7387410
  54.5315290  43.5303010  53.3260750  54.5954910  42.0332710  53.1100030
  58.0913470  43.3233400  55.6226960  57.7913610  43.4690580  54.7254780
  58.8624710  42.7638690  55.5300350  63.4341920  48.1202400  53.6182090
  63.4486460  47.1883360  53.4001000  62.7267020  48.2062160  54.2571860
  65.1752720  46.4869910  46.4634520  65.5276540  45.8898040  45.8035890
  64.2915050  46.1614140  46.6342770  61.2616000  47.2467600  43.8704930
  61.9487130  47.7936810  44.2512520  60.4748420  47.7908330  43.9054540
  53.4008400  42.8640420  39.3622010  54.2703250  43.1465220  39.6457930
  52.9098720  43.6776290  39.2470820  60.5643210  44.2513630  43.4830290
  61.0205990  45.0618880  43.7090480  60.2131420  43.9336770  44.3148780
  62.8675820  49.7619970  50.7122590  63.5118040  49.9679350  51.3896010
  63.2305260  49.0008370  50.2593440  56.4654990  34.5951280  43.9552810
  56.3369620  34.5869180  44.9037730  55.6417010  34.9334370  43.6043820
  64.1407900  47.7652320  49.4300040  64.7830130  47.0645480  49.5432210
  64.6657250  48.5450760  49.2496930  65.9145520  48.5647220  52.6336100
  66.2501760  49.1513910  53.3114020  64.9945860  48.4339930  52.8633890
  53.7679650  52.0767800  39.9283640  54.1277290  52.6757140  39.2740910
  53.6271990  52.6227690  40.7018670  53.4648920  36.3542400  53.4159510
  52.7507440  36.5539320  54.0212120  53.8843960  35.5781970  53.7874310
  53.7521510  50.3422660  54.4026040  53.8612630  49.4017400  54.2621430
  53.1002070  50.6077410  53.7539770  59.7848270  49.4599000  40.7457310
  59.7758370  50.1928690  40.1301820  58.8646630  49.2130580  40.8384270
  55.3854910  44.6813890  41.4904070  54.7782860  45.4212790  41.4999370
  55.8604260  44.7713250  40.6642270  64.9587700  38.8464710  51.1660960
  65.3268520  38.0259920  51.4940530  64.0985900  38.9066600  51.5816610
  62.7707870  49.5227240  39.4082500  62.8719850  49.3191230  38.4784480
  61.8709610  49.2685520  39.6130280  60.2933760  40.0807600  43.3906400
  59.5849910  40.5493940  43.8320010  60.5778240  39.4229610  44.0251590
  61.9189690  41.5004300  51.3898930  62.4174940  41.9750120  52.0550780
  62.0612640  40.5767820  51.5968960  64.3249190  36.8058260  44.8302190
  64.2016970  36.8244390  43.8811700  65.2733750  36.8537200  44.9500590
  61.4125980  52.0413560  44.1030170  61.6667480  52.0034950  43.1809540
  60.4638460  51.9146890  44.0958420  58.4968780  38.3892680  40.7657110
  59.3459310  38.8262830  40.6997300  58.1300050  38.7012940  41.5929170
  57.3960200  44.6425040  39.2392640  58.1623470  44.5306400  39.8018070
  57.4734890  43.9463010  38.5869410  56.0906960  42.0750110  39.9225530
  56.1710550  41.1277620  40.0342930  56.9826710  42.4056990  40.0286190
  56.8921670  52.2245500  47.0260070  57.6284150  51.6760960  47.2968640
  57.2762590  53.0901510  46.8866060  53.7767150  48.2919070  42.9001580
  52.8506930  48.5340210  42.8906990  54.2423580  49.1193330  42.7786330
  60.0023980  51.3975810  38.8485640  60.7952590  51.6864640  38.3967430
  59.4828330  50.9667980  38.1698120  60.5201380  46.6179220  38.7127990
  60.4152020  46.0031570  39.4389370  60.3525600  46.0945110  37.9291000
  60.6715700  45.3036020  54.6917220  59.9061370  45.8721020  54.6071890
  60.8531660  45.0112230  53.7985450  63.7604110  45.6799250  39.3169980
  63.2114210  46.1268550  39.9612720  64.3823370  45.1748500  39.8407650
  59.4279230  44.6390170  41.2135280  59.8495650  44.4730040  42.0566670
  59.5530070  43.8290400  40.7190420  57.5906650  40.6186720  54.0206260
  57.0603110  40.1277670  53.3929600  58.2594720  41.0470920  53.4864190
  61.9406870  43.6627780  38.4612380  62.4612530  42.9476800  38.0953530
  62.5875270  44.3013650  38.7612890  58.0778950  37.5849090  54.1003550
  57.9835820  36.9669840  53.3754420  57.4976340  38.3115380  53.8733460
  60.8440390  36.1422330  51.1330940  60.3957690  36.1646590  50.2876490
  60.2105590  35.7441350  51.7301240  61.2499940  45.0376660  51.7543380
  61.6688050  45.8809390  51.5819620  60.3308570  45.1748700  51.5250160
  63.5863840  42.7692840  53.1381220  63.7060050  42.1733980  53.8776060
  64.4457840  42.8062530  52.7182520  58.3238130  40.7123400  38.1593440
  58.1227190  39.8490760  38.5206780  58.1530180  40.6256760  37.2215040
  59.1007360  51.3429670  52.8701110  58.5628450  52.0675730  52.5509810
  59.3541320  50.8660010  52.0798450  60.3532610  39.3114190  54.3957040
  60.9432300  39.0030040  55.0834860  59.5352850  38.8393940  54.5516940
  65.1726040  38.9280000  54.6290060  64.4841560  38.2661540  54.5640050
  65.8932060  38.4818270  55.0738520  65.8026440  35.5231630  40.6880320
  66.0828730  34.6799530  41.0439740  65.0292170  35.7554740  41.2019070
  57.1220930  37.8124020  38.1471320  57.4246830  37.8191450  37.2390470
  57.8615520  37.4621880  38.6438980  61.9569570  52.5780880  53.1287760
  61.8828270  53.4816020  53.4360130  61.0548410  52.2592780  53.1009830
  60.3405860  36.7558640  39.1327520  59.9927860  36.0782630  38.5529970
  60.5418630  36.2948150  39.9470910  62.5054900  51.7439390  40.7514120
  63.4005690  52.0824360  40.7732880  62.5372530  51.0218800  40.1238400
  56.1451060  47.1166440  38.9801120  56.5825930  47.6596110  39.6358700
  56.6298790  46.2913390  38.9897460  53.3596860  49.9055470  46.4321380
  53.6899870  49.0376530  46.2000020  53.7887860  50.1113990  47.2626340
  57.9558780  48.2364480  44.0923350  57.6554320  48.1129450  44.9927260
  57.8496270  47.3773070  43.6839080  53.8487070  50.7726060  49.1703010
  53.4118060  50.9526860  50.0027160  54.4164750  51.5300680  49.0284730
  53.6811500  43.2846290  45.5291890  53.0260340  43.0157930  44.8851590
  54.5189450  43.1750770  45.0793870  54.7187430  43.6698860  50.0695230
  55.0860470  43.5826260  50.9491250  54.1498250  42.9065410  49.9702090
  54.2703430  40.5807950  53.9753650  53.3759480  40.5474710  54.3147360
  54.8100980  40.7794740  54.7404900  52.8949580  40.4945220  41.4717220
  51.9913660  40.7575420  41.2968880  53.3790200  40.7656390  40.6917180
  55.4376790  39.5510760  39.3811600  56.1468490  39.1293980  38.8958880
  54.7216730  39.6185990  38.7494950  55.0850950  35.6050090  38.4214250
  55.8079080  36.1459030  38.7395470  55.3575470  35.3313510  37.5455790
  54.7743140  34.8556280  48.3236870  55.4219330  34.3053660  47.8832030
  55.1944980  35.1099430  49.1452680  54.5275140  35.0111950  51.0662190
  54.1789960  35.4675770  51.8320370  54.1962840  34.1169080  51.1484620
  59.8345540  49.7391140  50.8325100  59.5936900  50.0065700  49.9455620
  60.7748180  49.9096870  50.8875960  62.0399960  36.2023830  54.5881610
  61.9788850  36.7945660  55.3377020  62.9800340  36.0949790  54.4431870
  64.6774520  35.8593890  54.2273900  65.2914930  36.1773180  53.5654980
  65.2224080  35.3742480  54.8469760  55.1995780  34.5388150  54.3412960
  55.7478770  34.3576200  53.5779070  55.2651090  33.7482260  54.8769270
  55.9727540  51.1293800  52.3513160  55.3787860  50.9978500  53.0903200
  55.9651380  50.2931940  51.8855260  65.4182560  34.4226030  50.5543190
  64.5442400  34.7561140  50.3516120  65.3093310  33.9499210  51.3795060
  55.6039770  48.4952180  51.3021200  54.8773830  47.8757470  51.2347150
  55.6648920  48.8892790  50.4319280  59.2084870  50.7097180  48.0870610
  59.7249890  50.0984540  47.5618870  59.8582250  51.2125960  48.5781620
  61.9480370  51.6005670  48.9139590  62.2358180  51.3459970  48.0372600
  62.4603590  51.0483030  49.5045160  63.1657380  35.3395870  49.4936100
  62.3829170  35.8141370  49.7732860  62.8720310  34.4350700  49.3849280
  53.8869770  51.8126570  44.5117960  53.7191810  51.1797250  45.2099850
  53.0204280  52.0185970  44.1612150  54.5097790  35.6443350  42.0149820
  55.2677150  35.7572230  41.4413850  54.0474960  36.4812550  41.9693250
  61.0511600  37.7582620  45.0052130  60.2386110  37.3839510  44.6648010
  61.5553240  37.0027700  45.3073320  65.5536580  34.4225070  46.2435200
  66.1565950  34.9945280  46.7183720  64.8129570  34.9864510  46.0209100
  55.4932470  50.5059800  41.9568100  54.9680090  50.8867830  41.2530060
  55.4177050  51.1310570  42.6777810  56.8822940  36.1707400  40.5551790
  57.4115700  35.3837200  40.4259740  57.5151260  36.8498590  40.7887320
  59.0760780  35.9082540  43.6097180  58.4463520  35.2069850  43.7767310
  58.5365920  36.6686670  43.3930340  58.0925440  52.4542180  40.8317350
  58.8244260  52.1701460  40.2841240  58.3519110  52.2155460  41.7216730
  57.2540230  48.5706910  40.8363680  56.6249110  49.0392010  41.3849510
  57.3688060  47.7256130  41.2709870  64.7089950  42.6212570  26.9864880
  64.6284000  41.7067180  26.7156590  64.2954370  43.1179640  26.2804590
  62.8407990  44.3991590  28.8674150  62.0650090  43.9192030  29.1572720
  63.4920920  43.7197240  28.6930310  56.8573820  44.7111400  29.7449910
  56.0258700  44.4560110  30.1446420  57.4654800  44.7822170  30.4807830
  56.8375080  48.7451490  29.9407930  57.1403120  47.8549230  29.7618150
  57.5818670  49.3021710  29.7130180  55.2665770  39.6713290  23.5292300
  54.3782470  40.0129260  23.4272180  55.5506960  39.4713610  22.6373130
  53.2298780  42.2718940  29.4132000  53.8014890  41.5041140  29.4135640
  53.2300320  42.5707700  28.5038610  63.0878730  51.0909790  27.2677270
  62.4690170  51.5467290  26.6971710  63.9430510  51.2461250  26.8666970
  62.2816980  47.0748780  28.8744310  62.2125260  46.1338720  28.7133440
  63.0436840  47.1650190  29.4466880  54.4723650  37.6803300  31.2000930
  54.2926490  36.7829050  31.4803690  54.0703730  38.2275170  31.8747880
  63.3122150  39.8819160  29.1013240  63.6886970  39.0091040  28.9886910
  63.2141660  40.2177860  28.2103680  57.4427160  38.2544790  24.5630680
  57.5493910  39.1548520  24.8699440  56.5319520  38.2062760  24.2725330
  55.0910320  40.1763800  29.8083270  55.7720430  40.4402170  30.4270670
  54.7758370  39.3364670  30.1421280  59.2834890  41.2231160  28.8955860
  59.7913110  41.7212130  29.5360880  59.8148130  40.4466360  28.7195220
  57.5670990  35.8629720  33.1619280  57.5689430  36.3802110  32.3565180
  56.7375300  35.3859900  33.1389210  63.9542080  45.9749030  24.6609180
  63.3359350  46.4398480  24.0971900  64.4665330  46.6676510  25.0778690
  58.8173840  45.5024900  31.3392780  58.4843220  46.1293820  31.9813850
  58.9940520  46.0286780  30.5594450  57.2486320  37.5739680  31.1689730
  57.5903130  38.4181730  30.8743600  56.3102130  37.7223420  31.2855070
  58.0292940  47.4705700  33.1541960  58.6466940  48.1456780  32.8726410
  57.1686060  47.8793680  33.0629460  53.3225280  46.6605560  22.0348810
  52.9453260  47.1492660  21.3033710  53.5798350  47.3330840  22.6655340
  60.9314210  35.0621950  27.4934320  61.2389190  34.5068840  26.7769820
  60.0014910  35.1966410  27.3107310  63.3194970  43.1270780  24.2294440
  62.3924250  43.0608160  24.4582910  63.4719790  44.0650910  24.1149680
  63.3064050  39.3987780  21.2261600  62.3667720  39.5601740  21.3114060
  63.6247310  40.1173460  20.6797590  58.9251610  43.6535520  27.0114170
  58.5208610  42.9412770  26.5160070  59.0114730  43.3088760  27.9002210
  59.3933310  47.3403080  29.1753380  59.0961600  46.7348550  28.4961160
  60.3433130  47.3780390  29.0642740  57.6380230  40.4278730  30.7913210
  58.1894820  40.5374070  30.0166460  58.1523740  40.8016330  31.5068440
  58.4851740  47.0784770  35.8261180  57.5880270  47.3024740  36.0734580
  58.5104610  47.2019710  34.8772580  65.5256960  43.9277890  21.7402440
  65.9650240  43.0900320  21.5940260  66.2385380  44.5607290  21.8266580
  57.3122960  43.9498090  34.4018550  57.1730730  44.8220890  34.7705950
  56.4304320  43.6070900  34.2566490  63.6352340  48.8673960  25.7083680
  64.0748250  49.6098290  25.2939070  63.5739230  49.1100530  26.6322640
  59.1103310  49.8919790  36.6103700  59.0818740  50.2962740  35.7432130
  58.9468280  48.9630150  36.4475300  55.6256240  42.5480500  24.5120820
  55.5053840  43.2742590  23.9002090  55.3157130  41.7783410  24.0348730
  53.2641610  45.7195640  30.3189460  53.3422030  45.8544410  29.3745180
  53.8783290  45.0111530  30.5117580  54.5089240  47.4195830  26.7295640
  54.1017320  47.5610420  25.8749240  55.4002250  47.1355990  26.5266850
  64.3268120  51.5687740  33.6362690  64.8412790  51.4795750  34.4385120
  63.4837200  51.9147440  33.9290600  58.7810900  51.6341610  24.8418310
  58.6053380  50.7177150  24.6286110  57.9266640  51.9928900  25.0816110
  65.5698580  50.9893350  25.6993180  66.0255530  50.2082730  26.0131800
  65.9091100  51.7000170  26.2434360  53.3201130  46.7609810  32.8583920
  53.4832170  46.2915170  32.0403290  53.7853580  46.2533370  33.5232760
  58.0919900  35.8915570  27.8944490  57.6488050  36.6725110  27.5629010
  58.6504890  36.2145460  28.6015430  62.3789710  38.7584090  33.4979810
  61.9169080  38.9667110  34.3099750  61.9767820  37.9443440  33.1950480
  64.4743930  41.4794790  36.7275260  64.7997340  40.6458540  36.3877490
  65.2624260  42.0023310  36.8753590  61.2078720  35.5126270  22.7750320
  60.5832900  35.5086140  23.5003630  61.1208840  34.6457230  22.3786290
  60.1295800  36.4362900  29.7534090  60.4268130  37.3425730  29.6726110
  60.6781360  35.9481680  29.1393660  57.8834120  41.0149140  25.6225740
  57.6575040  40.7986310  26.5272360  57.1026650  41.4477600  25.2771710
  65.1131880  41.0212510  24.2216390  64.5140770  41.7448310  24.0380010
  65.6611490  40.9589290  23.4392840  60.3233330  41.9134720  36.2886010
  60.2276930  40.9729450  36.1386410  61.1665310  42.1349790  35.8934080
  63.7196750  39.6576050  26.2519670  64.1126320  39.9748250  25.4388360
  64.0813600  38.7787930  26.3664190  55.4543870  38.3248390  34.4419790
  55.0607260  39.1723600  34.6492570  54.7662270  37.6874760  34.6328430
  62.0288920  38.4083360  37.5116530  61.3387240  38.2155560  38.1462620
  62.7721220  38.6918000  38.0440830  52.7560920  36.2476850  28.4749870
  52.4673970  36.8179710  29.1874850  53.5006680  35.7681300  28.8381100
  52.9431150  40.1896970  19.6852590  52.8605820  41.1327730  19.8267580
  52.5914210  40.0471880  18.8064940  64.3051890  42.2481800  30.3470450
  63.5733010  42.7568610  30.6960550  63.9076230  41.4311780  30.0459230
  60.7429280  38.9236000  28.7522940  60.7465340  38.4825950  27.9027480
  61.6380400  39.2453330  28.8594760  56.5931660  38.8062490  27.7117150
  56.2531710  39.2837720  28.4684200  55.8308980  38.3527610  27.3518250
  60.8049430  39.9248080  21.7429700  60.9262250  39.8834560  22.6915520
  60.4197940  40.7872230  21.5876430  64.7677800  37.7015480  29.7593390
  64.7850540  38.1524130  30.6035240  64.5193380  36.8021120  29.9726830
  59.8170930  42.2349220  21.1413000  59.2487830  41.7867470  20.5148910
  60.5259930  42.5942000  20.6078150  54.8940110  46.1361240  35.0179730
  54.5094900  45.4954910  35.6162690  55.2052300  46.8397360  35.5874460
  61.0437250  42.9837780  30.4988350  61.4107380  42.5096350  31.2449690
  60.8542310  43.8579350  30.8396690  53.9077740  37.7281470  26.6281820
  53.6224660  37.3637140  27.4660440  53.8456600  36.9961930  26.0144960
  58.8336620  42.0246420  32.8172560  58.5293690  42.9038400  33.0422920
  59.7883080  42.0846210  32.8530000  57.3618410  46.2307410  23.4139410
  56.5880670  45.6905030  23.2538130  58.0913040  45.7114020  23.0757170
  63.5816330  36.6210730  23.3495190  62.7680940  36.1223900  23.2740500
  63.3878280  37.4608980  22.9331540  63.5025190  45.2981830  35.0934800
  63.4362500  44.3777500  34.8392390  62.8730330  45.3957270  35.8079440
  57.4055810  45.8987790  27.0518220  57.9234480  45.0956050  26.9975110
  56.9539830  45.8366930  27.8935050  62.2925310  47.1654070  22.3245520
  62.6341010  47.9096300  21.8288840  61.4638020  47.4785190  22.6870350
  54.8900350  42.8649160  33.9643920  54.5315290  43.5303010  34.5517260
  54.5954910  42.0332710  34.3356540  58.0913470  43.3233400  36.8483470
  57.7913610  43.4690580  35.9511290  58.8624710  42.7638690  36.7556860
  63.4341920  48.1202400  34.8438600  63.4486460  47.1883360  34.6257510
  62.7267020  48.2062160  35.4828370  65.1752720  46.4869910  27.6891030
  65.5276540  45.8898040  27.0292400  64.2915050  46.1614140  27.8599280
  61.2616000  47.2467600  25.0961440  61.9487130  47.7936810  25.4769030
  60.4748420  47.7908330  25.1311050  53.4008400  42.8640420  20.5878520
  54.2703250  43.1465220  20.8714440  52.9098720  43.6776290  20.4727330
  60.5643210  44.2513630  24.7086800  61.0205990  45.0618880  24.9346990
  60.2131420  43.9336770  25.5405290  62.8675820  49.7619970  31.9379100
  63.5118040  49.9679350  32.6152520  63.2305260  49.0008370  31.4849950
  56.4654990  34.5951280  25.1809320  56.3369620  34.5869180  26.1294240
  55.6417010  34.9334370  24.8300330  64.1407900  47.7652320  30.6556550
  64.7830130  47.0645480  30.7688720  64.6657250  48.5450760  30.4753440
  65.9145520  48.5647220  33.8592610  66.2501760  49.1513910  34.5370530
  64.9945860  48.4339930  34.0890400  53.7679650  52.0767800  21.1540150
  54.1277290  52.6757140  20.4997420  53.6271990  52.6227690  21.9275180
  53.4648920  36.3542400  34.6416020  52.7507440  36.5539320  35.2468630
  53.8843960  35.5781970  35.0130820  53.7521510  50.3422660  35.6282550
  53.8612630  49.4017400  35.4877940  53.1002070  50.6077410  34.9796280
  61.7434100  48.6138550  37.0280670  61.4230970  47.8947790  37.5726360
  61.0692460  49.2893620  37.1016730  59.7848270  49.4599000  21.9713820
  59.7758370  50.1928690  21.3558330  58.8646630  49.2130580  22.0640780
  55.3854910  44.6813890  22.7160580  54.7782860  45.4212790  22.7255880
  55.8604260  44.7713250  21.8898780  64.9587700  38.8464710  32.3917470
  65.3268520  38.0259920  32.7197040  64.0985900  38.9066600  32.8073120
  62.7707870  49.5227240  20.6339010  62.8719850  49.3191230  19.7040990
  61.8709610  49.2685520  20.8386790  60.2933760  40.0807600  24.6162910
  59.5849910  40.5493940  25.0576520  60.5778240  39.4229610  25.2508100
  61.9189690  41.5004300  32.6155440  62.4174940  41.9750120  33.2807290
  62.0612640  40.5767820  32.8225470  64.3249190  36.8058260  26.0558700
  64.2016970  36.8244390  25.1068210  65.2733750  36.8537200  26.1757100
  61.4125980  52.0413560  25.3286680  61.6667480  52.0034950  24.4066050
  60.4638460  51.9146890  25.3214930  58.4968780  38.3892680  21.9913620
  59.3459310  38.8262830  21.9253810  58.1300050  38.7012940  22.8185680
  57.3960200  44.6425040  20.4649150  58.1623470  44.5306400  21.0274580
  57.4734890  43.9463010  19.8125920  56.0906960  42.0750110  21.1482040
  56.1710550  41.1277620  21.2599440  56.9826710  42.4056990  21.2542700
  56.8921670  52.2245500  28.2516580  57.6284150  51.6760960  28.5225150
  57.2762590  53.0901510  28.1122570  53.7767150  48.2919070  24.1258090
  52.8506930  48.5340210  24.1163500  54.2423580  49.1193330  24.0042840
  55.8979950  51.4091570  37.4402160  56.6992680  51.7303620  37.8537560
  55.3831770  51.0487150  38.1622070  60.0023980  51.3975810  20.0742150
  60.7952590  51.6864640  19.6223940  59.4828330  50.9667980  19.3954630
  64.7344580  47.5171440  37.3877570  64.1282740  47.5403040  36.6473320
  64.4298690  46.7854480  37.9244820  53.6177760  43.8965030  36.3838210
  54.1216780  43.3172310  36.9554440  52.8785180  44.1805260  36.9214580
  60.5201380  46.6179220  19.9384500  60.4152020  46.0031570  20.6645880
  60.3525600  46.0945110  19.1547510  60.6715700  45.3036020  35.9173730
  59.9061370  45.8721020  35.8328400  60.8531660  45.0112230  35.0241960
  63.7604110  45.6799250  20.5426490  63.2114210  46.1268550  21.1869230
  64.3823370  45.1748500  21.0664160  55.6500840  42.0394620  37.2788280
  55.6906180  41.7408490  38.1873510  56.5046340  42.4402230  37.1195800
  59.4279230  44.6390170  22.4391790  59.8495650  44.4730040  23.2823180
  59.5530070  43.8290400  21.9446930  57.5906650  40.6186720  35.2462770
  57.0603110  40.1277670  34.6186110  58.2594720  41.0470920  34.7120700
  61.9406870  43.6627780  19.6868890  62.4612530  42.9476800  19.3210040
  62.5875270  44.3013650  19.9869400  58.0778950  37.5849090  35.3260060
  57.9835820  36.9669840  34.6010930  57.4976340  38.3115380  35.0989970
  60.8440390  36.1422330  32.3587450  60.3957690  36.1646590  31.5133000
  60.2105590  35.7441350  32.9557750  61.2499940  45.0376660  32.9799890
  61.6688050  45.8809390  32.8076130  60.3308570  45.1748700  32.7506670
  63.5863840  42.7692840  34.3637730  63.7060050  42.1733980  35.1032570
  64.4457840  42.8062530  33.9439030  58.3238130  40.7123400  19.3849950
  58.1227190  39.8490760  19.7463290  58.1530180  40.6256760  18.4471550
  59.1007360  51.3429670  34.0957620  58.5628450  52.0675730  33.7766320
  59.3541320  50.8660010  33.3054960  60.3532610  39.3114190  35.6213550
  60.9432300  39.0030040  36.3091370  59.5352850  38.8393940  35.7773450
  65.1726040  38.9280000  35.8546570  64.4841560  38.2661540  35.7896560
  65.8932060  38.4818270  36.2995030  65.8026440  35.5231630  21.9136830
  66.0828730  34.6799530  22.2696250  65.0292170  35.7554740  22.4275580
  57.1220930  37.8124020  19.3727830  57.4246830  37.8191450  18.4646980
  57.8615520  37.4621880  19.8695490  61.9569570  52.5780880  34.3544270
  61.8828270  53.4816020  34.6616640  61.0548410  52.2592780  34.3266340
  60.3405860  36.7558640  20.3584030  59.9927860  36.0782630  19.7786480
  60.5418630  36.2948150  21.1727420  62.5054900  51.7439390  21.9770630
  63.4005690  52.0824360  21.9989390  62.5372530  51.0218800  21.3494910
  56.1451060  47.1166440  20.2057630  56.5825930  47.6596110  20.8615210
  56.6298790  46.2913390  20.2153970  53.3596860  49.9055470  27.6577890
  53.6899870  49.0376530  27.4256530  53.7887860  50.1113990  28.4882850
  57.9558780  48.2364480  25.3179860  57.6554320  48.1129450  26.2183770
  57.8496270  47.3773070  24.9095590  53.8487070  50.7726060  30.3959520
  53.4118060  50.9526860  31.2283670  54.4164750  51.5300680  30.2541240
  53.6811500  43.2846290  26.7548400  53.0260340  43.0157930  26.1108100
  54.5189450  43.1750770  26.3050380  54.7187430  43.6698860  31.2951740
  55.0860470  43.5826260  32.1747760  54.1498250  42.9065410  31.1958600
  54.2703430  40.5807950  35.2010160  53.3759480  40.5474710  35.5403870
  54.8100980  40.7794740  35.9661410  52.8949580  40.4945220  22.6973730
  51.9913660  40.7575420  22.5225390  53.3790200  40.7656390  21.9173690
  55.4376790  39.5510760  20.6068110  56.1468490  39.1293980  20.1215390
  54.7216730  39.6185990  19.9751460  55.0850950  35.6050090  19.6470760
  55.8079080  36.1459030  19.9651980  55.3575470  35.3313510  18.7712300
  54.7743140  34.8556280  29.5493380  55.4219330  34.3053660  29.1088540
  55.1944980  35.1099430  30.3709190  54.5275140  35.0111950  32.2918700
  54.1789960  35.4675770  33.0576880  54.1962840  34.1169080  32.3741130
  56.1339510  48.1831550  36.4571890  56.0909140  47.8124460  37.3386350
  56.2650520  49.1209120  36.5973710  59.8345540  49.7391140  32.0581610
  59.5936900  50.0065700  31.1712130  60.7748180  49.9096870  32.1132470
  62.0399960  36.2023830  35.8138120  61.9788850  36.7945660  36.5633530
  62.9800340  36.0949790  35.6688380  64.6774520  35.8593890  35.4530410
  65.2914930  36.1773180  34.7911490  65.2224080  35.3742480  36.0726270
  55.1995780  34.5388150  35.5669470  55.7478770  34.3576200  34.8035580
  55.2651090  33.7482260  36.1025780  55.9727540  51.1293800  33.5769670
  55.3787860  50.9978500  34.3159710  55.9651380  50.2931940  33.1111770
  65.4182560  34.4226030  31.7799700  64.5442400  34.7561140  31.5772630
  65.3093310  33.9499210  32.6051570  55.6039770  48.4952180  32.5277710
  54.8773830  47.8757470  32.4603660  55.6648920  48.8892790  31.6575790
  59.2084870  50.7097180  29.3127120  59.7249890  50.0984540  28.7875380
  59.8582250  51.2125960  29.8038130  61.9480370  51.6005670  30.1396100
  62.2358180  51.3459970  29.2629110  62.4603590  51.0483030  30.7301670
  63.1657380  35.3395870  30.7192610  62.3829170  35.8141370  30.9989370
  62.8720310  34.4350700  30.6105790  53.8869770  51.8126570  25.7374470
  53.7191810  51.1797250  26.4356360  53.0204280  52.0185970  25.3868660
  54.5097790  35.6443350  23.2406330  55.2677150  35.7572230  22.6670360
  54.0474960  36.4812550  23.1949760  61.0511600  37.7582620  26.2308640
  60.2386110  37.3839510  25.8904520  61.5553240  37.0027700  26.5329830
  65.5536580  34.4225070  27.4691710  66.1565950  34.9945280  27.9440230
  64.8129570  34.9864510  27.2465610  55.4932470  50.5059800  23.1824610
  54.9680090  50.8867830  22.4786570  55.4177050  51.1310570  23.9034320
  56.8822940  36.1707400  21.7808300  57.4115700  35.3837200  21.6516250
  57.5151260  36.8498590  22.0143830  59.0760780  35.9082540  24.8353690
  58.4463520  35.2069850  25.0023820  58.5365920  36.6686670  24.6186850
  62.0152730  52.5221770  37.5064300  62.9420040  52.2866040  37.5500260
  62.0003160  53.3493770  37.0250330  59.2016340  35.1866520  37.2706180
  58.9200610  35.6900120  36.5067000  59.5836040  34.3888270  36.9048310
  58.0925440  52.4542180  22.0573860  58.8244260  52.1701460  21.5097750
  58.3519110  52.2155460  22.9473240  57.2540230  48.5706910  22.0620190
  56.6249110  49.0392010  22.6106020  57.3688060  47.7256130  22.4966380
  64.7089950  42.6212570   8.2121390  64.6284000  41.7067180   7.9413100
  64.2954370  43.1179640   7.5061100  62.8407990  44.3991590  10.0930660
  62.0650090  43.9192030  10.3829230  63.4920920  43.7197240   9.9186820
  56.8573820  44.7111400  10.9706420  56.0258700  44.4560110  11.3702930
  57.4654800  44.7822170  11.7064340  56.8375080  48.7451490  11.1664440
  57.1403120  47.8549230  10.9874660  57.5818670  49.3021710  10.9386690
  55.2665770  39.6713290   4.7548810  54.3782470  40.0129260   4.6528690
  55.5506960  39.4713610   3.8629640  53.2298780  42.2718940  10.6388510
  53.8014890  41.5041140  10.6392150  53.2300320  42.5707700   9.7295120
  63.0878730  51.0909790   8.4933780  62.4690170  51.5467290   7.9228220
  63.9430510  51.2461250   8.0923480  62.2816980  47.0748780  10.1000820
  62.2125260  46.1338720   9.9389950  63.0436840  47.1650190  10.6723390
  54.4723650  37.6803300  12.4257440  54.2926490  36.7829050  12.7060200
  54.0703730  38.2275170  13.1004390  63.3122150  39.8819160  10.3269750
  63.6886970  39.0091040  10.2143420  63.2141660  40.2177860   9.4360190
  57.4427160  38.2544790   5.7887190  57.5493910  39.1548520   6.0955950
  56.5319520  38.2062760   5.4981840  55.0910320  40.1763800  11.0339780
  55.7720430  40.4402170  11.6527180  54.7758370  39.3364670  11.3677790
  59.2834890  41.2231160  10.1212370  59.7913110  41.7212130  10.7617390
  59.8148130  40.4466360   9.9451730  57.5670990  35.8629720  14.3875790
  57.5689430  36.3802110  13.5821690  56.7375300  35.3859900  14.3645720
  63.9542080  45.9749030   5.8865690  63.3359350  46.4398480   5.3228410
  64.4665330  46.6676510   6.3035200  58.8173840  45.5024900  12.5649290
  58.4843220  46.1293820  13.2070360  58.9940520  46.0286780  11.7850960
  57.2486320  37.5739680  12.3946240  57.5903130  38.4181730  12.1000110
  56.3102130  37.7223420  12.5111580  58.0292940  47.4705700  14.3798470
  58.6466940  48.1456780  14.0982920  57.1686060  47.8793680  14.2885970
  53.3225280  46.6605560   3.2605320  52.9453260  47.1492660   2.5290220
  53.5798350  47.3330840   3.8911850  60.9314210  35.0621950   8.7190830
  61.2389190  34.5068840   8.0026330  60.0014910  35.1966410   8.5363820
  63.3194970  43.1270780   5.4550950  62.3924250  43.0608160   5.6839420
  63.4719790  44.0650910   5.3406190  63.3064050  39.3987780   2.4518110
  62.3667720  39.5601740   2.5370570  63.6247310  40.1173460   1.9054100
  58.9251610  43.6535520   8.2370680  58.5208610  42.9412770   7.7416580
  59.0114730  43.3088760   9.1258720  59.3933310  47.3403080  10.4009890
  59.0961600  46.7348550   9.7217670  60.3433130  47.3780390  10.2899250
  57.6380230  40.4278730  12.0169720  58.1894820  40.5374070  11.2422970
  58.1523740  40.8016330  12.7324950  58.4851740  47.0784770  17.0517690
  57.5880270  47.3024740  17.2991090  58.5104610  47.2019710  16.1029090
  65.5256960  43.9277890   2.9658950  65.9650240  43.0900320   2.8196770
  66.2385380  44.5607290   3.0523090  57.3122960  43.9498090  15.6275060
  57.1730730  44.8220890  15.9962460  56.4304320  43.6070900  15.4823000
  63.6352340  48.8673960   6.9340190  64.0748250  49.6098290   6.5195580
  63.5739230  49.1100530   7.8579150  59.1103310  49.8919790  17.8360210
  59.0818740  50.2962740  16.9688640  58.9468280  48.9630150  17.6731810
  55.6256240  42.5480500   5.7377330  55.5053840  43.2742590   5.1258600
  55.3157130  41.7783410   5.2605240  53.2641610  45.7195640  11.5445970
  53.3422030  45.8544410  10.6001690  53.8783290  45.0111530  11.7374090
  54.5089240  47.4195830   7.9552150  54.1017320  47.5610420   7.1005750
  55.4002250  47.1355990   7.7523360  64.3268120  51.5687740  14.8619200
  64.8412790  51.4795750  15.6641630  63.4837200  51.9147440  15.1547110
  58.7810900  51.6341610   6.0674820  58.6053380  50.7177150   5.8542620
  57.9266640  51.9928900   6.3072620  65.5698580  50.9893350   6.9249690
  66.0255530  50.2082730   7.2388310  65.9091100  51.7000170   7.4690870
  53.3201130  46.7609810  14.0840430  53.4832170  46.2915170  13.2659800
  53.7853580  46.2533370  14.7489270  58.0919900  35.8915570   9.1201000
  57.6488050  36.6725110   8.7885520  58.6504890  36.2145460   9.8271940
  62.3789710  38.7584090  14.7236320  61.9169080  38.9667110  15.5356260
  61.9767820  37.9443440  14.4206990  64.4743930  41.4794790  17.9531770
  64.7997340  40.6458540  17.6134000  65.2624260  42.0023310  18.1010100
  61.2078720  35.5126270   4.0006830  60.5832900  35.5086140   4.7260140
  61.1208840  34.6457230   3.6042800  60.1295800  36.4362900  10.9790600
  60.4268130  37.3425730  10.8982620  60.6781360  35.9481680  10.3650170
  57.8834120  41.0149140   6.8482250  57.6575040  40.7986310   7.7528870
  57.1026650  41.4477600   6.5028220  65.1131880  41.0212510   5.4472900
  64.5140770  41.7448310   5.2636520  65.6611490  40.9589290   4.6649350
  60.3233330  41.9134720  17.5142520  60.2276930  40.9729450  17.3642920
  61.1665310  42.1349790  17.1190590  63.7196750  39.6576050   7.4776180
  64.1126320  39.9748250   6.6644870  64.0813600  38.7787930   7.5920700
  55.4543870  38.3248390  15.6676300  55.0607260  39.1723600  15.8749080
  54.7662270  37.6874760  15.8584940  62.0288920  38.4083360  18.7373040
  61.3387240  38.2155560  19.3719130  62.7721220  38.6918000  19.2697340
  52.7560920  36.2476850   9.7006380  52.4673970  36.8179710  10.4131360
  53.5006680  35.7681300  10.0637610  64.3051890  42.2481800  11.5726960
  63.5733010  42.7568610  11.9217060  63.9076230  41.4311780  11.2715740
  60.7429280  38.9236000   9.9779450  60.7465340  38.4825950   9.1283990
  61.6380400  39.2453330  10.0851270  56.5931660  38.8062490   8.9373660
  56.2531710  39.2837720   9.6940710  55.8308980  38.3527610   8.5774760
  60.8049430  39.9248080   2.9686210  60.9262250  39.8834560   3.9172030
  60.4197940  40.7872230   2.8132940  64.7677800  37.7015480  10.9849900
  64.7850540  38.1524130  11.8291750  64.5193380  36.8021120  11.1983340
  59.8170930  42.2349220   2.3669510  59.2487830  41.7867470   1.7405420
  60.5259930  42.5942000   1.8334660  54.8940110  46.1361240  16.2436240
  54.5094900  45.4954910  16.8419200  55.2052300  46.8397360  16.8130970
  61.0437250  42.9837780  11.7244860  61.4107380  42.5096350  12.4706200
  60.8542310  43.8579350  12.0653200  53.9077740  37.7281470   7.8538330
  53.6224660  37.3637140   8.6916950  53.8456600  36.9961930   7.2401470
  58.8336620  42.0246420  14.0429070  58.5293690  42.9038400  14.2679430
  59.7883080  42.0846210  14.0786510  57.3618410  46.2307410   4.6395920
  56.5880670  45.6905030   4.4794640  58.0913040  45.7114020   4.3013680
  63.5816330  36.6210730   4.5751700  62.7680940  36.1223900   4.4997010
  63.3878280  37.4608980   4.1588050  63.5025190  45.2981830  16.3191310
  63.4362500  44.3777500  16.0648900  62.8730330  45.3957270  17.0335950
  57.4055810  45.8987790   8.2774730  57.9234480  45.0956050   8.2231620
  56.9539830  45.8366930   9.1191560  62.2925310  47.1654070   3.5502030
  62.6341010  47.9096300   3.0545350  61.4638020  47.4785190   3.9126860
  54.8900350  42.8649160  15.1900430  54.5315290  43.5303010  15.7773770
  54.5954910  42.0332710  15.5613050  58.0913470  43.3233400  18.0739980
  57.7913610  43.4690580  17.1767800  58.8624710  42.7638690  17.9813370
  63.4341920  48.1202400  16.0695110  63.4486460  47.1883360  15.8514020
  62.7267020  48.2062160  16.7084880  65.1752720  46.4869910   8.9147540
  65.5276540  45.8898040   8.2548910  64.2915050  46.1614140   9.0855790
  61.2616000  47.2467600   6.3217950  61.9487130  47.7936810   6.7025540
  60.4748420  47.7908330   6.3567560  53.4008400  42.8640420   1.8135030
  54.2703250  43.1465220   2.0970950  52.9098720  43.6776290   1.6983840
  60.5643210  44.2513630   5.9343310  61.0205990  45.0618880   6.1603500
  60.2131420  43.9336770   6.7661800  62.8675820  49.7619970  13.1635610
  63.5118040  49.9679350  13.8409030  63.2305260  49.0008370  12.7106460
  56.4654990  34.5951280   6.4065830  56.3369620  34.5869180   7.3550750
  55.6417010  34.9334370   6.0556840  64.1407900  47.7652320  11.8813060
  64.7830130  47.0645480  11.9945230  64.6657250  48.5450760  11.7009950
  65.9145520  48.5647220  15.0849120  66.2501760  49.1513910  15.7627040
  64.9945860  48.4339930  15.3146910  53.7679650  52.0767800   2.3796660
  54.1277290  52.6757140   1.7253930  53.6271990  52.6227690   3.1531690
  53.4648920  36.3542400  15.8672530  52.7507440  36.5539320  16.4725140
  53.8843960  35.5781970  16.2387330  53.7521510  50.3422660  16.8539060
  53.8612630  49.4017400  16.7134450  53.1002070  50.6077410  16.2052790
  61.7434100  48.6138550  18.2537180  61.4230970  47.8947790  18.7982870
  61.0692460  49.2893620  18.3273240  59.7848270  49.4599000   3.1970330
  59.7758370  50.1928690   2.5814840  58.8646630  49.2130580   3.2897290
  55.3854910  44.6813890   3.9417090  54.7782860  45.4212790   3.9512390
  55.8604260  44.7713250   3.1155290  64.9587700  38.8464710  13.6173980
  65.3268520  38.0259920  13.9453550  64.0985900  38.9066600  14.0329630
  60.2933760  40.0807600   5.8419420  59.5849910  40.5493940   6.2833030
  60.5778240  39.4229610   6.4764610  61.9189690  41.5004300  13.8411950
  62.4174940  41.9750120  14.5063800  62.0612640  40.5767820  14.0481980
  64.3249190  36.8058260   7.2815210  64.2016970  36.8244390   6.3324720
  65.2733750  36.8537200   7.4013610  61.4125980  52.0413560   6.5543190
  61.6667480  52.0034950   5.6322560  60.4638460  51.9146890   6.5471440
  58.4968780  38.3892680   3.2170130  59.3459310  38.8262830   3.1510320
  58.1300050  38.7012940   4.0442190  56.0906960  42.0750110   2.3738550
  56.1710550  41.1277620   2.4855950  56.9826710  42.4056990   2.4799210
  56.8921670  52.2245500   9.4773090  57.6284150  51.6760960   9.7481660
  57.2762590  53.0901510   9.3379080  53.7767150  48.2919070   5.3514600
  52.8506930  48.5340210   5.3420010  54.2423580  49.1193330   5.2299350
  55.8979950  51.4091570  18.6658670  56.6992680  51.7303620  19.0794070
  55.3831770  51.0487150  19.3878580  64.7344580  47.5171440  18.6134080
  64.1282740  47.5403040  17.8729830  64.4298690  46.7854480  19.1501330
  53.6177760  43.8965030  17.6094720  54.1216780  43.3172310  18.1810950
  52.8785180  44.1805260  18.1471090  60.6715700  45.3036020  17.1430240
  59.9061370  45.8721020  17.0584910  60.8531660  45.0112230  16.2498470
  63.7604110  45.6799250   1.7683000  63.2114210  46.1268550   2.4125740
  64.3823370  45.1748500   2.2920670  55.6500840  42.0394620  18.5044790
  55.6906180  41.7408490  19.4130020  56.5046340  42.4402230  18.3452310
  59.4279230  44.6390170   3.6648300  59.8495650  44.4730040   4.5079690
  59.5530070  43.8290400   3.1703440  57.5906650  40.6186720  16.4719280
  57.0603110  40.1277670  15.8442620  58.2594720  41.0470920  15.9377210
  58.0778950  37.5849090  16.5516570  57.9835820  36.9669840  15.8267440
  57.4976340  38.3115380  16.3246480  60.8440390  36.1422330  13.5843960
  60.3957690  36.1646590  12.7389510  60.2105590  35.7441350  14.1814260
  61.2499940  45.0376660  14.2056400  61.6688050  45.8809390  14.0332640
  60.3308570  45.1748700  13.9763180  63.5863840  42.7692840  15.5894240
  63.7060050  42.1733980  16.3289080  64.4457840  42.8062530  15.1695540
  59.1007360  51.3429670  15.3214130  58.5628450  52.0675730  15.0022830
  59.3541320  50.8660010  14.5311470  60.3532610  39.3114190  16.8470060
  60.9432300  39.0030040  17.5347880  59.5352850  38.8393940  17.0029960
  65.1726040  38.9280000  17.0803080  64.4841560  38.2661540  17.0153070
  65.8932060  38.4818270  17.5251540  65.8026440  35.5231630   3.1393340
  66.0828730  34.6799530   3.4952760  65.0292170  35.7554740   3.6532090
  61.9569570  52.5780880  15.5800780  61.8828270  53.4816020  15.8873150
  61.0548410  52.2592780  15.5522850  62.5054900  51.7439390   3.2027140
  63.4005690  52.0824360   3.2245900  62.5372530  51.0218800   2.5751420
  53.3596860  49.9055470   8.8834400  53.6899870  49.0376530   8.6513040
  53.7887860  50.1113990   9.7139360  57.9558780  48.2364480   6.5436370
  57.6554320  48.1129450   7.4440280  57.8496270  47.3773070   6.1352100
  53.8487070  50.7726060  11.6216030  53.4118060  50.9526860  12.4540180
  54.4164750  51.5300680  11.4797750  53.6811500  43.2846290   7.9804910
  53.0260340  43.0157930   7.3364610  54.5189450  43.1750770   7.5306890
  54.7187430  43.6698860  12.5208250  55.0860470  43.5826260  13.4004270
  54.1498250  42.9065410  12.4215110  54.2703430  40.5807950  16.4266670
  53.3759480  40.5474710  16.7660380  54.8100980  40.7794740  17.1917920
  52.8949580  40.4945220   3.9230240  51.9913660  40.7575420   3.7481900
  53.3790200  40.7656390   3.1430200  54.7743140  34.8556280  10.7749890
  55.4219330  34.3053660  10.3345050  55.1944980  35.1099430  11.5965700
  54.5275140  35.0111950  13.5175210  54.1789960  35.4675770  14.2833390
  54.1962840  34.1169080  13.5997640  56.1339510  48.1831550  17.6828400
  56.0909140  47.8124460  18.5642860  56.2650520  49.1209120  17.8230220
  59.8345540  49.7391140  13.2838120  59.5936900  50.0065700  12.3968640
  60.7748180  49.9096870  13.3388980  62.0399960  36.2023830  17.0394630
  61.9788850  36.7945660  17.7890040  62.9800340  36.0949790  16.8944890
  64.6774520  35.8593890  16.6786920  65.2914930  36.1773180  16.0168000
  65.2224080  35.3742480  17.2982780  55.1995780  34.5388150  16.7925980
  55.7478770  34.3576200  16.0292090  55.2651090  33.7482260  17.3282290
  55.9727540  51.1293800  14.8026180  55.3787860  50.9978500  15.5416220
  55.9651380  50.2931940  14.3368280  65.4182560  34.4226030  13.0056210
  64.5442400  34.7561140  12.8029140  65.3093310  33.9499210  13.8308080
  55.6039770  48.4952180  13.7534220  54.8773830  47.8757470  13.6860170
  55.6648920  48.8892790  12.8832300  59.2084870  50.7097180  10.5383630
  59.7249890  50.0984540  10.0131890  59.8582250  51.2125960  11.0294640
  61.9480370  51.6005670  11.3652610  62.2358180  51.3459970  10.4885620
  62.4603590  51.0483030  11.9558180  63.1657380  35.3395870  11.9449120
  62.3829170  35.8141370  12.2245880  62.8720310  34.4350700  11.8362300
  53.8869770  51.8126570   6.9630980  53.7191810  51.1797250   7.6612870
  53.0204280  52.0185970   6.6125170  54.5097790  35.6443350   4.4662840
  55.2677150  35.7572230   3.8926870  54.0474960  36.4812550   4.4206270
  61.0511600  37.7582620   7.4565150  60.2386110  37.3839510   7.1161030
  61.5553240  37.0027700   7.7586340  65.5536580  34.4225070   8.6948220
  66.1565950  34.9945280   9.1696740  64.8129570  34.9864510   8.4722120
  55.4932470  50.5059800   4.4081120  54.9680090  50.8867830   3.7043080
  55.4177050  51.1310570   5.1290830  56.8822940  36.1707400   3.0064810
  57.4115700  35.3837200   2.8772760  57.5151260  36.8498590   3.2400340
  59.0760780  35.9082540   6.0610200  58.4463520  35.2069850   6.2280330
  58.5365920  36.6686670   5.8443360  62.0152730  52.5221770  18.7320810
  62.9420040  52.2866040  18.7756770  62.0003160  53.3493770  18.2506840
  59.2016340  35.1866520  18.4962690  58.9200610  35.6900120  17.7323510
  59.5836040  34.3888270  18.1304820  58.0925440  52.4542180   3.2830370
  58.8244260  52.1701460   2.7354260  58.3519110  52.2155460   4.1729750
  57.2540230  48.5706910   3.2876700  56.6249110  49.0392010   3.8362530
  57.3688060  47.7256130   3.7222890  64.7089950  23.8469080  45.7608370
  64.6284000  22.9323690  45.4900080  64.2954370  24.3436150  45.0548080
  62.8407990  25.6248100  47.6417640  62.0650090  25.1448540  47.9316210
  63.4920920  24.9453750  47.4673800  56.8573820  25.9367910  48.5193400
  56.0258700  25.6816620  48.9189910  57.4654800  26.0078680  49.2551320
  56.8375080  29.9708000  48.7151420  57.1403120  29.0805740  48.5361640
  57.5818670  30.5278220  48.4873670  55.2665770  20.8969800  42.3035790
  54.3782470  21.2385770  42.2015670  55.5506960  20.6970120  41.4116620
  53.2298780  23.4975450  48.1875490  53.8014890  22.7297650  48.1879130
  53.2300320  23.7964210  47.2782100  63.0878730  32.3166300  46.0420760
  62.4690170  32.7723800  45.4715200  63.9430510  32.4717760  45.6410460
  62.2816980  28.3005290  47.6487800  62.2125260  27.3595230  47.4876930
  63.0436840  28.3906700  48.2210370  54.4723650  18.9059810  49.9744420
  54.2926490  18.0085560  50.2547180  54.0703730  19.4531680  50.6491370
  63.3122150  21.1075670  47.8756730  63.6886970  20.2347550  47.7630400
  63.2141660  21.4434370  46.9847170  57.4427160  19.4801300  43.3374170
  57.5493910  20.3805030  43.6442930  56.5319520  19.4319270  43.0468820
  55.0910320  21.4020310  48.5826760  55.7720430  21.6658680  49.2014160
  54.7758370  20.5621180  48.9164770  59.2834890  22.4487670  47.6699350
  59.7913110  22.9468640  48.3104370  59.8148130  21.6722870  47.4938710
  57.5670990  17.0886230  51.9362770  57.5689430  17.6058620  51.1308670
  56.7375300  16.6116410  51.9132700  63.9542080  27.2005540  43.4352670
  63.3359350  27.6654990  42.8715390  64.4665330  27.8933020  43.8522180
  58.8173840  26.7281410  50.1136270  58.4843220  27.3550330  50.7557340
  58.9940520  27.2543290  49.3337940  57.2486320  18.7996190  49.9433220
  57.5903130  19.6438240  49.6487090  56.3102130  18.9479930  50.0598560
  58.0292940  28.6962210  51.9285450  58.6466940  29.3713290  51.6469900
  57.1686060  29.1050190  51.8372950  53.3225280  27.8862070  40.8092300
  52.9453260  28.3749170  40.0777200  53.5798350  28.5587350  41.4398830
  60.9314210  16.2878460  46.2677810  61.2389190  15.7325350  45.5513310
  60.0014910  16.4222920  46.0850800  63.3194970  24.3527290  43.0037930
  62.3924250  24.2864670  43.2326400  63.4719790  25.2907420  42.8893170
  63.3064050  20.6244290  40.0005090  62.3667720  20.7858250  40.0857550
  63.6247310  21.3429970  39.4541080  58.9251610  24.8792030  45.7857660
  58.5208610  24.1669280  45.2903560  59.0114730  24.5345270  46.6745700
  59.3933310  28.5659590  47.9496870  59.0961600  27.9605060  47.2704650
  60.3433130  28.6036900  47.8386230  57.6380230  21.6535240  49.5656700
  58.1894820  21.7630580  48.7909950  58.1523740  22.0272840  50.2811930
  58.4851740  28.3041280  54.6004670  57.5880270  28.5281250  54.8478070
  58.5104610  28.4276220  53.6516070  65.5256960  25.1534400  40.5145930
  65.9650240  24.3156830  40.3683750  66.2385380  25.7863800  40.6010070
  57.3122960  25.1754600  53.1762040  57.1730730  26.0477400  53.5449440
  56.4304320  24.8327410  53.0309980  63.6352340  30.0930470  44.4827170
  64.0748250  30.8354800  44.0682560  63.5739230  30.3357040  45.4066130
  59.1103310  31.1176300  55.3847190  59.0818740  31.5219250  54.5175620
  58.9468280  30.1886660  55.2218790  55.6256240  23.7737010  43.2864310
  55.5053840  24.4999100  42.6745580  55.3157130  23.0039920  42.8092220
  53.2641610  26.9452150  49.0932950  53.3422030  27.0800920  48.1488670
  53.8783290  26.2368040  49.2861070  54.5089240  28.6452340  45.5039130
  54.1017320  28.7866930  44.6492730  55.4002250  28.3612500  45.3010340
  64.3268120  32.7944250  52.4106180  64.8412790  32.7052260  53.2128610
  63.4837200  33.1403950  52.7034090  58.7810900  32.8598120  43.6161800
  58.6053380  31.9433660  43.4029600  57.9266640  33.2185410  43.8559600
  65.5698580  32.2149860  44.4736670  66.0255530  31.4339240  44.7875290
  65.9091100  32.9256680  45.0177850  53.3201130  27.9866320  51.6327410
  53.4832170  27.5171680  50.8146780  53.7853580  27.4789880  52.2976250
  58.0919900  17.1172080  46.6687980  57.6488050  17.8981620  46.3372500
  58.6504890  17.4401970  47.3758920  62.3789710  19.9840600  52.2723300
  61.9169080  20.1923620  53.0843240  61.9767820  19.1699950  51.9693970
  64.4743930  22.7051300  55.5018750  64.7997340  21.8715050  55.1620980
  65.2624260  23.2279820  55.6497080  61.2078720  16.7382780  41.5493810
  60.5832900  16.7342650  42.2747120  61.1208840  15.8713740  41.1529780
  60.1295800  17.6619410  48.5277580  60.4268130  18.5682240  48.4469600
  60.6781360  17.1738190  47.9137150  57.8834120  22.2405650  44.3969230
  57.6575040  22.0242820  45.3015850  57.1026650  22.6734110  44.0515200
  65.1131880  22.2469020  42.9959880  64.5140770  22.9704820  42.8123500
  65.6611490  22.1845800  42.2136330  60.3233330  23.1391230  55.0629500
  60.2276930  22.1985960  54.9129900  61.1665310  23.3606300  54.6677570
  63.7196750  20.8832560  45.0263160  64.1126320  21.2004760  44.2131850
  64.0813600  20.0044440  45.1407680  55.4543870  19.5504900  53.2163280
  55.0607260  20.3980110  53.4236060  54.7662270  18.9131270  53.4071920
  52.7560920  17.4733360  47.2493360  52.4673970  18.0436220  47.9618340
  53.5006680  16.9937810  47.6124590  52.9431150  21.4153480  38.4596080
  52.8605820  22.3584240  38.6011070  52.5914210  21.2728390  37.5808430
  64.3051890  23.4738310  49.1213940  63.5733010  23.9825120  49.4704040
  63.9076230  22.6568290  48.8202720  60.7429280  20.1492510  47.5266430
  60.7465340  19.7082460  46.6770970  61.6380400  20.4709840  47.6338250
  56.5931660  20.0319000  46.4860640  56.2531710  20.5094230  47.2427690
  55.8308980  19.5784120  46.1261740  60.8049430  21.1504590  40.5173190
  60.9262250  21.1091070  41.4659010  60.4197940  22.0128740  40.3619920
  64.7677800  18.9271990  48.5336880  64.7850540  19.3780640  49.3778730
  64.5193380  18.0277630  48.7470320  59.8170930  23.4605730  39.9156490
  59.2487830  23.0123980  39.2892400  60.5259930  23.8198510  39.3821640
  54.8940110  27.3617750  53.7923220  54.5094900  26.7211420  54.3906180
  55.2052300  28.0653870  54.3617950  61.0437250  24.2094290  49.2731840
  61.4107380  23.7352860  50.0193180  60.8542310  25.0835860  49.6140180
  53.9077740  18.9537980  45.4025310  53.6224660  18.5893650  46.2403930
  53.8456600  18.2218440  44.7888450  58.8336620  23.2502930  51.5916050
  58.5293690  24.1294910  51.8166410  59.7883080  23.3102720  51.6273490
  57.3618410  27.4563920  42.1882900  56.5880670  26.9161540  42.0281620
  58.0913040  26.9370530  41.8500660  63.5816330  17.8467240  42.1238680
  62.7680940  17.3480410  42.0483990  63.3878280  18.6865490  41.7075030
  63.5025190  26.5238340  53.8678290  63.4362500  25.6034010  53.6135880
  62.8730330  26.6213780  54.5822930  57.4055810  27.1244300  45.8261710
  57.9234480  26.3212560  45.7718600  56.9539830  27.0623440  46.6678540
  62.2925310  28.3910580  41.0989010  62.6341010  29.1352810  40.6032330
  61.4638020  28.7041700  41.4613840  54.8900350  24.0905670  52.7387410
  54.5315290  24.7559520  53.3260750  54.5954910  23.2589220  53.1100030
  58.0913470  24.5489910  55.6226960  57.7913610  24.6947090  54.7254780
  58.8624710  23.9895200  55.5300350  63.4341920  29.3458910  53.6182090
  63.4486460  28.4139870  53.4001000  62.7267020  29.4318670  54.2571860
  65.1752720  27.7126420  46.4634520  65.5276540  27.1154550  45.8035890
  64.2915050  27.3870650  46.6342770  61.2616000  28.4724110  43.8704930
  61.9487130  29.0193320  44.2512520  60.4748420  29.0164840  43.9054540
  53.4008400  24.0896930  39.3622010  54.2703250  24.3721730  39.6457930
  52.9098720  24.9032800  39.2470820  60.5643210  25.4770140  43.4830290
  61.0205990  26.2875390  43.7090480  60.2131420  25.1593280  44.3148780
  62.8675820  30.9876480  50.7122590  63.5118040  31.1935860  51.3896010
  63.2305260  30.2264880  50.2593440  56.4654990  15.8207790  43.9552810
  56.3369620  15.8125690  44.9037730  55.6417010  16.1590880  43.6043820
  64.1407900  28.9908830  49.4300040  64.7830130  28.2901990  49.5432210
  64.6657250  29.7707270  49.2496930  65.9145520  29.7903730  52.6336100
  66.2501760  30.3770420  53.3114020  64.9945860  29.6596440  52.8633890
  53.7679650  33.3024310  39.9283640  54.1277290  33.9013650  39.2740910
  53.6271990  33.8484200  40.7018670  53.4648920  17.5798910  53.4159510
  52.7507440  17.7795830  54.0212120  53.8843960  16.8038480  53.7874310
  53.7521510  31.5679170  54.4026040  53.8612630  30.6273910  54.2621430
  53.1002070  31.8333920  53.7539770  59.7848270  30.6855510  40.7457310
  59.7758370  31.4185200  40.1301820  58.8646630  30.4387090  40.8384270
  55.3854910  25.9070400  41.4904070  54.7782860  26.6469300  41.4999370
  55.8604260  25.9969760  40.6642270  64.9587700  20.0721220  51.1660960
  65.3268520  19.2516430  51.4940530  64.0985900  20.1323110  51.5816610
  62.7707870  30.7483750  39.4082500  62.8719850  30.5447740  38.4784480
  61.8709610  30.4942030  39.6130280  60.2933760  21.3064110  43.3906400
  59.5849910  21.7750450  43.8320010  60.5778240  20.6486120  44.0251590
  61.9189690  22.7260810  51.3898930  62.4174940  23.2006630  52.0550780
  62.0612640  21.8024330  51.5968960  64.3249190  18.0314770  44.8302190
  64.2016970  18.0500900  43.8811700  65.2733750  18.0793710  44.9500590
  61.4125980  33.2670070  44.1030170  61.6667480  33.2291460  43.1809540
  60.4638460  33.1403400  44.0958420  58.4968780  19.6149190  40.7657110
  59.3459310  20.0519340  40.6997300  58.1300050  19.9269450  41.5929170
  57.3960200  25.8681550  39.2392640  58.1623470  25.7562910  39.8018070
  57.4734890  25.1719520  38.5869410  56.0906960  23.3006620  39.9225530
  56.1710550  22.3534130  40.0342930  56.9826710  23.6313500  40.0286190
  56.8921670  33.4502010  47.0260070  57.6284150  32.9017470  47.2968640
  57.2762590  34.3158020  46.8866060  53.7767150  29.5175580  42.9001580
  52.8506930  29.7596720  42.8906990  54.2423580  30.3449840  42.7786330
  60.0023980  32.6232320  38.8485640  60.7952590  32.9121150  38.3967430
  59.4828330  32.1924490  38.1698120  60.5201380  27.8435730  38.7127990
  60.4152020  27.2288080  39.4389370  60.3525600  27.3201620  37.9291000
  60.6715700  26.5292530  54.6917220  59.9061370  27.0977530  54.6071890
  60.8531660  26.2368740  53.7985450  63.7604110  26.9055760  39.3169980
  63.2114210  27.3525060  39.9612720  64.3823370  26.4005010  39.8407650
  59.4279230  25.8646680  41.2135280  59.8495650  25.6986550  42.0566670
  59.5530070  25.0546910  40.7190420  57.5906650  21.8443230  54.0206260
  57.0603110  21.3534180  53.3929600  58.2594720  22.2727430  53.4864190
  61.9406870  24.8884290  38.4612380  62.4612530  24.1733310  38.0953530
  62.5875270  25.5270160  38.7612890  58.0778950  18.8105600  54.1003550
  57.9835820  18.1926350  53.3754420  57.4976340  19.5371890  53.8733460
  60.8440390  17.3678840  51.1330940  60.3957690  17.3903100  50.2876490
  60.2105590  16.9697860  51.7301240  61.2499940  26.2633170  51.7543380
  61.6688050  27.1065900  51.5819620  60.3308570  26.4005210  51.5250160
  63.5863840  23.9949350  53.1381220  63.7060050  23.3990490  53.8776060
  64.4457840  24.0319040  52.7182520  58.3238130  21.9379910  38.1593440
  58.1227190  21.0747270  38.5206780  58.1530180  21.8513270  37.2215040
  59.1007360  32.5686180  52.8701110  58.5628450  33.2932240  52.5509810
  59.3541320  32.0916520  52.0798450  60.3532610  20.5370700  54.3957040
  60.9432300  20.2286550  55.0834860  59.5352850  20.0650450  54.5516940
  65.1726040  20.1536510  54.6290060  64.4841560  19.4918050  54.5640050
  65.8932060  19.7074780  55.0738520  65.8026440  16.7488140  40.6880320
  66.0828730  15.9056040  41.0439740  65.0292170  16.9811250  41.2019070
  57.1220930  19.0380530  38.1471320  57.4246830  19.0447960  37.2390470
  57.8615520  18.6878390  38.6438980  61.9569570  33.8037390  53.1287760
  61.8828270  34.7072530  53.4360130  61.0548410  33.4849290  53.1009830
  60.3405860  17.9815150  39.1327520  59.9927860  17.3039140  38.5529970
  60.5418630  17.5204660  39.9470910  62.5054900  32.9695900  40.7514120
  63.4005690  33.3080870  40.7732880  62.5372530  32.2475310  40.1238400
  56.1451060  28.3422950  38.9801120  56.5825930  28.8852620  39.6358700
  56.6298790  27.5169900  38.9897460  53.3596860  31.1311980  46.4321380
  53.6899870  30.2633040  46.2000020  53.7887860  31.3370500  47.2626340
  57.9558780  29.4620990  44.0923350  57.6554320  29.3385960  44.9927260
  57.8496270  28.6029580  43.6839080  53.8487070  31.9982570  49.1703010
  53.4118060  32.1783370  50.0027160  54.4164750  32.7557190  49.0284730
  53.6811500  24.5102800  45.5291890  53.0260340  24.2414440  44.8851590
  54.5189450  24.4007280  45.0793870  54.7187430  24.8955370  50.0695230
  55.0860470  24.8082770  50.9491250  54.1498250  24.1321920  49.9702090
  54.2703430  21.8064460  53.9753650  53.3759480  21.7731220  54.3147360
  54.8100980  22.0051250  54.7404900  52.8949580  21.7201730  41.4717220
  51.9913660  21.9831930  41.2968880  53.3790200  21.9912900  40.6917180
  55.4376790  20.7767270  39.3811600  56.1468490  20.3550490  38.8958880
  54.7216730  20.8442500  38.7494950  55.0850950  16.8306600  38.4214250
  55.8079080  17.3715540  38.7395470  55.3575470  16.5570020  37.5455790
  54.7743140  16.0812790  48.3236870  55.4219330  15.5310170  47.8832030
  55.1944980  16.3355940  49.1452680  54.5275140  16.2368460  51.0662190
  54.1789960  16.6932280  51.8320370  54.1962840  15.3425590  51.1484620
  59.8345540  30.9647650  50.8325100  59.5936900  31.2322210  49.9455620
  60.7748180  31.1353380  50.8875960  62.0399960  17.4280340  54.5881610
  61.9788850  18.0202170  55.3377020  62.9800340  17.3206300  54.4431870
  64.6774520  17.0850400  54.2273900  65.2914930  17.4029690  53.5654980
  65.2224080  16.5998990  54.8469760  55.1995780  15.7644660  54.3412960
  55.7478770  15.5832710  53.5779070  55.2651090  14.9738770  54.8769270
  55.9727540  32.3550310  52.3513160  55.3787860  32.2235010  53.0903200
  55.9651380  31.5188450  51.8855260  65.4182560  15.6482540  50.5543190
  64.5442400  15.9817650  50.3516120  65.3093310  15.1755720  51.3795060
  55.6039770  29.7208690  51.3021200  54.8773830  29.1013980  51.2347150
  55.6648920  30.1149300  50.4319280  59.2084870  31.9353690  48.0870610
  59.7249890  31.3241050  47.5618870  59.8582250  32.4382470  48.5781620
  61.9480370  32.8262180  48.9139590  62.2358180  32.5716480  48.0372600
  62.4603590  32.2739540  49.5045160  63.1657380  16.5652380  49.4936100
  62.3829170  17.0397880  49.7732860  62.8720310  15.6607210  49.3849280
  53.8869770  33.0383080  44.5117960  53.7191810  32.4053760  45.2099850
  53.0204280  33.2442480  44.1612150  54.5097790  16.8699860  42.0149820
  55.2677150  16.9828740  41.4413850  54.0474960  17.7069060  41.9693250
  61.0511600  18.9839130  45.0052130  60.2386110  18.6096020  44.6648010
  61.5553240  18.2284210  45.3073320  65.5536580  15.6481580  46.2435200
  66.1565950  16.2201790  46.7183720  64.8129570  16.2121020  46.0209100
  55.4932470  31.7316310  41.9568100  54.9680090  32.1124340  41.2530060
  55.4177050  32.3567080  42.6777810  56.8822940  17.3963910  40.5551790
  57.4115700  16.6093710  40.4259740  57.5151260  18.0755100  40.7887320
  59.0760780  17.1339050  43.6097180  58.4463520  16.4326360  43.7767310
  58.5365920  17.8943180  43.3930340  58.0925440  33.6798690  40.8317350
  58.8244260  33.3957970  40.2841240  58.3519110  33.4411970  41.7216730
  57.2540230  29.7963420  40.8363680  56.6249110  30.2648520  41.3849510
  57.3688060  28.9512640  41.2709870  64.7089950  23.8469080  26.9864880
  64.6284000  22.9323690  26.7156590  64.2954370  24.3436150  26.2804590
  62.8407990  25.6248100  28.8674150  62.0650090  25.1448540  29.1572720
  63.4920920  24.9453750  28.6930310  56.8573820  25.9367910  29.7449910
  56.0258700  25.6816620  30.1446420  57.4654800  26.0078680  30.4807830
  56.8375080  29.9708000  29.9407930  57.1403120  29.0805740  29.7618150
  57.5818670  30.5278220  29.7130180  55.2665770  20.8969800  23.5292300
  54.3782470  21.2385770  23.4272180  55.5506960  20.6970120  22.6373130
  53.2298780  23.4975450  29.4132000  53.8014890  22.7297650  29.4135640
  53.2300320  23.7964210  28.5038610  63.0878730  32.3166300  27.2677270
  62.4690170  32.7723800  26.6971710  63.9430510  32.4717760  26.8666970
  62.2816980  28.3005290  28.8744310  62.2125260  27.3595230  28.7133440
  63.0436840  28.3906700  29.4466880  54.4723650  18.9059810  31.2000930
  54.2926490  18.0085560  31.4803690  54.0703730  19.4531680  31.8747880
  63.3122150  21.1075670  29.1013240  63.6886970  20.2347550  28.9886910
  63.2141660  21.4434370  28.2103680  57.4427160  19.4801300  24.5630680
  57.5493910  20.3805030  24.8699440  56.5319520  19.4319270  24.2725330
  55.0910320  21.4020310  29.8083270  55.7720430  21.6658680  30.4270670
  54.7758370  20.5621180  30.1421280  59.2834890  22.4487670  28.8955860
  59.7913110  22.9468640  29.5360880  59.8148130  21.6722870  28.7195220
  57.5670990  17.0886230  33.1619280  57.5689430  17.6058620  32.3565180
  56.7375300  16.6116410  33.1389210  63.9542080  27.2005540  24.6609180
  63.3359350  27.6654990  24.0971900  64.4665330  27.8933020  25.0778690
  58.8173840  26.7281410  31.3392780  58.4843220  27.3550330  31.9813850
  58.9940520  27.2543290  30.5594450  57.2486320  18.7996190  31.1689730
  57.5903130  19.6438240  30.8743600  56.3102130  18.9479930  31.2855070
  58.0292940  28.6962210  33.1541960  58.6466940  29.3713290  32.8726410
  57.1686060  29.1050190  33.0629460  53.3225280  27.8862070  22.0348810
  52.9453260  28.3749170  21.3033710  53.5798350  28.5587350  22.6655340
  60.9314210  16.2878460  27.4934320  61.2389190  15.7325350  26.7769820
  60.0014910  16.4222920  27.3107310  63.3194970  24.3527290  24.2294440
  62.3924250  24.2864670  24.4582910  63.4719790  25.2907420  24.1149680
  63.3064050  20.6244290  21.2261600  62.3667720  20.7858250  21.3114060
  63.6247310  21.3429970  20.6797590  58.9251610  24.8792030  27.0114170
  58.5208610  24.1669280  26.5160070  59.0114730  24.5345270  27.9002210
  59.3933310  28.5659590  29.1753380  59.0961600  27.9605060  28.4961160
  60.3433130  28.6036900  29.0642740  57.6380230  21.6535240  30.7913210
  58.1894820  21.7630580  30.0166460  58.1523740  22.0272840  31.5068440
  58.4851740  28.3041280  35.8261180  57.5880270  28.5281250  36.0734580
  58.5104610  28.4276220  34.8772580  65.5256960  25.1534400  21.7402440
  65.9650240  24.3156830  21.5940260  66.2385380  25.7863800  21.8266580
  57.3122960  25.1754600  34.4018550  57.1730730  26.0477400  34.7705950
  56.4304320  24.8327410  34.2566490  63.6352340  30.0930470  25.7083680
  64.0748250  30.8354800  25.2939070  63.5739230  30.3357040  26.6322640
  59.1103310  31.1176300  36.6103700  59.0818740  31.5219250  35.7432130
  58.9468280  30.1886660  36.4475300  55.6256240  23.7737010  24.5120820
  55.5053840  24.4999100  23.9002090  55.3157130  23.0039920  24.0348730
  53.2641610  26.9452150  30.3189460  53.3422030  27.0800920  29.3745180
  53.8783290  26.2368040  30.5117580  54.5089240  28.6452340  26.7295640
  54.1017320  28.7866930  25.8749240  55.4002250  28.3612500  26.5266850
  64.3268120  32.7944250  33.6362690  64.8412790  32.7052260  34.4385120
  63.4837200  33.1403950  33.9290600  58.7810900  32.8598120  24.8418310
  58.6053380  31.9433660  24.6286110  57.9266640  33.2185410  25.0816110
  65.5698580  32.2149860  25.6993180  66.0255530  31.4339240  26.0131800
  65.9091100  32.9256680  26.2434360  53.3201130  27.9866320  32.8583920
  53.4832170  27.5171680  32.0403290  53.7853580  27.4789880  33.5232760
  58.0919900  17.1172080  27.8944490  57.6488050  17.8981620  27.5629010
  58.6504890  17.4401970  28.6015430  62.3789710  19.9840600  33.4979810
  61.9169080  20.1923620  34.3099750  61.9767820  19.1699950  33.1950480
  64.4743930  22.7051300  36.7275260  64.7997340  21.8715050  36.3877490
  65.2624260  23.2279820  36.8753590  61.2078720  16.7382780  22.7750320
  60.5832900  16.7342650  23.5003630  61.1208840  15.8713740  22.3786290
  60.1295800  17.6619410  29.7534090  60.4268130  18.5682240  29.6726110
  60.6781360  17.1738190  29.1393660  57.8834120  22.2405650  25.6225740
  57.6575040  22.0242820  26.5272360  57.1026650  22.6734110  25.2771710
  65.1131880  22.2469020  24.2216390  64.5140770  22.9704820  24.0380010
  65.6611490  22.1845800  23.4392840  60.3233330  23.1391230  36.2886010
  60.2276930  22.1985960  36.1386410  61.1665310  23.3606300  35.8934080
  63.7196750  20.8832560  26.2519670  64.1126320  21.2004760  25.4388360
  64.0813600  20.0044440  26.3664190  55.4543870  19.5504900  34.4419790
  55.0607260  20.3980110  34.6492570  54.7662270  18.9131270  34.6328430
  62.0288920  19.6339870  37.5116530  61.3387240  19.4412070  38.1462620
  62.7721220  19.9174510  38.0440830  52.7560920  17.4733360  28.4749870
  52.4673970  18.0436220  29.1874850  53.5006680  16.9937810  28.8381100
  52.9431150  21.4153480  19.6852590  52.8605820  22.3584240  19.8267580
  52.5914210  21.2728390  18.8064940  64.3051890  23.4738310  30.3470450
  63.5733010  23.9825120  30.6960550  63.9076230  22.6568290  30.0459230
  60.7429280  20.1492510  28.7522940  60.7465340  19.7082460  27.9027480
  61.6380400  20.4709840  28.8594760  56.5931660  20.0319000  27.7117150
  56.2531710  20.5094230  28.4684200  55.8308980  19.5784120  27.3518250
  60.8049430  21.1504590  21.7429700  60.9262250  21.1091070  22.6915520
  60.4197940  22.0128740  21.5876430  64.7677800  18.9271990  29.7593390
  64.7850540  19.3780640  30.6035240  64.5193380  18.0277630  29.9726830
  59.8170930  23.4605730  21.1413000  59.2487830  23.0123980  20.5148910
  60.5259930  23.8198510  20.6078150  54.8940110  27.3617750  35.0179730
  54.5094900  26.7211420  35.6162690  55.2052300  28.0653870  35.5874460
  61.0437250  24.2094290  30.4988350  61.4107380  23.7352860  31.2449690
  60.8542310  25.0835860  30.8396690  53.9077740  18.9537980  26.6281820
  53.6224660  18.5893650  27.4660440  53.8456600  18.2218440  26.0144960
  58.8336620  23.2502930  32.8172560  58.5293690  24.1294910  33.0422920
  59.7883080  23.3102720  32.8530000  57.3618410  27.4563920  23.4139410
  56.5880670  26.9161540  23.2538130  58.0913040  26.9370530  23.0757170
  63.5816330  17.8467240  23.3495190  62.7680940  17.3480410  23.2740500
  63.3878280  18.6865490  22.9331540  63.5025190  26.5238340  35.0934800
  63.4362500  25.6034010  34.8392390  62.8730330  26.6213780  35.8079440
  57.4055810  27.1244300  27.0518220  57.9234480  26.3212560  26.9975110
  56.9539830  27.0623440  27.8935050  62.2925310  28.3910580  22.3245520
  62.6341010  29.1352810  21.8288840  61.4638020  28.7041700  22.6870350
  54.8900350  24.0905670  33.9643920  54.5315290  24.7559520  34.5517260
  54.5954910  23.2589220  34.3356540  58.0913470  24.5489910  36.8483470
  57.7913610  24.6947090  35.9511290  58.8624710  23.9895200  36.7556860
  63.4341920  29.3458910  34.8438600  63.4486460  28.4139870  34.6257510
  62.7267020  29.4318670  35.4828370  65.1752720  27.7126420  27.6891030
  65.5276540  27.1154550  27.0292400  64.2915050  27.3870650  27.8599280
  61.2616000  28.4724110  25.0961440  61.9487130  29.0193320  25.4769030
  60.4748420  29.0164840  25.1311050  53.4008400  24.0896930  20.5878520
  54.2703250  24.3721730  20.8714440  52.9098720  24.9032800  20.4727330
  60.5643210  25.4770140  24.7086800  61.0205990  26.2875390  24.9346990
  60.2131420  25.1593280  25.5405290  62.8675820  30.9876480  31.9379100
  63.5118040  31.1935860  32.6152520  63.2305260  30.2264880  31.4849950
  56.4654990  15.8207790  25.1809320  56.3369620  15.8125690  26.1294240
  55.6417010  16.1590880  24.8300330  64.1407900  28.9908830  30.6556550
  64.7830130  28.2901990  30.7688720  64.6657250  29.7707270  30.4753440
  65.9145520  29.7903730  33.8592610  66.2501760  30.3770420  34.5370530
  64.9945860  29.6596440  34.0890400  53.7679650  33.3024310  21.1540150
  54.1277290  33.9013650  20.4997420  53.6271990  33.8484200  21.9275180
  53.4648920  17.5798910  34.6416020  52.7507440  17.7795830  35.2468630
  53.8843960  16.8038480  35.0130820  53.7521510  31.5679170  35.6282550
  53.8612630  30.6273910  35.4877940  53.1002070  31.8333920  34.9796280
  61.7434100  29.8395060  37.0280670  61.4230970  29.1204300  37.5726360
  61.0692460  30.5150130  37.1016730  59.7848270  30.6855510  21.9713820
  59.7758370  31.4185200  21.3558330  58.8646630  30.4387090  22.0640780
  55.3854910  25.9070400  22.7160580  54.7782860  26.6469300  22.7255880
  55.8604260  25.9969760  21.8898780  64.9587700  20.0721220  32.3917470
  65.3268520  19.2516430  32.7197040  64.0985900  20.1323110  32.8073120
  62.7707870  30.7483750  20.6339010  62.8719850  30.5447740  19.7040990
  61.8709610  30.4942030  20.8386790  60.2933760  21.3064110  24.6162910
  59.5849910  21.7750450  25.0576520  60.5778240  20.6486120  25.2508100
  61.9189690  22.7260810  32.6155440  62.4174940  23.2006630  33.2807290
  62.0612640  21.8024330  32.8225470  64.3249190  18.0314770  26.0558700
  64.2016970  18.0500900  25.1068210  65.2733750  18.0793710  26.1757100
  61.4125980  33.2670070  25.3286680  61.6667480  33.2291460  24.4066050
  60.4638460  33.1403400  25.3214930  58.4968780  19.6149190  21.9913620
  59.3459310  20.0519340  21.9253810  58.1300050  19.9269450  22.8185680
  57.3960200  25.8681550  20.4649150  58.1623470  25.7562910  21.0274580
  57.4734890  25.1719520  19.8125920  56.0906960  23.3006620  21.1482040
  56.1710550  22.3534130  21.2599440  56.9826710  23.6313500  21.2542700
  56.8921670  33.4502010  28.2516580  57.6284150  32.9017470  28.5225150
  57.2762590  34.3158020  28.1122570  53.7767150  29.5175580  24.1258090
  52.8506930  29.7596720  24.1163500  54.2423580  30.3449840  24.0042840
  55.8979950  32.6348080  37.4402160  56.6992680  32.9560130  37.8537560
  55.3831770  32.2743660  38.1622070  60.0023980  32.6232320  20.0742150
  60.7952590  32.9121150  19.6223940  59.4828330  32.1924490  19.3954630
  64.7344580  28.7427950  37.3877570  64.1282740  28.7659550  36.6473320
  64.4298690  28.0110990  37.9244820  53.6177760  25.1221540  36.3838210
  54.1216780  24.5428820  36.9554440  52.8785180  25.4061770  36.9214580
  60.5201380  27.8435730  19.9384500  60.4152020  27.2288080  20.6645880
  60.3525600  27.3201620  19.1547510  60.6715700  26.5292530  35.9173730
  59.9061370  27.0977530  35.8328400  60.8531660  26.2368740  35.0241960
  63.7604110  26.9055760  20.5426490  63.2114210  27.3525060  21.1869230
  64.3823370  26.4005010  21.0664160  55.6500840  23.2651130  37.2788280
  55.6906180  22.9665000  38.1873510  56.5046340  23.6658740  37.1195800
  59.4279230  25.8646680  22.4391790  59.8495650  25.6986550  23.2823180
  59.5530070  25.0546910  21.9446930  57.5906650  21.8443230  35.2462770
  57.0603110  21.3534180  34.6186110  58.2594720  22.2727430  34.7120700
  61.9406870  24.8884290  19.6868890  62.4612530  24.1733310  19.3210040
  62.5875270  25.5270160  19.9869400  58.0778950  18.8105600  35.3260060
  57.9835820  18.1926350  34.6010930  57.4976340  19.5371890  35.0989970
  60.8440390  17.3678840  32.3587450  60.3957690  17.3903100  31.5133000
  60.2105590  16.9697860  32.9557750  61.2499940  26.2633170  32.9799890
  61.6688050  27.1065900  32.8076130  60.3308570  26.4005210  32.7506670
  63.5863840  23.9949350  34.3637730  63.7060050  23.3990490  35.1032570
  64.4457840  24.0319040  33.9439030  58.3238130  21.9379910  19.3849950
  58.1227190  21.0747270  19.7463290  58.1530180  21.8513270  18.4471550
  59.1007360  32.5686180  34.0957620  58.5628450  33.2932240  33.7766320
  59.3541320  32.0916520  33.3054960  60.3532610  20.5370700  35.6213550
  60.9432300  20.2286550  36.3091370  59.5352850  20.0650450  35.7773450
  65.1726040  20.1536510  35.8546570  64.4841560  19.4918050  35.7896560
  65.8932060  19.7074780  36.2995030  65.8026440  16.7488140  21.9136830
  66.0828730  15.9056040  22.2696250  65.0292170  16.9811250  22.4275580
  57.1220930  19.0380530  19.3727830  57.4246830  19.0447960  18.4646980
  57.8615520  18.6878390  19.8695490  61.9569570  33.8037390  34.3544270
  61.8828270  34.7072530  34.6616640  61.0548410  33.4849290  34.3266340
  60.3405860  17.9815150  20.3584030  59.9927860  17.3039140  19.7786480
  60.5418630  17.5204660  21.1727420  62.5054900  32.9695900  21.9770630
  63.4005690  33.3080870  21.9989390  62.5372530  32.2475310  21.3494910
  56.1451060  28.3422950  20.2057630  56.5825930  28.8852620  20.8615210
  56.6298790  27.5169900  20.2153970  53.3596860  31.1311980  27.6577890
  53.6899870  30.2633040  27.4256530  53.7887860  31.3370500  28.4882850
  57.9558780  29.4620990  25.3179860  57.6554320  29.3385960  26.2183770
  57.8496270  28.6029580  24.9095590  53.8487070  31.9982570  30.3959520
  53.4118060  32.1783370  31.2283670  54.4164750  32.7557190  30.2541240
  53.6811500  24.5102800  26.7548400  53.0260340  24.2414440  26.1108100
  54.5189450  24.4007280  26.3050380  54.7187430  24.8955370  31.2951740
  55.0860470  24.8082770  32.1747760  54.1498250  24.1321920  31.1958600
  54.2703430  21.8064460  35.2010160  53.3759480  21.7731220  35.5403870
  54.8100980  22.0051250  35.9661410  52.8949580  21.7201730  22.6973730
  51.9913660  21.9831930  22.5225390  53.3790200  21.9912900  21.9173690
  55.4376790  20.7767270  20.6068110  56.1468490  20.3550490  20.1215390
  54.7216730  20.8442500  19.9751460  55.0850950  16.8306600  19.6470760
  55.8079080  17.3715540  19.9651980  55.3575470  16.5570020  18.7712300
  54.7743140  16.0812790  29.5493380  55.4219330  15.5310170  29.1088540
  55.1944980  16.3355940  30.3709190  54.5275140  16.2368460  32.2918700
  54.1789960  16.6932280  33.0576880  54.1962840  15.3425590  32.3741130
  56.1339510  29.4088060  36.4571890  56.0909140  29.0380970  37.3386350
  56.2650520  30.3465630  36.5973710  59.8345540  30.9647650  32.0581610
  59.5936900  31.2322210  31.1712130  60.7748180  31.1353380  32.1132470
  62.0399960  17.4280340  35.8138120  61.9788850  18.0202170  36.5633530
  62.9800340  17.3206300  35.6688380  64.6774520  17.0850400  35.4530410
  65.2914930  17.4029690  34.7911490  65.2224080  16.5998990  36.0726270
  55.1995780  15.7644660  35.5669470  55.7478770  15.5832710  34.8035580
  55.2651090  14.9738770  36.1025780  55.9727540  32.3550310  33.5769670
  55.3787860  32.2235010  34.3159710  55.9651380  31.5188450  33.1111770
  65.4182560  15.6482540  31.7799700  64.5442400  15.9817650  31.5772630
  65.3093310  15.1755720  32.6051570  55.6039770  29.7208690  32.5277710
  54.8773830  29.1013980  32.4603660  55.6648920  30.1149300  31.6575790
  59.2084870  31.9353690  29.3127120  59.7249890  31.3241050  28.7875380
  59.8582250  32.4382470  29.8038130  61.9480370  32.8262180  30.1396100
  62.2358180  32.5716480  29.2629110  62.4603590  32.2739540  30.7301670
  63.1657380  16.5652380  30.7192610  62.3829170  17.0397880  30.9989370
  62.8720310  15.6607210  30.6105790  53.8869770  33.0383080  25.7374470
  53.7191810  32.4053760  26.4356360  53.0204280  33.2442480  25.3868660
  54.5097790  16.8699860  23.2406330  55.2677150  16.9828740  22.6670360
  54.0474960  17.7069060  23.1949760  61.0511600  18.9839130  26.2308640
  60.2386110  18.6096020  25.8904520  61.5553240  18.2284210  26.5329830
  65.5536580  15.6481580  27.4691710  66.1565950  16.2201790  27.9440230
  64.8129570  16.2121020  27.2465610  55.4932470  31.7316310  23.1824610
  54.9680090  32.1124340  22.4786570  55.4177050  32.3567080  23.9034320
  56.8822940  17.3963910  21.7808300  57.4115700  16.6093710  21.6516250
  57.5151260  18.0755100  22.0143830  59.0760780  17.1339050  24.8353690
  58.4463520  16.4326360  25.0023820  58.5365920  17.8943180  24.6186850
  62.0152730  33.7478280  37.5064300  62.9420040  33.5122550  37.5500260
  62.0003160  34.5750280  37.0250330  59.2016340  16.4123030  37.2706180
  58.9200610  16.9156630  36.5067000  59.5836040  15.6144780  36.9048310
  58.0925440  33.6798690  22.0573860  58.8244260  33.3957970  21.5097750
  58.3519110  33.4411970  22.9473240  57.2540230  29.7963420  22.0620190
  56.6249110  30.2648520  22.6106020  57.3688060  28.9512640  22.4966380
  64.7089950  23.8469080   8.2121390  64.6284000  22.9323690   7.9413100
  64.2954370  24.3436150   7.5061100  62.8407990  25.6248100  10.0930660
  62.0650090  25.1448540  10.3829230  63.4920920  24.9453750   9.9186820
  56.8573820  25.9367910  10.9706420  56.0258700  25.6816620  11.3702930
  57.4654800  26.0078680  11.7064340  56.8375080  29.9708000  11.1664440
  57.1403120  29.0805740  10.9874660  57.5818670  30.5278220  10.9386690
  55.2665770  20.8969800   4.7548810  54.3782470  21.2385770   4.6528690
  55.5506960  20.6970120   3.8629640  53.2298780  23.4975450  10.6388510
  53.8014890  22.7297650  10.6392150  53.2300320  23.7964210   9.7295120
  63.0878730  32.3166300   8.4933780  62.4690170  32.7723800   7.9228220
  63.9430510  32.4717760   8.0923480  62.2816980  28.3005290  10.1000820
  62.2125260  27.3595230   9.9389950  63.0436840  28.3906700  10.6723390
  54.4723650  18.9059810  12.4257440  54.2926490  18.0085560  12.7060200
  54.0703730  19.4531680  13.1004390  63.3122150  21.1075670  10.3269750
  63.6886970  20.2347550  10.2143420  63.2141660  21.4434370   9.4360190
  57.4427160  19.4801300   5.7887190  57.5493910  20.3805030   6.0955950
  56.5319520  19.4319270   5.4981840  55.0910320  21.4020310  11.0339780
  55.7720430  21.6658680  11.6527180  54.7758370  20.5621180  11.3677790
  59.2834890  22.4487670  10.1212370  59.7913110  22.9468640  10.7617390
  59.8148130  21.6722870   9.9451730  57.5670990  17.0886230  14.3875790
  57.5689430  17.6058620  13.5821690  56.7375300  16.6116410  14.3645720
  63.9542080  27.2005540   5.8865690  63.3359350  27.6654990   5.3228410
  64.4665330  27.8933020   6.3035200  58.8173840  26.7281410  12.5649290
  58.4843220  27.3550330  13.2070360  58.9940520  27.2543290  11.7850960
  57.2486320  18.7996190  12.3946240  57.5903130  19.6438240  12.1000110
  56.3102130  18.9479930  12.5111580  58.0292940  28.6962210  14.3798470
  58.6466940  29.3713290  14.0982920  57.1686060  29.1050190  14.2885970
  53.3225280  27.8862070   3.2605320  52.9453260  28.3749170   2.5290220
  53.5798350  28.5587350   3.8911850  60.9314210  16.2878460   8.7190830
  61.2389190  15.7325350   8.0026330  60.0014910  16.4222920   8.5363820
  63.3194970  24.3527290   5.4550950  62.3924250  24.2864670   5.6839420
  63.4719790  25.2907420   5.3406190  63.3064050  20.6244290   2.4518110
  62.3667720  20.7858250   2.5370570  63.6247310  21.3429970   1.9054100
  58.9251610  24.8792030   8.2370680  58.5208610  24.1669280   7.7416580
  59.0114730  24.5345270   9.1258720  59.3933310  28.5659590  10.4009890
  59.0961600  27.9605060   9.7217670  60.3433130  28.6036900  10.2899250
  57.6380230  21.6535240  12.0169720  58.1894820  21.7630580  11.2422970
  58.1523740  22.0272840  12.7324950  58.4851740  28.3041280  17.0517690
  57.5880270  28.5281250  17.2991090  58.5104610  28.4276220  16.1029090
  65.5256960  25.1534400   2.9658950  65.9650240  24.3156830   2.8196770
  66.2385380  25.7863800   3.0523090  57.3122960  25.1754600  15.6275060
  57.1730730  26.0477400  15.9962460  56.4304320  24.8327410  15.4823000
  63.6352340  30.0930470   6.9340190  64.0748250  30.8354800   6.5195580
  63.5739230  30.3357040   7.8579150  59.1103310  31.1176300  17.8360210
  59.0818740  31.5219250  16.9688640  58.9468280  30.1886660  17.6731810
  55.6256240  23.7737010   5.7377330  55.5053840  24.4999100   5.1258600
  55.3157130  23.0039920   5.2605240  53.2641610  26.9452150  11.5445970
  53.3422030  27.0800920  10.6001690  53.8783290  26.2368040  11.7374090
  54.5089240  28.6452340   7.9552150  54.1017320  28.7866930   7.1005750
  55.4002250  28.3612500   7.7523360  64.3268120  32.7944250  14.8619200
  64.8412790  32.7052260  15.6641630  63.4837200  33.1403950  15.1547110
  58.7810900  32.8598120   6.0674820  58.6053380  31.9433660   5.8542620
  57.9266640  33.2185410   6.3072620  65.5698580  32.2149860   6.9249690
  66.0255530  31.4339240   7.2388310  65.9091100  32.9256680   7.4690870
  53.3201130  27.9866320  14.0840430  53.4832170  27.5171680  13.2659800
  53.7853580  27.4789880  14.7489270  58.0919900  17.1172080   9.1201000
  57.6488050  17.8981620   8.7885520  58.6504890  17.4401970   9.8271940
  62.3789710  19.9840600  14.7236320  61.9169080  20.1923620  15.5356260
  61.9767820  19.1699950  14.4206990  64.4743930  22.7051300  17.9531770
  64.7997340  21.8715050  17.6134000  65.2624260  23.2279820  18.1010100
  61.2078720  16.7382780   4.0006830  60.5832900  16.7342650   4.7260140
  61.1208840  15.8713740   3.6042800  60.1295800  17.6619410  10.9790600
  60.4268130  18.5682240  10.8982620  60.6781360  17.1738190  10.3650170
  57.8834120  22.2405650   6.8482250  57.6575040  22.0242820   7.7528870
  57.1026650  22.6734110   6.5028220  65.1131880  22.2469020   5.4472900
  64.5140770  22.9704820   5.2636520  65.6611490  22.1845800   4.6649350
  60.3233330  23.1391230  17.5142520  60.2276930  22.1985960  17.3642920
  61.1665310  23.3606300  17.1190590  63.7196750  20.8832560   7.4776180
  64.1126320  21.2004760   6.6644870  64.0813600  20.0044440   7.5920700
  55.4543870  19.5504900  15.6676300  55.0607260  20.3980110  15.8749080
  54.7662270  18.9131270  15.8584940  62.0288920  19.6339870  18.7373040
  61.3387240  19.4412070  19.3719130  62.7721220  19.9174510  19.2697340
  52.7560920  17.4733360   9.7006380  52.4673970  18.0436220  10.4131360
  53.5006680  16.9937810  10.0637610  64.3051890  23.4738310  11.5726960
  63.5733010  23.9825120  11.9217060  63.9076230  22.6568290  11.2715740
  60.7429280  20.1492510   9.9779450  60.7465340  19.7082460   9.1283990
  61.6380400  20.4709840  10.0851270  56.5931660  20.0319000   8.9373660
  56.2531710  20.5094230   9.6940710  55.8308980  19.5784120   8.5774760
  60.8049430  21.1504590   2.9686210  60.9262250  21.1091070   3.9172030
  60.4197940  22.0128740   2.8132940  64.7677800  18.9271990  10.9849900
  64.7850540  19.3780640  11.8291750  64.5193380  18.0277630  11.1983340
  59.8170930  23.4605730   2.3669510  59.2487830  23.0123980   1.7405420
  60.5259930  23.8198510   1.8334660  54.8940110  27.3617750  16.2436240
  54.5094900  26.7211420  16.8419200  55.2052300  28.0653870  16.8130970
  61.0437250  24.2094290  11.7244860  61.4107380  23.7352860  12.4706200
  60.8542310  25.0835860  12.0653200  53.9077740  18.9537980   7.8538330
  53.6224660  18.5893650   8.6916950  53.8456600  18.2218440   7.2401470
  58.8336620  23.2502930  14.0429070  58.5293690  24.1294910  14.2679430
  59.7883080  23.3102720  14.0786510  57.3618410  27.4563920   4.6395920
  56.5880670  26.9161540   4.4794640  58.0913040  26.9370530   4.3013680
  63.5816330  17.8467240   4.5751700  62.7680940  17.3480410   4.4997010
  63.3878280  18.6865490   4.1588050  63.5025190  26.5238340  16.3191310
  63.4362500  25.6034010  16.0648900  62.8730330  26.6213780  17.0335950
  57.4055810  27.1244300   8.2774730  57.9234480  26.3212560   8.2231620
  56.9539830  27.0623440   9.1191560  62.2925310  28.3910580   3.5502030
  62.6341010  29.1352810   3.0545350  61.4638020  28.7041700   3.9126860
  54.8900350  24.0905670  15.1900430  54.5315290  24.7559520  15.7773770
  54.5954910  23.2589220  15.5613050  58.0913470  24.5489910  18.0739980
  57.7913610  24.6947090  17.1767800  58.8624710  23.9895200  17.9813370
  63.4341920  29.3458910  16.0695110  63.4486460  28.4139870  15.8514020
  62.7267020  29.4318670  16.7084880  65.1752720  27.7126420   8.9147540
  65.5276540  27.1154550   8.2548910  64.2915050  27.3870650   9.0855790
  61.2616000  28.4724110   6.3217950  61.9487130  29.0193320   6.7025540
  60.4748420  29.0164840   6.3567560  53.4008400  24.0896930   1.8135030
  54.2703250  24.3721730   2.0970950  52.9098720  24.9032800   1.6983840
  60.5643210  25.4770140   5.9343310  61.0205990  26.2875390   6.1603500
  60.2131420  25.1593280   6.7661800  62.8675820  30.9876480  13.1635610
  63.5118040  31.1935860  13.8409030  63.2305260  30.2264880  12.7106460
  56.4654990  15.8207790   6.4065830  56.3369620  15.8125690   7.3550750
  55.6417010  16.1590880   6.0556840  64.1407900  28.9908830  11.8813060
  64.7830130  28.2901990  11.9945230  64.6657250  29.7707270  11.7009950
  65.9145520  29.7903730  15.0849120  66.2501760  30.3770420  15.7627040
  64.9945860  29.6596440  15.3146910  53.7679650  33.3024310   2.3796660
  54.1277290  33.9013650   1.7253930  53.6271990  33.8484200   3.1531690
  53.4648920  17.5798910  15.8672530  52.7507440  17.7795830  16.4725140
  53.8843960  16.8038480  16.2387330  53.7521510  31.5679170  16.8539060
  53.8612630  30.6273910  16.7134450  53.1002070  31.8333920  16.2052790
  61.7434100  29.8395060  18.2537180  61.4230970  29.1204300  18.7982870
  61.0692460  30.5150130  18.3273240  59.7848270  30.6855510   3.1970330
  59.7758370  31.4185200   2.5814840  58.8646630  30.4387090   3.2897290
  55.3854910  25.9070400   3.9417090  54.7782860  26.6469300   3.9512390
  55.8604260  25.9969760   3.1155290  64.9587700  20.0721220  13.6173980
  65.3268520  19.2516430  13.9453550  64.0985900  20.1323110  14.0329630
  60.2933760  21.3064110   5.8419420  59.5849910  21.7750450   6.2833030
  60.5778240  20.6486120   6.4764610  61.9189690  22.7260810  13.8411950
  62.4174940  23.2006630  14.5063800  62.0612640  21.8024330  14.0481980
  64.3249190  18.0314770   7.2815210  64.2016970  18.0500900   6.3324720
  65.2733750  18.0793710   7.4013610  61.4125980  33.2670070   6.5543190
  61.6667480  33.2291460   5.6322560  60.4638460  33.1403400   6.5471440
  58.4968780  19.6149190   3.2170130  59.3459310  20.0519340   3.1510320
  58.1300050  19.9269450   4.0442190  56.0906960  23.3006620   2.3738550
  56.1710550  22.3534130   2.4855950  56.9826710  23.6313500   2.4799210
  56.8921670  33.4502010   9.4773090  57.6284150  32.9017470   9.7481660
  57.2762590  34.3158020   9.3379080  53.7767150  29.5175580   5.3514600
  52.8506930  29.7596720   5.3420010  54.2423580  30.3449840   5.2299350
  55.8979950  32.6348080  18.6658670  56.6992680  32.9560130  19.0794070
  55.3831770  32.2743660  19.3878580  64.7344580  28.7427950  18.6134080
  64.1282740  28.7659550  17.8729830  64.4298690  28.0110990  19.1501330
  53.6177760  25.1221540  17.6094720  54.1216780  24.5428820  18.1810950
  52.8785180  25.4061770  18.1471090  60.6715700  26.5292530  17.1430240
  59.9061370  27.0977530  17.0584910  60.8531660  26.2368740  16.2498470
  63.7604110  26.9055760   1.7683000  63.2114210  27.3525060   2.4125740
  64.3823370  26.4005010   2.2920670  55.6500840  23.2651130  18.5044790
  55.6906180  22.9665000  19.4130020  56.5046340  23.6658740  18.3452310
  59.4279230  25.8646680   3.6648300  59.8495650  25.6986550   4.5079690
  59.5530070  25.0546910   3.1703440  57.5906650  21.8443230  16.4719280
  57.0603110  21.3534180  15.8442620  58.2594720  22.2727430  15.9377210
  58.0778950  18.8105600  16.5516570  57.9835820  18.1926350  15.8267440
  57.4976340  19.5371890  16.3246480  60.8440390  17.3678840  13.5843960
  60.3957690  17.3903100  12.7389510  60.2105590  16.9697860  14.1814260
  61.2499940  26.2633170  14.2056400  61.6688050  27.1065900  14.0332640
  60.3308570  26.4005210  13.9763180  63.5863840  23.9949350  15.5894240
  63.7060050  23.3990490  16.3289080  64.4457840  24.0319040  15.1695540
  59.1007360  32.5686180  15.3214130  58.5628450  33.2932240  15.0022830
  59.3541320  32.0916520  14.5311470  60.3532610  20.5370700  16.8470060
  60.9432300  20.2286550  17.5347880  59.5352850  20.0650450  17.0029960
  65.1726040  20.1536510  17.0803080  64.4841560  19.4918050  17.0153070
  65.8932060  19.7074780  17.5251540  65.8026440  16.7488140   3.1393340
  66.0828730  15.9056040   3.4952760  65.0292170  16.9811250   3.6532090
  61.9569570  33.8037390  15.5800780  61.8828270  34.7072530  15.8873150
  61.0548410  33.4849290  15.5522850  62.5054900  32.9695900   3.2027140
  63.4005690  33.3080870   3.2245900  62.5372530  32.2475310   2.5751420
  53.3596860  31.1311980   8.8834400  53.6899870  30.2633040   8.6513040
  53.7887860  31.3370500   9.7139360  57.9558780  29.4620990   6.5436370
  57.6554320  29.3385960   7.4440280  57.8496270  28.6029580   6.1352100
  53.8487070  31.9982570  11.6216030  53.4118060  32.1783370  12.4540180
  54.4164750  32.7557190  11.4797750  53.6811500  24.5102800   7.9804910
  53.0260340  24.2414440   7.3364610  54.5189450  24.4007280   7.5306890
  54.7187430  24.8955370  12.5208250  55.0860470  24.8082770  13.4004270
  54.1498250  24.1321920  12.4215110  54.2703430  21.8064460  16.4266670
  53.3759480  21.7731220  16.7660380  54.8100980  22.0051250  17.1917920
  52.8949580  21.7201730   3.9230240  51.9913660  21.9831930   3.7481900
  53.3790200  21.9912900   3.1430200  54.7743140  16.0812790  10.7749890
  55.4219330  15.5310170  10.3345050  55.1944980  16.3355940  11.5965700
  54.5275140  16.2368460  13.5175210  54.1789960  16.6932280  14.2833390
  54.1962840  15.3425590  13.5997640  56.1339510  29.4088060  17.6828400
  56.0909140  29.0380970  18.5642860  56.2650520  30.3465630  17.8230220
  59.8345540  30.9647650  13.2838120  59.5936900  31.2322210  12.3968640
  60.7748180  31.1353380  13.3388980  62.0399960  17.4280340  17.0394630
  61.9788850  18.0202170  17.7890040  62.9800340  17.3206300  16.8944890
  64.6774520  17.0850400  16.6786920  65.2914930  17.4029690  16.0168000
  65.2224080  16.5998990  17.2982780  55.1995780  15.7644660  16.7925980
  55.7478770  15.5832710  16.0292090  55.2651090  14.9738770  17.3282290
  55.9727540  32.3550310  14.8026180  55.3787860  32.2235010  15.5416220
  55.9651380  31.5188450  14.3368280  65.4182560  15.6482540  13.0056210
  64.5442400  15.9817650  12.8029140  65.3093310  15.1755720  13.8308080
  55.6039770  29.7208690  13.7534220  54.8773830  29.1013980  13.6860170
  55.6648920  30.1149300  12.8832300  59.2084870  31.9353690  10.5383630
  59.7249890  31.3241050  10.0131890  59.8582250  32.4382470  11.0294640
  61.9480370  32.8262180  11.3652610  62.2358180  32.5716480  10.4885620
  62.4603590  32.2739540  11.9558180  63.1657380  16.5652380  11.9449120
  62.3829170  17.0397880  12.2245880  62.8720310  15.6607210  11.8362300
  53.8869770  33.0383080   6.9630980  53.7191810  32.4053760   7.6612870
  53.0204280  33.2442480   6.6125170  54.5097790  16.8699860   4.4662840
  55.2677150  16.9828740   3.8926870  54.0474960  17.7069060   4.4206270
  61.0511600  18.9839130   7.4565150  60.2386110  18.6096020   7.1161030
  61.5553240  18.2284210   7.7586340  65.5536580  15.6481580   8.6948220
  66.1565950  16.2201790   9.1696740  64.8129570  16.2121020   8.4722120
  55.4932470  31.7316310   4.4081120  54.9680090  32.1124340   3.7043080
  55.4177050  32.3567080   5.1290830  56.8822940  17.3963910   3.0064810
  57.4115700  16.6093710   2.8772760  57.5151260  18.0755100   3.2400340
  59.0760780  17.1339050   6.0610200  58.4463520  16.4326360   6.2280330
  58.5365920  17.8943180   5.8443360  62.0152730  33.7478280  18.7320810
  62.9420040  33.5122550  18.7756770  62.0003160  34.5750280  18.2506840
  59.2016340  16.4123030  18.4962690  58.9200610  16.9156630  17.7323510
  59.5836040  15.6144780  18.1304820  58.0925440  33.6798690   3.2830370
  58.8244260  33.3957970   2.7354260  58.3519110  33.4411970   4.1729750
  57.2540230  29.7963420   3.2876700  56.6249110  30.2648520   3.8362530
  57.3688060  28.9512640   3.7222890  64.7089950   5.0725590  45.7608370
  64.6284000   4.1580200  45.4900080  64.2954370   5.5692660  45.0548080
  62.8407990   6.8504610  47.6417640  62.0650090   6.3705050  47.9316210
  63.4920920   6.1710260  47.4673800  56.8573820   7.1624420  48.5193400
  56.0258700   6.9073130  48.9189910  57.4654800   7.2335190  49.2551320
  56.8375080  11.1964510  48.7151420  57.1403120  10.3062250  48.5361640
  57.5818670  11.7534730  48.4873670  55.2665770   2.1226310  42.3035790
  54.3782470   2.4642280  42.2015670  55.5506960   1.9226630  41.4116620
  53.2298780   4.7231960  48.1875490  53.8014890   3.9554160  48.1879130
  53.2300320   5.0220720  47.2782100  63.0878730  13.5422810  46.0420760
  62.4690170  13.9980310  45.4715200  63.9430510  13.6974270  45.6410460
  62.2816980   9.5261800  47.6487800  62.2125260   8.5851740  47.4876930
  63.0436840   9.6163210  48.2210370  55.0910320   2.6276820  48.5826760
  55.7720430   2.8915190  49.2014160  54.7758370   1.7877690  48.9164770
  59.2834890   3.6744180  47.6699350  59.7913110   4.1725150  48.3104370
  59.8148130   2.8979380  47.4938710  63.9542080   8.4262050  43.4352670
  63.3359350   8.8911500  42.8715390  64.4665330   9.1189530  43.8522180
  58.8173840   7.9537920  50.1136270  58.4843220   8.5806840  50.7557340
  58.9940520   8.4799800  49.3337940  58.0292940   9.9218720  51.9285450
  58.6466940  10.5969800  51.6469900  57.1686060  10.3306700  51.8372950
  53.3225280   9.1118580  40.8092300  52.9453260   9.6005680  40.0777200
  53.5798350   9.7843860  41.4398830  63.3194970   5.5783800  43.0037930
  62.3924250   5.5121180  43.2326400  63.4719790   6.5163930  42.8893170
  63.3064050   1.8500800  40.0005090  62.3667720   2.0114760  40.0857550
  63.6247310   2.5686480  39.4541080  58.9251610   6.1048540  45.7857660
  58.5208610   5.3925790  45.2903560  59.0114730   5.7601780  46.6745700
  59.3933310   9.7916100  47.9496870  59.0961600   9.1861570  47.2704650
  60.3433130   9.8293410  47.8386230  57.6380230   2.8791750  49.5656700
  58.1894820   2.9887090  48.7909950  58.1523740   3.2529350  50.2811930
  58.4851740   9.5297790  54.6004670  57.5880270   9.7537760  54.8478070
  58.5104610   9.6532730  53.6516070  65.5256960   6.3790910  40.5145930
  65.9650240   5.5413340  40.3683750  66.2385380   7.0120310  40.6010070
  57.3122960   6.4011110  53.1762040  57.1730730   7.2733910  53.5449440
  56.4304320   6.0583920  53.0309980  63.6352340  11.3186980  44.4827170
  64.0748250  12.0611310  44.0682560  63.5739230  11.5613550  45.4066130
  59.1103310  12.3432810  55.3847190  59.0818740  12.7475760  54.5175620
  58.9468280  11.4143170  55.2218790  55.6256240   4.9993520  43.2864310
  55.5053840   5.7255610  42.6745580  55.3157130   4.2296430  42.8092220
  53.2641610   8.1708660  49.0932950  53.3422030   8.3057430  48.1488670
  53.8783290   7.4624550  49.2861070  54.5089240   9.8708850  45.5039130
  54.1017320  10.0123440  44.6492730  55.4002250   9.5869010  45.3010340
  64.3268120  14.0200760  52.4106180  64.8412790  13.9308770  53.2128610
  63.4837200  14.3660460  52.7034090  58.7810900  14.0854630  43.6161800
  58.6053380  13.1690170  43.4029600  57.9266640  14.4441920  43.8559600
  65.5698580  13.4406370  44.4736670  66.0255530  12.6595750  44.7875290
  65.9091100  14.1513190  45.0177850  53.3201130   9.2122830  51.6327410
  53.4832170   8.7428190  50.8146780  53.7853580   8.7046390  52.2976250
  64.4743930   3.9307810  55.5018750  64.7997340   3.0971560  55.1620980
  65.2624260   4.4536330  55.6497080  57.8834120   3.4662160  44.3969230
  57.6575040   3.2499330  45.3015850  57.1026650   3.8990620  44.0515200
  65.1131880   3.4725530  42.9959880  64.5140770   4.1961330  42.8123500
  65.6611490   3.4102310  42.2136330  60.3233330   4.3647740  55.0629500
  60.2276930   3.4242470  54.9129900  61.1665310   4.5862810  54.6677570
  52.9431150   2.6409990  38.4596080  52.8605820   3.5840750  38.6011070
  52.5914210   2.4984900  37.5808430  64.3051890   4.6994820  49.1213940
  63.5733010   5.2081630  49.4704040  63.9076230   3.8824800  48.8202720
  60.8049430   2.3761100  40.5173190  60.9262250   2.3347580  41.4659010
  60.4197940   3.2385250  40.3619920  59.8170930   4.6862240  39.9156490
  59.2487830   4.2380490  39.2892400  60.5259930   5.0455020  39.3821640
  54.8940110   8.5874260  53.7923220  54.5094900   7.9467930  54.3906180
  55.2052300   9.2910380  54.3617950  61.0437250   5.4350800  49.2731840
  61.4107380   4.9609370  50.0193180  60.8542310   6.3092370  49.6140180
  58.8336620   4.4759440  51.5916050  58.5293690   5.3551420  51.8166410
  59.7883080   4.5359230  51.6273490  57.3618410   8.6820430  42.1882900
  56.5880670   8.1418050  42.0281620  58.0913040   8.1627040  41.8500660
  63.5025190   7.7494850  53.8678290  63.4362500   6.8290520  53.6135880
  62.8730330   7.8470290  54.5822930  57.4055810   8.3500810  45.8261710
  57.9234480   7.5469070  45.7718600  56.9539830   8.2879950  46.6678540
  62.2925310   9.6167090  41.0989010  62.6341010  10.3609320  40.6032330
  61.4638020   9.9298210  41.4613840  54.8900350   5.3162180  52.7387410
  54.5315290   5.9816030  53.3260750  54.5954910   4.4845730  53.1100030
  58.0913470   5.7746420  55.6226960  57.7913610   5.9203600  54.7254780
  58.8624710   5.2151710  55.5300350  63.4341920  10.5715420  53.6182090
  63.4486460   9.6396380  53.4001000  62.7267020  10.6575180  54.2571860
  65.1752720   8.9382930  46.4634520  65.5276540   8.3411060  45.8035890
  64.2915050   8.6127160  46.6342770  61.2616000   9.6980620  43.8704930
  61.9487130  10.2449830  44.2512520  60.4748420  10.2421350  43.9054540
  53.4008400   5.3153440  39.3622010  54.2703250   5.5978240  39.6457930
  52.9098720   6.1289310  39.2470820  60.5643210   6.7026650  43.4830290
  61.0205990   7.5131900  43.7090480  60.2131420   6.3849790  44.3148780
  62.8675820  12.2132990  50.7122590  63.5118040  12.4192370  51.3896010
  63.2305260  11.4521390  50.2593440  64.1407900  10.2165340  49.4300040
  64.7830130   9.5158500  49.5432210  64.6657250  10.9963780  49.2496930
  65.9145520  11.0160240  52.6336100  66.2501760  11.6026930  53.3114020
  64.9945860  10.8852950  52.8633890  53.7679650  14.5280820  39.9283640
  54.1277290  15.1270160  39.2740910  53.6271990  15.0740710  40.7018670
  53.7521510  12.7935680  54.4026040  53.8612630  11.8530420  54.2621430
  53.1002070  13.0590430  53.7539770  59.7848270  11.9112020  40.7457310
  59.7758370  12.6441710  40.1301820  58.8646630  11.6643600  40.8384270
  55.3854910   7.1326910  41.4904070  54.7782860   7.8725810  41.4999370
  55.8604260   7.2226270  40.6642270  62.7707870  11.9740260  39.4082500
  62.8719850  11.7704250  38.4784480  61.8709610  11.7198540  39.6130280
  60.2933760   2.5320620  43.3906400  59.5849910   3.0006960  43.8320010
  60.5778240   1.8742630  44.0251590  61.9189690   3.9517320  51.3898930
  62.4174940   4.4263140  52.0550780  62.0612640   3.0280840  51.5968960
  61.4125980  14.4926580  44.1030170  61.6667480  14.4547970  43.1809540
  60.4638460  14.3659910  44.0958420  57.3960200   7.0938060  39.2392640
  58.1623470   6.9819420  39.8018070  57.4734890   6.3976030  38.5869410
  56.0906960   4.5263130  39.9225530  56.1710550   3.5790640  40.0342930
  56.9826710   4.8570010  40.0286190  56.8921670  14.6758520  47.0260070
  57.6284150  14.1273980  47.2968640  57.2762590  15.5414530  46.8866060
  53.7767150  10.7432090  42.9001580  52.8506930  10.9853230  42.8906990
  54.2423580  11.5706350  42.7786330  60.0023980  13.8488830  38.8485640
  60.7952590  14.1377660  38.3967430  59.4828330  13.4181000  38.1698120
  60.5201380   9.0692240  38.7127990  60.4152020   8.4544590  39.4389370
  60.3525600   8.5458130  37.9291000  60.6715700   7.7549040  54.6917220
  59.9061370   8.3234040  54.6071890  60.8531660   7.4625250  53.7985450
  63.7604110   8.1312270  39.3169980  63.2114210   8.5781570  39.9612720
  64.3823370   7.6261520  39.8407650  59.4279230   7.0903190  41.2135280
  59.8495650   6.9243060  42.0566670  59.5530070   6.2803420  40.7190420
  57.5906650   3.0699740  54.0206260  57.0603110   2.5790690  53.3929600
  58.2594720   3.4983940  53.4864190  61.9406870   6.1140800  38.4612380
  62.4612530   5.3989820  38.0953530  62.5875270   6.7526670  38.7612890
  61.2499940   7.4889680  51.7543380  61.6688050   8.3322410  51.5819620
  60.3308570   7.6261720  51.5250160  63.5863840   5.2205860  53.1381220
  63.7060050   4.6247000  53.8776060  64.4457840   5.2575550  52.7182520
  58.3238130   3.1636420  38.1593440  58.1227190   2.3003780  38.5206780
  58.1530180   3.0769780  37.2215040  59.1007360  13.7942690  52.8701110
  58.5628450  14.5188750  52.5509810  59.3541320  13.3173030  52.0798450
  61.9569570  15.0293900  53.1287760  61.8828270  15.9329040  53.4360130
  61.0548410  14.7105800  53.1009830  62.5054900  14.1952410  40.7514120
  63.4005690  14.5337380  40.7732880  62.5372530  13.4731820  40.1238400
  56.1451060   9.5679460  38.9801120  56.5825930  10.1109130  39.6358700
  56.6298790   8.7426410  38.9897460  53.3596860  12.3568490  46.4321380
  53.6899870  11.4889550  46.2000020  53.7887860  12.5627010  47.2626340
  57.9558780  10.6877500  44.0923350  57.6554320  10.5642470  44.9927260
  57.8496270   9.8286090  43.6839080  53.8487070  13.2239080  49.1703010
  53.4118060  13.4039880  50.0027160  54.4164750  13.9813700  49.0284730
  53.6811500   5.7359310  45.5291890  53.0260340   5.4670950  44.8851590
  54.5189450   5.6263790  45.0793870  54.7187430   6.1211880  50.0695230
  55.0860470   6.0339280  50.9491250  54.1498250   5.3578430  49.9702090
  54.2703430   3.0320970  53.9753650  53.3759480   2.9987730  54.3147360
  54.8100980   3.2307760  54.7404900  52.8949580   2.9458240  41.4717220
  51.9913660   3.2088440  41.2968880  53.3790200   3.2169410  40.6917180
  55.4376790   2.0023780  39.3811600  56.1468490   1.5807000  38.8958880
  54.7216730   2.0699010  38.7494950  59.8345540  12.1904160  50.8325100
  59.5936900  12.4578720  49.9455620  60.7748180  12.3609890  50.8875960
  55.9727540  13.5806820  52.3513160  55.3787860  13.4491520  53.0903200
  55.9651380  12.7444960  51.8855260  55.6039770  10.9465200  51.3021200
  54.8773830  10.3270490  51.2347150  55.6648920  11.3405810  50.4319280
  59.2084870  13.1610200  48.0870610  59.7249890  12.5497560  47.5618870
  59.8582250  13.6638980  48.5781620  61.9480370  14.0518690  48.9139590
  62.2358180  13.7972990  48.0372600  62.4603590  13.4996050  49.5045160
  53.8869770  14.2639590  44.5117960  53.7191810  13.6310270  45.2099850
  53.0204280  14.4698990  44.1612150  55.4932470  12.9572820  41.9568100
  54.9680090  13.3380850  41.2530060  55.4177050  13.5823590  42.6777810
  58.0925440  14.9055200  40.8317350  58.8244260  14.6214480  40.2841240
  58.3519110  14.6668480  41.7216730  57.2540230  11.0219930  40.8363680
  56.6249110  11.4905030  41.3849510  57.3688060  10.1769150  41.2709870
  64.7089950   5.0725590  26.9864880  64.6284000   4.1580200  26.7156590
  64.2954370   5.5692660  26.2804590  62.8407990   6.8504610  28.8674150
  62.0650090   6.3705050  29.1572720  63.4920920   6.1710260  28.6930310
  56.8573820   7.1624420  29.7449910  56.0258700   6.9073130  30.1446420
  57.4654800   7.2335190  30.4807830  56.8375080  11.1964510  29.9407930
  57.1403120  10.3062250  29.7618150  57.5818670  11.7534730  29.7130180
  55.2665770   2.1226310  23.5292300  54.3782470   2.4642280  23.4272180
  55.5506960   1.9226630  22.6373130  53.2298780   4.7231960  29.4132000
  53.8014890   3.9554160  29.4135640  53.2300320   5.0220720  28.5038610
  63.0878730  13.5422810  27.2677270  62.4690170  13.9980310  26.6971710
  63.9430510  13.6974270  26.8666970  62.2816980   9.5261800  28.8744310
  62.2125260   8.5851740  28.7133440  63.0436840   9.6163210  29.4466880
  55.0910320   2.6276820  29.8083270  55.7720430   2.8915190  30.4270670
  54.7758370   1.7877690  30.1421280  59.2834890   3.6744180  28.8955860
  59.7913110   4.1725150  29.5360880  59.8148130   2.8979380  28.7195220
  63.9542080   8.4262050  24.6609180  63.3359350   8.8911500  24.0971900
  64.4665330   9.1189530  25.0778690  58.8173840   7.9537920  31.3392780
  58.4843220   8.5806840  31.9813850  58.9940520   8.4799800  30.5594450
  58.0292940   9.9218720  33.1541960  58.6466940  10.5969800  32.8726410
  57.1686060  10.3306700  33.0629460  53.3225280   9.1118580  22.0348810
  52.9453260   9.6005680  21.3033710  53.5798350   9.7843860  22.6655340
  63.3194970   5.5783800  24.2294440  62.3924250   5.5121180  24.4582910
  63.4719790   6.5163930  24.1149680  63.3064050   1.8500800  21.2261600
  62.3667720   2.0114760  21.3114060  63.6247310   2.5686480  20.6797590
  58.9251610   6.1048540  27.0114170  58.5208610   5.3925790  26.5160070
  59.0114730   5.7601780  27.9002210  59.3933310   9.7916100  29.1753380
  59.0961600   9.1861570  28.4961160  60.3433130   9.8293410  29.0642740
  57.6380230   2.8791750  30.7913210  58.1894820   2.9887090  30.0166460
  58.1523740   3.2529350  31.5068440  58.4851740   9.5297790  35.8261180
  57.5880270   9.7537760  36.0734580  58.5104610   9.6532730  34.8772580
  65.5256960   6.3790910  21.7402440  65.9650240   5.5413340  21.5940260
  66.2385380   7.0120310  21.8266580  57.3122960   6.4011110  34.4018550
  57.1730730   7.2733910  34.7705950  56.4304320   6.0583920  34.2566490
  63.6352340  11.3186980  25.7083680  64.0748250  12.0611310  25.2939070
  63.5739230  11.5613550  26.6322640  59.1103310  12.3432810  36.6103700
  59.0818740  12.7475760  35.7432130  58.9468280  11.4143170  36.4475300
  55.6256240   4.9993520  24.5120820  55.5053840   5.7255610  23.9002090
  55.3157130   4.2296430  24.0348730  53.2641610   8.1708660  30.3189460
  53.3422030   8.3057430  29.3745180  53.8783290   7.4624550  30.5117580
  54.5089240   9.8708850  26.7295640  54.1017320  10.0123440  25.8749240
  55.4002250   9.5869010  26.5266850  64.3268120  14.0200760  33.6362690
  64.8412790  13.9308770  34.4385120  63.4837200  14.3660460  33.9290600
  58.7810900  14.0854630  24.8418310  58.6053380  13.1690170  24.6286110
  57.9266640  14.4441920  25.0816110  65.5698580  13.4406370  25.6993180
  66.0255530  12.6595750  26.0131800  65.9091100  14.1513190  26.2434360
  53.3201130   9.2122830  32.8583920  53.4832170   8.7428190  32.0403290
  53.7853580   8.7046390  33.5232760  64.4743930   3.9307810  36.7275260
  64.7997340   3.0971560  36.3877490  65.2624260   4.4536330  36.8753590
  57.8834120   3.4662160  25.6225740  57.6575040   3.2499330  26.5272360
  57.1026650   3.8990620  25.2771710  65.1131880   3.4725530  24.2216390
  64.5140770   4.1961330  24.0380010  65.6611490   3.4102310  23.4392840
  60.3233330   4.3647740  36.2886010  60.2276930   3.4242470  36.1386410
  61.1665310   4.5862810  35.8934080  52.9431150   2.6409990  19.6852590
  52.8605820   3.5840750  19.8267580  52.5914210   2.4984900  18.8064940
  64.3051890   4.6994820  30.3470450  63.5733010   5.2081630  30.6960550
  63.9076230   3.8824800  30.0459230  60.8049430   2.3761100  21.7429700
  60.9262250   2.3347580  22.6915520  60.4197940   3.2385250  21.5876430
  59.8170930   4.6862240  21.1413000  59.2487830   4.2380490  20.5148910
  60.5259930   5.0455020  20.6078150  54.8940110   8.5874260  35.0179730
  54.5094900   7.9467930  35.6162690  55.2052300   9.2910380  35.5874460
  61.0437250   5.4350800  30.4988350  61.4107380   4.9609370  31.2449690
  60.8542310   6.3092370  30.8396690  58.8336620   4.4759440  32.8172560
  58.5293690   5.3551420  33.0422920  59.7883080   4.5359230  32.8530000
  57.3618410   8.6820430  23.4139410  56.5880670   8.1418050  23.2538130
  58.0913040   8.1627040  23.0757170  63.5025190   7.7494850  35.0934800
  63.4362500   6.8290520  34.8392390  62.8730330   7.8470290  35.8079440
  57.4055810   8.3500810  27.0518220  57.9234480   7.5469070  26.9975110
  56.9539830   8.2879950  27.8935050  62.2925310   9.6167090  22.3245520
  62.6341010  10.3609320  21.8288840  61.4638020   9.9298210  22.6870350
  54.8900350   5.3162180  33.9643920  54.5315290   5.9816030  34.5517260
  54.5954910   4.4845730  34.3356540  58.0913470   5.7746420  36.8483470
  57.7913610   5.9203600  35.9511290  58.8624710   5.2151710  36.7556860
  63.4341920  10.5715420  34.8438600  63.4486460   9.6396380  34.6257510
  62.7267020  10.6575180  35.4828370  65.1752720   8.9382930  27.6891030
  65.5276540   8.3411060  27.0292400  64.2915050   8.6127160  27.8599280
  61.2616000   9.6980620  25.0961440  61.9487130  10.2449830  25.4769030
  60.4748420  10.2421350  25.1311050  53.4008400   5.3153440  20.5878520
  54.2703250   5.5978240  20.8714440  52.9098720   6.1289310  20.4727330
  60.5643210   6.7026650  24.7086800  61.0205990   7.5131900  24.9346990
  60.2131420   6.3849790  25.5405290  62.8675820  12.2132990  31.9379100
  63.5118040  12.4192370  32.6152520  63.2305260  11.4521390  31.4849950
  64.1407900  10.2165340  30.6556550  64.7830130   9.5158500  30.7688720
  64.6657250  10.9963780  30.4753440  65.9145520  11.0160240  33.8592610
  66.2501760  11.6026930  34.5370530  64.9945860  10.8852950  34.0890400
  53.7679650  14.5280820  21.1540150  54.1277290  15.1270160  20.4997420
  53.6271990  15.0740710  21.9275180  53.7521510  12.7935680  35.6282550
  53.8612630  11.8530420  35.4877940  53.1002070  13.0590430  34.9796280
  61.7434100  11.0651570  37.0280670  61.4230970  10.3460810  37.5726360
  61.0692460  11.7406640  37.1016730  59.7848270  11.9112020  21.9713820
  59.7758370  12.6441710  21.3558330  58.8646630  11.6643600  22.0640780
  55.3854910   7.1326910  22.7160580  54.7782860   7.8725810  22.7255880
  55.8604260   7.2226270  21.8898780  62.7707870  11.9740260  20.6339010
  62.8719850  11.7704250  19.7040990  61.8709610  11.7198540  20.8386790
  60.2933760   2.5320620  24.6162910  59.5849910   3.0006960  25.0576520
  60.5778240   1.8742630  25.2508100  61.9189690   3.9517320  32.6155440
  62.4174940   4.4263140  33.2807290  62.0612640   3.0280840  32.8225470
  61.4125980  14.4926580  25.3286680  61.6667480  14.4547970  24.4066050
  60.4638460  14.3659910  25.3214930  57.3960200   7.0938060  20.4649150
  58.1623470   6.9819420  21.0274580  57.4734890   6.3976030  19.8125920
  56.0906960   4.5263130  21.1482040  56.1710550   3.5790640  21.2599440
  56.9826710   4.8570010  21.2542700  56.8921670  14.6758520  28.2516580
  57.6284150  14.1273980  28.5225150  57.2762590  15.5414530  28.1122570
  53.7767150  10.7432090  24.1258090  52.8506930  10.9853230  24.1163500
  54.2423580  11.5706350  24.0042840  55.8979950  13.8604590  37.4402160
  56.6992680  14.1816640  37.8537560  55.3831770  13.5000170  38.1622070
  60.0023980  13.8488830  20.0742150  60.7952590  14.1377660  19.6223940
  59.4828330  13.4181000  19.3954630  64.7344580   9.9684460  37.3877570
  64.1282740   9.9916060  36.6473320  64.4298690   9.2367500  37.9244820
  53.6177760   6.3478050  36.3838210  54.1216780   5.7685330  36.9554440
  52.8785180   6.6318280  36.9214580  60.5201380   9.0692240  19.9384500
  60.4152020   8.4544590  20.6645880  60.3525600   8.5458130  19.1547510
  60.6715700   7.7549040  35.9173730  59.9061370   8.3234040  35.8328400
  60.8531660   7.4625250  35.0241960  63.7604110   8.1312270  20.5426490
  63.2114210   8.5781570  21.1869230  64.3823370   7.6261520  21.0664160
  55.6500840   4.4907640  37.2788280  55.6906180   4.1921510  38.1873510
  56.5046340   4.8915250  37.1195800  59.4279230   7.0903190  22.4391790
  59.8495650   6.9243060  23.2823180  59.5530070   6.2803420  21.9446930
  57.5906650   3.0699740  35.2462770  57.0603110   2.5790690  34.6186110
  58.2594720   3.4983940  34.7120700  61.9406870   6.1140800  19.6868890
  62.4612530   5.3989820  19.3210040  62.5875270   6.7526670  19.9869400
  61.2499940   7.4889680  32.9799890  61.6688050   8.3322410  32.8076130
  60.3308570   7.6261720  32.7506670  63.5863840   5.2205860  34.3637730
  63.7060050   4.6247000  35.1032570  64.4457840   5.2575550  33.9439030
  58.3238130   3.1636420  19.3849950  58.1227190   2.3003780  19.7463290
  58.1530180   3.0769780  18.4471550  59.1007360  13.7942690  34.0957620
  58.5628450  14.5188750  33.7766320  59.3541320  13.3173030  33.3054960
  61.9569570  15.0293900  34.3544270  61.8828270  15.9329040  34.6616640
  61.0548410  14.7105800  34.3266340  62.5054900  14.1952410  21.9770630
  63.4005690  14.5337380  21.9989390  62.5372530  13.4731820  21.3494910
  56.1451060   9.5679460  20.2057630  56.5825930  10.1109130  20.8615210
  56.6298790   8.7426410  20.2153970  53.3596860  12.3568490  27.6577890
  53.6899870  11.4889550  27.4256530  53.7887860  12.5627010  28.4882850
  57.9558780  10.6877500  25.3179860  57.6554320  10.5642470  26.2183770
  57.8496270   9.8286090  24.9095590  53.8487070  13.2239080  30.3959520
  53.4118060  13.4039880  31.2283670  54.4164750  13.9813700  30.2541240
  53.6811500   5.7359310  26.7548400  53.0260340   5.4670950  26.1108100
  54.5189450   5.6263790  26.3050380  54.7187430   6.1211880  31.2951740
  55.0860470   6.0339280  32.1747760  54.1498250   5.3578430  31.1958600
  54.2703430   3.0320970  35.2010160  53.3759480   2.9987730  35.5403870
  54.8100980   3.2307760  35.9661410  52.8949580   2.9458240  22.6973730
  51.9913660   3.2088440  22.5225390  53.3790200   3.2169410  21.9173690
  55.4376790   2.0023780  20.6068110  56.1468490   1.5807000  20.1215390
  54.7216730   2.0699010  19.9751460  56.1339510  10.6344570  36.4571890
  56.0909140  10.2637480  37.3386350  56.2650520  11.5722140  36.5973710
  59.8345540  12.1904160  32.0581610  59.5936900  12.4578720  31.1712130
  60.7748180  12.3609890  32.1132470  55.9727540  13.5806820  33.5769670
  55.3787860  13.4491520  34.3159710  55.9651380  12.7444960  33.1111770
  55.6039770  10.9465200  32.5277710  54.8773830  10.3270490  32.4603660
  55.6648920  11.3405810  31.6575790  59.2084870  13.1610200  29.3127120
  59.7249890  12.5497560  28.7875380  59.8582250  13.6638980  29.8038130
  61.9480370  14.0518690  30.1396100  62.2358180  13.7972990  29.2629110
  62.4603590  13.4996050  30.7301670  53.8869770  14.2639590  25.7374470
  53.7191810  13.6310270  26.4356360  53.0204280  14.4698990  25.3868660
  55.4932470  12.9572820  23.1824610  54.9680090  13.3380850  22.4786570
  55.4177050  13.5823590  23.9034320  62.0152730  14.9734790  37.5064300
  62.9420040  14.7379060  37.5500260  62.0003160  15.8006790  37.0250330
  58.0925440  14.9055200  22.0573860  58.8244260  14.6214480  21.5097750
  58.3519110  14.6668480  22.9473240  57.2540230  11.0219930  22.0620190
  56.6249110  11.4905030  22.6106020  57.3688060  10.1769150  22.4966380
  64.7089950   5.0725590   8.2121390  64.6284000   4.1580200   7.9413100
  64.2954370   5.5692660   7.5061100  62.8407990   6.8504610  10.0930660
  62.0650090   6.3705050  10.3829230  63.4920920   6.1710260   9.9186820
  56.8573820   7.1624420  10.9706420  56.0258700   6.9073130  11.3702930
  57.4654800   7.2335190  11.7064340  56.8375080  11.1964510  11.1664440
  57.1403120  10.3062250  10.9874660  57.5818670  11.7534730  10.9386690
  55.2665770   2.1226310   4.7548810  54.3782470   2.4642280   4.6528690
  55.5506960   1.9226630   3.8629640  53.2298780   4.7231960  10.6388510
  53.8014890   3.9554160  10.6392150  53.2300320   5.0220720   9.7295120
  63.0878730  13.5422810   8.4933780  62.4690170  13.9980310   7.9228220
  63.9430510  13.6974270   8.0923480  62.2816980   9.5261800  10.1000820
  62.2125260   8.5851740   9.9389950  63.0436840   9.6163210  10.6723390
  55.0910320   2.6276820  11.0339780  55.7720430   2.8915190  11.6527180
  54.7758370   1.7877690  11.3677790  59.2834890   3.6744180  10.1212370
  59.7913110   4.1725150  10.7617390  59.8148130   2.8979380   9.9451730
  63.9542080   8.4262050   5.8865690  63.3359350   8.8911500   5.3228410
  64.4665330   9.1189530   6.3035200  58.8173840   7.9537920  12.5649290
  58.4843220   8.5806840  13.2070360  58.9940520   8.4799800  11.7850960
  58.0292940   9.9218720  14.3798470  58.6466940  10.5969800  14.0982920
  57.1686060  10.3306700  14.2885970  53.3225280   9.1118580   3.2605320
  52.9453260   9.6005680   2.5290220  53.5798350   9.7843860   3.8911850
  63.3194970   5.5783800   5.4550950  62.3924250   5.5121180   5.6839420
  63.4719790   6.5163930   5.3406190  63.3064050   1.8500800   2.4518110
  62.3667720   2.0114760   2.5370570  63.6247310   2.5686480   1.9054100
  58.9251610   6.1048540   8.2370680  58.5208610   5.3925790   7.7416580
  59.0114730   5.7601780   9.1258720  59.3933310   9.7916100  10.4009890
  59.0961600   9.1861570   9.7217670  60.3433130   9.8293410  10.2899250
  57.6380230   2.8791750  12.0169720  58.1894820   2.9887090  11.2422970
  58.1523740   3.2529350  12.7324950  58.4851740   9.5297790  17.0517690
  57.5880270   9.7537760  17.2991090  58.5104610   9.6532730  16.1029090
  65.5256960   6.3790910   2.9658950  65.9650240   5.5413340   2.8196770
  66.2385380   7.0120310   3.0523090  57.3122960   6.4011110  15.6275060
  57.1730730   7.2733910  15.9962460  56.4304320   6.0583920  15.4823000
  63.6352340  11.3186980   6.9340190  64.0748250  12.0611310   6.5195580
  63.5739230  11.5613550   7.8579150  59.1103310  12.3432810  17.8360210
  59.0818740  12.7475760  16.9688640  58.9468280  11.4143170  17.6731810
  55.6256240   4.9993520   5.7377330  55.5053840   5.7255610   5.1258600
  55.3157130   4.2296430   5.2605240  53.2641610   8.1708660  11.5445970
  53.3422030   8.3057430  10.6001690  53.8783290   7.4624550  11.7374090
  54.5089240   9.8708850   7.9552150  54.1017320  10.0123440   7.1005750
  55.4002250   9.5869010   7.7523360  64.3268120  14.0200760  14.8619200
  64.8412790  13.9308770  15.6641630  63.4837200  14.3660460  15.1547110
  58.7810900  14.0854630   6.0674820  58.6053380  13.1690170   5.8542620
  57.9266640  14.4441920   6.3072620  65.5698580  13.4406370   6.9249690
  66.0255530  12.6595750   7.2388310  65.9091100  14.1513190   7.4690870
  53.3201130   9.2122830  14.0840430  53.4832170   8.7428190  13.2659800
  53.7853580   8.7046390  14.7489270  64.4743930   3.9307810  17.9531770
  64.7997340   3.0971560  17.6134000  65.2624260   4.4536330  18.1010100
  57.8834120   3.4662160   6.8482250  57.6575040   3.2499330   7.7528870
  57.1026650   3.8990620   6.5028220  65.1131880   3.4725530   5.4472900
  64.5140770   4.1961330   5.2636520  65.6611490   3.4102310   4.6649350
  60.3233330   4.3647740  17.5142520  60.2276930   3.4242470  17.3642920
  61.1665310   4.5862810  17.1190590  64.3051890   4.6994820  11.5726960
  63.5733010   5.2081630  11.9217060  63.9076230   3.8824800  11.2715740
  60.8049430   2.3761100   2.9686210  60.9262250   2.3347580   3.9172030
  60.4197940   3.2385250   2.8132940  59.8170930   4.6862240   2.3669510
  59.2487830   4.2380490   1.7405420  60.5259930   5.0455020   1.8334660
  54.8940110   8.5874260  16.2436240  54.5094900   7.9467930  16.8419200
  55.2052300   9.2910380  16.8130970  61.0437250   5.4350800  11.7244860
  61.4107380   4.9609370  12.4706200  60.8542310   6.3092370  12.0653200
  58.8336620   4.4759440  14.0429070  58.5293690   5.3551420  14.2679430
  59.7883080   4.5359230  14.0786510  57.3618410   8.6820430   4.6395920
  56.5880670   8.1418050   4.4794640  58.0913040   8.1627040   4.3013680
  63.5025190   7.7494850  16.3191310  63.4362500   6.8290520  16.0648900
  62.8730330   7.8470290  17.0335950  57.4055810   8.3500810   8.2774730
  57.9234480   7.5469070   8.2231620  56.9539830   8.2879950   9.1191560
  62.2925310   9.6167090   3.5502030  62.6341010  10.3609320   3.0545350
  61.4638020   9.9298210   3.9126860  54.8900350   5.3162180  15.1900430
  54.5315290   5.9816030  15.7773770  54.5954910   4.4845730  15.5613050
  58.0913470   5.7746420  18.0739980  57.7913610   5.9203600  17.1767800
  58.8624710   5.2151710  17.9813370  63.4341920  10.5715420  16.0695110
  63.4486460   9.6396380  15.8514020  62.7267020  10.6575180  16.7084880
  65.1752720   8.9382930   8.9147540  65.5276540   8.3411060   8.2548910
  64.2915050   8.6127160   9.0855790  61.2616000   9.6980620   6.3217950
  61.9487130  10.2449830   6.7025540  60.4748420  10.2421350   6.3567560
  53.4008400   5.3153440   1.8135030  54.2703250   5.5978240   2.0970950
  52.9098720   6.1289310   1.6983840  60.5643210   6.7026650   5.9343310
  61.0205990   7.5131900   6.1603500  60.2131420   6.3849790   6.7661800
  62.8675820  12.2132990  13.1635610  63.5118040  12.4192370  13.8409030
  63.2305260  11.4521390  12.7106460  64.1407900  10.2165340  11.8813060
  64.7830130   9.5158500  11.9945230  64.6657250  10.9963780  11.7009950
  65.9145520  11.0160240  15.0849120  66.2501760  11.6026930  15.7627040
  64.9945860  10.8852950  15.3146910  53.7679650  14.5280820   2.3796660
  54.1277290  15.1270160   1.7253930  53.6271990  15.0740710   3.1531690
  53.7521510  12.7935680  16.8539060  53.8612630  11.8530420  16.7134450
  53.1002070  13.0590430  16.2052790  61.7434100  11.0651570  18.2537180
  61.4230970  10.3460810  18.7982870  61.0692460  11.7406640  18.3273240
  59.7848270  11.9112020   3.1970330  59.7758370  12.6441710   2.5814840
  58.8646630  11.6643600   3.2897290  55.3854910   7.1326910   3.9417090
  54.7782860   7.8725810   3.9512390  55.8604260   7.2226270   3.1155290
  60.2933760   2.5320620   5.8419420  59.5849910   3.0006960   6.2833030
  60.5778240   1.8742630   6.4764610  61.9189690   3.9517320  13.8411950
  62.4174940   4.4263140  14.5063800  62.0612640   3.0280840  14.0481980
  61.4125980  14.4926580   6.5543190  61.6667480  14.4547970   5.6322560
  60.4638460  14.3659910   6.5471440  56.0906960   4.5263130   2.3738550
  56.1710550   3.5790640   2.4855950  56.9826710   4.8570010   2.4799210
  56.8921670  14.6758520   9.4773090  57.6284150  14.1273980   9.7481660
  57.2762590  15.5414530   9.3379080  53.7767150  10.7432090   5.3514600
  52.8506930  10.9853230   5.3420010  54.2423580  11.5706350   5.2299350
  55.8979950  13.8604590  18.6658670  56.6992680  14.1816640  19.0794070
  55.3831770  13.5000170  19.3878580  64.7344580   9.9684460  18.6134080
  64.1282740   9.9916060  17.8729830  64.4298690   9.2367500  19.1501330
  53.6177760   6.3478050  17.6094720  54.1216780   5.7685330  18.1810950
  52.8785180   6.6318280  18.1471090  60.6715700   7.7549040  17.1430240
  59.9061370   8.3234040  17.0584910  60.8531660   7.4625250  16.2498470
  63.7604110   8.1312270   1.7683000  63.2114210   8.5781570   2.4125740
  64.3823370   7.6261520   2.2920670  55.6500840   4.4907640  18.5044790
  55.6906180   4.1921510  19.4130020  56.5046340   4.8915250  18.3452310
  59.4279230   7.0903190   3.6648300  59.8495650   6.9243060   4.5079690
  59.5530070   6.2803420   3.1703440  57.5906650   3.0699740  16.4719280
  57.0603110   2.5790690  15.8442620  58.2594720   3.4983940  15.9377210
  61.2499940   7.4889680  14.2056400  61.6688050   8.3322410  14.0332640
  60.3308570   7.6261720  13.9763180  63.5863840   5.2205860  15.5894240
  63.7060050   4.6247000  16.3289080  64.4457840   5.2575550  15.1695540
  59.1007360  13.7942690  15.3214130  58.5628450  14.5188750  15.0022830
  59.3541320  13.3173030  14.5311470  61.9569570  15.0293900  15.5800780
  61.8828270  15.9329040  15.8873150  61.0548410  14.7105800  15.5522850
  62.5054900  14.1952410   3.2027140  63.4005690  14.5337380   3.2245900
  62.5372530  13.4731820   2.5751420  53.3596860  12.3568490   8.8834400
  53.6899870  11.4889550   8.6513040  53.7887860  12.5627010   9.7139360
  57.9558780  10.6877500   6.5436370  57.6554320  10.5642470   7.4440280
  57.8496270   9.8286090   6.1352100  53.8487070  13.2239080  11.6216030
  53.4118060  13.4039880  12.4540180  54.4164750  13.9813700  11.4797750
  53.6811500   5.7359310   7.9804910  53.0260340   5.4670950   7.3364610
  54.5189450   5.6263790   7.5306890  54.7187430   6.1211880  12.5208250
  55.0860470   6.0339280  13.4004270  54.1498250   5.3578430  12.4215110
  54.2703430   3.0320970  16.4266670  53.3759480   2.9987730  16.7660380
  54.8100980   3.2307760  17.1917920  52.8949580   2.9458240   3.9230240
  51.9913660   3.2088440   3.7481900  53.3790200   3.2169410   3.1430200
  56.1339510  10.6344570  17.6828400  56.0909140  10.2637480  18.5642860
  56.2650520  11.5722140  17.8230220  59.8345540  12.1904160  13.2838120
  59.5936900  12.4578720  12.3968640  60.7748180  12.3609890  13.3388980
  55.9727540  13.5806820  14.8026180  55.3787860  13.4491520  15.5416220
  55.9651380  12.7444960  14.3368280  55.6039770  10.9465200  13.7534220
  54.8773830  10.3270490  13.6860170  55.6648920  11.3405810  12.8832300
  59.2084870  13.1610200  10.5383630  59.7249890  12.5497560  10.0131890
  59.8582250  13.6638980  11.0294640  61.9480370  14.0518690  11.3652610
  62.2358180  13.7972990  10.4885620  62.4603590  13.4996050  11.9558180
  53.8869770  14.2639590   6.9630980  53.7191810  13.6310270   7.6612870
  53.0204280  14.4698990   6.6125170  55.4932470  12.9572820   4.4081120
  54.9680090  13.3380850   3.7043080  55.4177050  13.5823590   5.1290830
  62.0152730  14.9734790  18.7320810  62.9420040  14.7379060  18.7756770
  62.0003160  15.8006790  18.2506840  58.0925440  14.9055200   3.2830370
  58.8244260  14.6214480   2.7354260  58.3519110  14.6668480   4.1729750
  57.2540230  11.0219930   3.2876700  56.6249110  11.4905030   3.8362530
  57.3688060  10.1769150   3.7222890  45.9346460  61.3956060  45.7608370
  45.8540510  60.4810670  45.4900080  45.5210880  61.8923130  45.0548080
  44.0664500  63.1735080  47.6417640  43.2906600  62.6935520  47.9316210
  44.7177430  62.4940730  47.4673800  38.0830330  63.4854890  48.5193400
  37.2515210  63.2303600  48.9189910  38.6911310  63.5565660  49.2551320
  36.4922280  58.4456780  42.3035790  35.6038980  58.7872750  42.2015670
  36.7763470  58.2457100  41.4116620  34.4555290  61.0462430  48.1875490
  35.0271400  60.2784630  48.1879130  34.4556830  61.3451190  47.2782100
  43.5073490  65.8492270  47.6487800  43.4381770  64.9082210  47.4876930
  44.2693350  65.9393680  48.2210370  35.6980160  56.4546790  49.9744420
  35.5183000  55.5572540  50.2547180  35.2960240  57.0018660  50.6491370
  44.5378660  58.6562650  47.8756730  44.9143480  57.7834530  47.7630400
  44.4398170  58.9921350  46.9847170  38.6683670  57.0288280  43.3374170
  38.7750420  57.9292010  43.6442930  37.7576030  56.9806250  43.0468820
  48.3202780  56.1513090  44.8085070  49.1412400  55.6609660  44.8510550
  48.3536860  56.7410750  45.5616910  36.3166830  58.9507290  48.5826760
  36.9976940  59.2145660  49.2014160  36.0014880  58.1108160  48.9164770
  40.5091400  59.9974650  47.6699350  41.0169620  60.4955620  48.3104370
  41.0404640  59.2209850  47.4938710  52.6102330  58.1679840  51.3728700
  51.9054500  58.5561550  50.8543810  52.8760250  58.8630130  51.9749630
  38.7927500  54.6373210  51.9362770  38.7945940  55.1545600  51.1308670
  37.9631810  54.1603390  51.9132700  45.1798590  64.7492520  43.4352670
  44.5615860  65.2141970  42.8715390  45.6921840  65.4420000  43.8522180
  40.0430350  64.2768390  50.1136270  39.7099730  64.9037310  50.7557340
  40.2197030  64.8030270  49.3337940  48.5564260  58.0913470  47.5812610
  47.8519830  58.3798360  48.1615720  48.9176420  58.9013580  47.2212170
  38.4742830  56.3483170  49.9433220  38.8159640  57.1925220  49.6487090
  37.5358640  56.4966910  50.0598560  34.5481790  65.4349050  40.8092300
  34.1709770  65.9236150  40.0777200  34.8054860  66.1074330  41.4398830
  51.6251180  57.5368260  47.9721820  50.6776090  57.5707240  48.1037250
  51.9501170  58.3507210  48.3571180  42.1570720  53.8365440  46.2677810
  42.4645700  53.2812330  45.5513310  41.2271420  53.9709900  46.0850800
  47.1071220  64.4562570  49.8867880  47.5240010  64.2422680  49.0521340
  47.8311040  64.7135360  50.4576500  44.5451480  61.9014270  43.0037930
  43.6180760  61.8351650  43.2326400  44.6976300  62.8394400  42.8893170
  44.5320560  58.1731270  40.0005090  43.5924230  58.3345230  40.0857550
  44.8503820  58.8916950  39.4541080  51.0533320  62.8549790  49.9784120
  50.2251950  62.9242880  49.5034250  51.6483800  63.4404100  49.5099950
  48.5748770  63.4634570  43.5073180  47.9561190  63.1254120  42.8599480
  48.5573220  62.8194330  44.2152370  48.0175330  59.6419110  50.9238990
  47.6046510  60.4672820  51.1778980  47.2851280  59.0564150  50.7315350
  40.1508120  62.4279010  45.7857660  39.7465120  61.7156260  45.2903560
  40.2371240  62.0832250  46.6745700  40.6189820  66.1146570  47.9496870
  40.3218110  65.5092040  47.2704650  41.5689640  66.1523880  47.8386230
  38.8636740  59.2022220  49.5656700  39.4151330  59.3117560  48.7909950
  39.3780250  59.5759820  50.2811930  39.7108250  65.8528260  54.6004670
  38.8136780  66.0768230  54.8478070  39.7361120  65.9763200  53.6516070
  46.7513470  62.7021380  40.5145930  47.1906750  61.8643810  40.3683750
  47.4641890  63.3350780  40.6010070  38.5379470  62.7241580  53.1762040
  38.3987240  63.5964380  53.5449440  37.6560830  62.3814390  53.0309980
  50.3330610  53.9564190  38.8286970  50.0203270  54.0491020  39.7286040
  51.0943080  54.5345220  38.7784400  36.8512750  61.3223990  43.2864310
  36.7310350  62.0486080  42.6745580  36.5413640  60.5526900  42.8092220
  34.4898120  64.4939130  49.0932950  34.5678540  64.6287900  48.1488670
  35.1039800  63.7855020  49.2861070  35.7345750  66.1939320  45.5039130
  35.3273830  66.3353910  44.6492730  36.6258760  65.9099480  45.3010340
  51.5431900  58.6935690  54.8061110  50.9276170  59.2015360  54.2776570
  51.2228320  57.7934020  54.7487050  34.5457640  65.5353300  51.6327410
  34.7088680  65.0658660  50.8146780  35.0110090  65.0276860  52.2976250
  39.3176410  54.6659060  46.6687980  38.8744560  55.4468600  46.3372500
  39.8761400  54.9888950  47.3758920  43.6046220  57.5327580  52.2723300
  43.1425590  57.7410600  53.0843240  43.2024330  56.7186930  51.9693970
  48.6050730  58.7536530  53.4019960  47.7544320  58.4542280  53.7229030
  48.4452520  58.9978540  52.4903780  45.7000440  60.2538280  55.5018750
  46.0253850  59.4202030  55.1620980  46.4880770  60.7766800  55.6497080
  42.4335230  54.2869760  41.5493810  41.8089410  54.2829630  42.2747120
  42.3465350  53.4200720  41.1529780  41.3552310  55.2106390  48.5277580
  41.6524640  56.1169220  48.4469600  41.9037870  54.7225170  47.9137150
  39.1090630  59.7892630  44.3969230  38.8831550  59.5729800  45.3015850
  38.3283160  60.2221090  44.0515200  46.3388390  59.7956000  42.9959880
  45.7397280  60.5191800  42.8123500  46.8868000  59.7332780  42.2136330
  41.5489840  60.6878210  55.0629500  41.4533440  59.7472940  54.9129900
  42.3921820  60.9093280  54.6677570  44.9453260  58.4319540  45.0263160
  45.3382830  58.7491740  44.2131850  45.3070110  57.5531420  45.1407680
  36.6800380  57.0991880  53.2163280  36.2863770  57.9467090  53.4236060
  35.9918780  56.4618250  53.4071920  33.9817430  55.0220340  47.2493360
  33.6930480  55.5923200  47.9618340  34.7263190  54.5424790  47.6124590
  34.1687660  58.9640460  38.4596080  34.0862330  59.9071220  38.6011070
  33.8170720  58.8215370  37.5808430  45.5308400  61.0225290  49.1213940
  44.7989520  61.5312100  49.4704040  45.1332740  60.2055270  48.8202720
  41.9685790  57.6979490  47.5266430  41.9721850  57.2569440  46.6770970
  42.8636910  58.0196820  47.6338250  37.8188170  57.5805980  46.4860640
  37.4788220  58.0581210  47.2427690  37.0565490  57.1271100  46.1261740
  42.0305940  58.6991570  40.5173190  42.1518760  58.6578050  41.4659010
  41.6454450  59.5615720  40.3619920  45.9934310  56.4758970  48.5336880
  46.0107050  56.9267620  49.3778730  45.7449890  55.5764610  48.7470320
  41.0427440  61.0092710  39.9156490  40.4744340  60.5610960  39.2892400
  41.7516440  61.3685490  39.3821640  49.4205060  53.8891150  54.3723260
  49.7450830  53.1580810  54.8981240  49.4561570  53.5704790  53.4704250
  36.1196620  64.9104730  53.7923220  35.7351410  64.2698400  54.3906180
  36.4308810  65.6140850  54.3617950  42.2693760  61.7581270  49.2731840
  42.6363890  61.2839840  50.0193180  42.0798820  62.6322840  49.6140180
  35.1334250  56.5024960  45.4025310  34.8481170  56.1380630  46.2403930
  35.0713110  55.7705420  44.7888450  40.0593130  60.7989910  51.5916050
  39.7550200  61.6781890  51.8166410  41.0139590  60.8589700  51.6273490
  38.5874920  65.0050900  42.1882900  37.8137180  64.4648520  42.0281620
  39.3169550  64.4857510  41.8500660  49.3462900  64.0016260  47.9809290
  50.0662020  64.4971550  47.5905400  49.1444720  63.3234150  47.3363160
  44.8072840  55.3954220  42.1238680  43.9937450  54.8967390  42.0483990
  44.6134790  56.2352470  41.7075030  44.7281700  64.0725320  53.8678290
  44.6619010  63.1520990  53.6135880  44.0986840  64.1700760  54.5822930
  47.5221230  59.7673870  40.4200840  48.4100850  60.0791100  40.2452180
  47.4926320  58.8946120  40.0281420  38.6312320  64.6731280  45.8261710
  39.1490990  63.8699540  45.7718600  38.1796340  64.6110420  46.6678540
  36.1156860  61.6392650  52.7387410  35.7571800  62.3046500  53.3260750
  35.8211420  60.8076200  53.1100030  39.3169980  62.0976890  55.6226960
  39.0170120  62.2434070  54.7254780  40.0881220  61.5382180  55.5300350
  49.7935500  61.0785710  39.8880700  49.7099220  61.5099930  39.0377140
  50.5129690  61.5384060  40.3207520  50.8709640  63.5353230  52.9650670
  50.1457830  64.1282010  52.7680060  51.3985100  63.5276770  52.1664040
  46.4009230  65.2613400  46.4634520  46.7533050  64.6641530  45.8035890
  45.5171560  64.9357630  46.6342770  34.6264910  61.6383910  39.3622010
  35.4959760  61.9208710  39.6457930  34.1355230  62.4519780  39.2470820
  41.7899720  63.0257120  43.4830290  42.2462500  63.8362370  43.7090480
  41.4387930  62.7080260  44.3148780  37.6911500  53.3694770  43.9552810
  37.5626130  53.3612670  44.9037730  36.8673520  53.7077860  43.6043820
  34.6905430  55.1285890  53.4159510  33.9763950  55.3282810  54.0212120
  35.1100470  54.3525460  53.7874310  48.7936380  64.7416370  40.8153340
  48.5058080  65.2029060  41.6031220  49.5888550  64.2814140  41.0837560
  36.6111420  63.4557380  41.4904070  36.0039370  64.1956280  41.4999370
  37.0860770  63.5456740  40.6642270  46.1844210  57.6208200  51.1660960
  46.5525030  56.8003410  51.4940530  45.3242410  57.6810090  51.5816610
  49.5506240  56.5765140  41.9748520  48.9219400  56.6810810  41.2606750
  49.0558160  56.7961920  42.7642400  41.5190270  58.8551090  43.3906400
  40.8106420  59.3237430  43.8320010  41.8034750  58.1973100  44.0251590
  43.1446200  60.2747790  51.3898930  43.6431450  60.7493610  52.0550780
  43.2869150  59.3511310  51.5968960  45.5505700  55.5801750  44.8302190
  45.4273480  55.5987880  43.8811700  46.4990260  55.6280690  44.9500590
  39.7225290  57.1636170  40.7657110  40.5715820  57.6006320  40.6997300
  39.3556560  57.4756430  41.5929170  50.3513060  56.4915750  52.2327320
  49.8486660  57.2321150  52.5721130  51.1669720  56.8799750  51.9164110
  48.6435070  61.7348930  45.6788680  47.7025210  61.7499160  45.8536370
  48.9579140  60.9484890  46.1248980  38.6216710  63.4168530  39.2392640
  39.3879980  63.3049890  39.8018070  38.6991400  62.7206500  38.5869410
  37.3163470  60.8493600  39.9225530  37.3967060  59.9021110  40.0342930
  38.2083220  61.1800480  40.0286190  41.7457890  65.3922710  38.7127990
  41.6408530  64.7775060  39.4389370  41.5782110  64.8688600  37.9291000
  41.8972210  64.0779510  54.6917220  41.1317880  64.6464510  54.6071890
  42.0788170  63.7855720  53.7985450  44.9860620  64.4542740  39.3169980
  44.4370720  64.9012040  39.9612720  45.6079880  63.9491990  39.8407650
  49.0395560  65.8084840  55.2492240  49.7805030  66.1460600  54.7459700
  48.2768240  65.9776900  54.6962010  40.6535740  63.4133660  41.2135280
  41.0752160  63.2473530  42.0566670  40.7786580  62.6033890  40.7190420
  38.8163160  59.3930210  54.0206260  38.2859620  58.9021160  53.3929600
  39.4851230  59.8214410  53.4864190  43.1663380  62.4371270  38.4612380
  43.6869040  61.7220290  38.0953530  43.8131780  63.0757140  38.7612890
  47.7141220  63.8599670  53.7847450  48.1282240  64.0144750  54.6337870
  46.7792220  63.9854890  53.9473230  39.3035460  56.3592580  54.1003550
  39.2092330  55.7413330  53.3754420  38.7232850  57.0858870  53.8733460
  42.0696900  54.9165820  51.1330940  41.6214200  54.9390080  50.2876490
  41.4362100  54.5184840  51.7301240  42.4756450  63.8120150  51.7543380
  42.8944560  64.6552880  51.5819620  41.5565080  63.9492190  51.5250160
  44.8120350  61.5436330  53.1381220  44.9316560  60.9477470  53.8776060
  45.6714350  61.5806020  52.7182520  47.1508250  62.0973520  51.7143730
  46.6243470  62.6216140  51.1108870  47.4939590  62.7300910  52.3453460
  39.5494640  59.4866890  38.1593440  39.3483700  58.6234250  38.5206780
  39.3786690  59.4000250  37.2215040  41.5789120  58.0857680  54.3957040
  42.1688810  57.7773530  55.0834860  40.7609360  57.6137430  54.5516940
  46.3982550  57.7023490  54.6290060  45.7098070  57.0405030  54.5640050
  47.1188570  57.2561760  55.0738520  47.0282950  54.2975120  40.6880320
  47.3085240  53.4543020  41.0439740  46.2548680  54.5298230  41.2019070
  38.3477440  56.5867510  38.1471320  38.6503340  56.5934940  37.2390470
  39.0872030  56.2365370  38.6438980  41.5662370  55.5302130  39.1327520
  41.2184370  54.8526120  38.5529970  41.7675140  55.0691640  39.9470910
  37.3707570  65.8909930  38.9801120  37.8082440  66.4339600  39.6358700
  37.8555300  65.0656880  38.9897460  51.4063670  63.5351850  41.2984230
  52.1682580  64.1048500  41.4043920  51.4218040  62.9679050  42.0692540
  34.9068010  62.0589780  45.5291890  34.2516850  61.7901420  44.8851590
  35.7445960  61.9494260  45.0793870  52.4123640  64.3901950  46.1426160
  52.7832470  63.6069270  45.7362130  53.0525570  65.0791050  45.9643460
  49.3957400  65.7738530  51.5556480  48.5817240  66.2035690  51.8182270
  49.8031600  66.3856940  50.9425530  51.4582840  63.8286220  38.4556750
  51.7331680  64.7365100  38.3275970  51.2693580  63.7648750  39.3918740
  47.8558450  56.8531070  39.7510380  48.2743330  56.6662050  38.9107040
  47.5494510  56.0010120  40.0613310  51.3548180  61.7655210  43.4486180
  50.9791780  60.9983140  43.0167470  50.6251300  62.1477910  43.9361110
  35.9443940  62.4442350  50.0695230  36.3116980  62.3569750  50.9491250
  35.3754760  61.6808900  49.9702090  50.7447800  60.9126730  53.0825700
  50.5133890  60.6839480  52.1823650  51.0052350  61.8326280  53.0370590
  35.4959940  59.3551440  53.9753650  34.6015990  59.3218200  54.3147360
  36.0357490  59.5538230  54.7404900  34.1206090  59.2688710  41.4717220
  33.2170170  59.5318910  41.2968880  34.6046710  59.5399880  40.6917180
  50.6299140  59.9912700  46.7493420  51.1536620  59.4975350  46.1183590
  51.2158560  60.1263060  47.4940990  50.8088860  60.0752570  50.2712970
  49.8591570  60.0416110  50.3857960  50.9901870  60.9852680  50.0362740
  36.6633300  58.3254250  39.3811600  37.3725000  57.9037470  38.8958880
  35.9473240  58.3929480  38.7494950  36.3107460  54.3793580  38.4214250
  37.0335590  54.9202520  38.7395470  36.5831980  54.1057000  37.5455790
  50.1199110  59.2486050  42.6885830  50.6158230  59.0156920  43.4734710
  49.9215180  58.4097890  42.2723470  35.9999650  53.6299770  48.3236870
  36.6475840  53.0797150  47.8832030  36.4201490  53.8842920  49.1452680
  51.5486270  57.8847000  45.2223510  51.4385550  57.7303040  46.1605780
  52.3093860  57.3567940  44.9798920  49.8951990  53.8241130  51.6806510
  50.5324210  54.4375270  52.0465700  50.0426880  53.8601790  50.7355740
  52.4376540  55.7154920  38.4629650  53.3625850  55.5836100  38.2547940
  52.4152330  55.7947740  39.4166100  52.5115030  56.4865580  41.0886360
  51.7166530  56.4210700  41.6179270  52.7158310  57.4216220  41.0771710
  35.7531650  53.7855440  51.0662190  35.4046470  54.2419260  51.8320370
  35.4219350  52.8912570  51.1484620  43.2656470  54.9767320  54.5881610
  43.2045360  55.5689150  55.3377020  44.2056850  54.8693280  54.4431870
  45.9031030  54.6337380  54.2273900  46.5171440  54.9516670  53.5654980
  46.4480590  54.1485970  54.8469760  36.4252290  53.3131640  54.3412960
  36.9735280  53.1319690  53.5779070  36.4907600  52.5225750  54.8769270
  46.6439070  53.1969520  50.5543190  45.7698910  53.5304630  50.3516120
  46.5349820  52.7242700  51.3795060  47.5511050  55.4040390  51.9384910
  47.2224410  54.5892150  51.5586640  48.4993350  55.3610200  51.8150600
  44.3913890  54.1139360  49.4936100  43.6085680  54.5884860  49.7732860
  44.0976820  53.2094190  49.3849280  48.9434960  54.8162460  47.5385190
  49.3843050  54.7607560  46.6906790  48.6742550  55.7320470  47.6095370
  50.8073530  54.4477700  45.5494010  50.7461930  53.5038920  45.4025030
  51.5865560  54.5557790  46.0947470  35.7354300  54.4186840  42.0149820
  36.4933660  54.5315720  41.4413850  35.2731470  55.2556040  41.9693250
  42.2768110  56.5326110  45.0052130  41.4642620  56.1583000  44.6648010
  42.7809750  55.7771190  45.3073320  46.7793090  53.1968560  46.2435200
  47.3822460  53.7688770  46.7183720  46.0386080  53.7608000  46.0209100
  49.9227690  53.5990120  41.5175480  50.1178320  54.4973570  41.7842910
  49.1357560  53.3677200  42.0108430  38.1079450  54.9450890  40.5551790
  38.6372210  54.1580690  40.4259740  38.7407770  55.6242080  40.7887320
  40.3017290  54.6826030  43.6097180  39.6720030  53.9813340  43.7767310
  39.7622430  55.4430160  43.3930340  45.9346460  61.3956060  26.9864880
  45.8540510  60.4810670  26.7156590  45.5210880  61.8923130  26.2804590
  44.0664500  63.1735080  28.8674150  43.2906600  62.6935520  29.1572720
  44.7177430  62.4940730  28.6930310  38.0830330  63.4854890  29.7449910
  37.2515210  63.2303600  30.1446420  38.6911310  63.5565660  30.4807830
  36.4922280  58.4456780  23.5292300  35.6038980  58.7872750  23.4272180
  36.7763470  58.2457100  22.6373130  34.4555290  61.0462430  29.4132000
  35.0271400  60.2784630  29.4135640  34.4556830  61.3451190  28.5038610
  43.5073490  65.8492270  28.8744310  43.4381770  64.9082210  28.7133440
  44.2693350  65.9393680  29.4466880  35.6980160  56.4546790  31.2000930
  35.5183000  55.5572540  31.4803690  35.2960240  57.0018660  31.8747880
  44.5378660  58.6562650  29.1013240  44.9143480  57.7834530  28.9886910
  44.4398170  58.9921350  28.2103680  38.6683670  57.0288280  24.5630680
  38.7750420  57.9292010  24.8699440  37.7576030  56.9806250  24.2725330
  48.3202780  56.1513090  26.0341580  49.1412400  55.6609660  26.0767060
  48.3536860  56.7410750  26.7873420  36.3166830  58.9507290  29.8083270
  36.9976940  59.2145660  30.4270670  36.0014880  58.1108160  30.1421280
  40.5091400  59.9974650  28.8955860  41.0169620  60.4955620  29.5360880
  41.0404640  59.2209850  28.7195220  52.6102330  58.1679840  32.5985210
  51.9054500  58.5561550  32.0800320  52.8760250  58.8630130  33.2006140
  38.7927500  54.6373210  33.1619280  38.7945940  55.1545600  32.3565180
  37.9631810  54.1603390  33.1389210  45.1798590  64.7492520  24.6609180
  44.5615860  65.2141970  24.0971900  45.6921840  65.4420000  25.0778690
  40.0430350  64.2768390  31.3392780  39.7099730  64.9037310  31.9813850
  40.2197030  64.8030270  30.5594450  48.5564260  58.0913470  28.8069120
  47.8519830  58.3798360  29.3872230  48.9176420  58.9013580  28.4468680
  38.4742830  56.3483170  31.1689730  38.8159640  57.1925220  30.8743600
  37.5358640  56.4966910  31.2855070  34.5481790  65.4349050  22.0348810
  34.1709770  65.9236150  21.3033710  34.8054860  66.1074330  22.6655340
  51.6251180  57.5368260  29.1978330  50.6776090  57.5707240  29.3293760
  51.9501170  58.3507210  29.5827690  42.1570720  53.8365440  27.4934320
  42.4645700  53.2812330  26.7769820  41.2271420  53.9709900  27.3107310
  47.1071220  64.4562570  31.1124390  47.5240010  64.2422680  30.2777850
  47.8311040  64.7135360  31.6833010  44.5451480  61.9014270  24.2294440
  43.6180760  61.8351650  24.4582910  44.6976300  62.8394400  24.1149680
  44.5320560  58.1731270  21.2261600  43.5924230  58.3345230  21.3114060
  44.8503820  58.8916950  20.6797590  51.0533320  62.8549790  31.2040630
  50.2251950  62.9242880  30.7290760  51.6483800  63.4404100  30.7356460
  48.5748770  63.4634570  24.7329690  47.9561190  63.1254120  24.0855990
  48.5573220  62.8194330  25.4408880  48.0175330  59.6419110  32.1495500
  47.6046510  60.4672820  32.4035490  47.2851280  59.0564150  31.9571860
  40.1508120  62.4279010  27.0114170  39.7465120  61.7156260  26.5160070
  40.2371240  62.0832250  27.9002210  40.6189820  66.1146570  29.1753380
  40.3218110  65.5092040  28.4961160  41.5689640  66.1523880  29.0642740
  38.8636740  59.2022220  30.7913210  39.4151330  59.3117560  30.0166460
  39.3780250  59.5759820  31.5068440  39.7108250  65.8528260  35.8261180
  38.8136780  66.0768230  36.0734580  39.7361120  65.9763200  34.8772580
  46.7513470  62.7021380  21.7402440  47.1906750  61.8643810  21.5940260
  47.4641890  63.3350780  21.8266580  38.5379470  62.7241580  34.4018550
  38.3987240  63.5964380  34.7705950  37.6560830  62.3814390  34.2566490
  50.3330610  53.9564190  20.0543480  50.0203270  54.0491020  20.9542550
  51.0943080  54.5345220  20.0040910  36.8512750  61.3223990  24.5120820
  36.7310350  62.0486080  23.9002090  36.5413640  60.5526900  24.0348730
  34.4898120  64.4939130  30.3189460  34.5678540  64.6287900  29.3745180
  35.1039800  63.7855020  30.5117580  35.7345750  66.1939320  26.7295640
  35.3273830  66.3353910  25.8749240  36.6258760  65.9099480  26.5266850
  51.5431900  58.6935690  36.0317620  50.9276170  59.2015360  35.5033080
  51.2228320  57.7934020  35.9743560  34.5457640  65.5353300  32.8583920
  34.7088680  65.0658660  32.0403290  35.0110090  65.0276860  33.5232760
  39.3176410  54.6659060  27.8944490  38.8744560  55.4468600  27.5629010
  39.8761400  54.9888950  28.6015430  43.6046220  57.5327580  33.4979810
  43.1425590  57.7410600  34.3099750  43.2024330  56.7186930  33.1950480
  48.6050730  58.7536530  34.6276470  47.7544320  58.4542280  34.9485540
  48.4452520  58.9978540  33.7160290  45.7000440  60.2538280  36.7275260
  46.0253850  59.4202030  36.3877490  46.4880770  60.7766800  36.8753590
  42.4335230  54.2869760  22.7750320  41.8089410  54.2829630  23.5003630
  42.3465350  53.4200720  22.3786290  41.3552310  55.2106390  29.7534090
  41.6524640  56.1169220  29.6726110  41.9037870  54.7225170  29.1393660
  39.1090630  59.7892630  25.6225740  38.8831550  59.5729800  26.5272360
  38.3283160  60.2221090  25.2771710  46.3388390  59.7956000  24.2216390
  45.7397280  60.5191800  24.0380010  46.8868000  59.7332780  23.4392840
  41.5489840  60.6878210  36.2886010  41.4533440  59.7472940  36.1386410
  42.3921820  60.9093280  35.8934080  44.9453260  58.4319540  26.2519670
  45.3382830  58.7491740  25.4388360  45.3070110  57.5531420  26.3664190
  36.6800380  57.0991880  34.4419790  36.2863770  57.9467090  34.6492570
  35.9918780  56.4618250  34.6328430  43.2545430  57.1826850  37.5116530
  42.5643750  56.9899050  38.1462620  43.9977730  57.4661490  38.0440830
  33.9817430  55.0220340  28.4749870  33.6930480  55.5923200  29.1874850
  34.7263190  54.5424790  28.8381100  34.1687660  58.9640460  19.6852590
  34.0862330  59.9071220  19.8267580  33.8170720  58.8215370  18.8064940
  45.5308400  61.0225290  30.3470450  44.7989520  61.5312100  30.6960550
  45.1332740  60.2055270  30.0459230  41.9685790  57.6979490  28.7522940
  41.9721850  57.2569440  27.9027480  42.8636910  58.0196820  28.8594760
  37.8188170  57.5805980  27.7117150  37.4788220  58.0581210  28.4684200
  37.0565490  57.1271100  27.3518250  42.0305940  58.6991570  21.7429700
  42.1518760  58.6578050  22.6915520  41.6454450  59.5615720  21.5876430
  45.9934310  56.4758970  29.7593390  46.0107050  56.9267620  30.6035240
  45.7449890  55.5764610  29.9726830  41.0427440  61.0092710  21.1413000
  40.4744340  60.5610960  20.5148910  41.7516440  61.3685490  20.6078150
  49.4205060  53.8891150  35.5979770  49.7450830  53.1580810  36.1237750
  49.4561570  53.5704790  34.6960760  36.1196620  64.9104730  35.0179730
  35.7351410  64.2698400  35.6162690  36.4308810  65.6140850  35.5874460
  42.2693760  61.7581270  30.4988350  42.6363890  61.2839840  31.2449690
  42.0798820  62.6322840  30.8396690  35.1334250  56.5024960  26.6281820
  34.8481170  56.1380630  27.4660440  35.0713110  55.7705420  26.0144960
  40.0593130  60.7989910  32.8172560  39.7550200  61.6781890  33.0422920
  41.0139590  60.8589700  32.8530000  38.5874920  65.0050900  23.4139410
  37.8137180  64.4648520  23.2538130  39.3169550  64.4857510  23.0757170
  49.3462900  64.0016260  29.2065800  50.0662020  64.4971550  28.8161910
  49.1444720  63.3234150  28.5619670  44.8072840  55.3954220  23.3495190
  43.9937450  54.8967390  23.2740500  44.6134790  56.2352470  22.9331540
  44.7281700  64.0725320  35.0934800  44.6619010  63.1520990  34.8392390
  44.0986840  64.1700760  35.8079440  47.5221230  59.7673870  21.6457350
  48.4100850  60.0791100  21.4708690  47.4926320  58.8946120  21.2537930
  38.6312320  64.6731280  27.0518220  39.1490990  63.8699540  26.9975110
  38.1796340  64.6110420  27.8935050  36.1156860  61.6392650  33.9643920
  35.7571800  62.3046500  34.5517260  35.8211420  60.8076200  34.3356540
  39.3169980  62.0976890  36.8483470  39.0170120  62.2434070  35.9511290
  40.0881220  61.5382180  36.7556860  49.7935500  61.0785710  21.1137210
  49.7099220  61.5099930  20.2633650  50.5129690  61.5384060  21.5464030
  50.8709640  63.5353230  34.1907180  50.1457830  64.1282010  33.9936570
  51.3985100  63.5276770  33.3920550  46.4009230  65.2613400  27.6891030
  46.7533050  64.6641530  27.0292400  45.5171560  64.9357630  27.8599280
  34.6264910  61.6383910  20.5878520  35.4959760  61.9208710  20.8714440
  34.1355230  62.4519780  20.4727330  41.7899720  63.0257120  24.7086800
  42.2462500  63.8362370  24.9346990  41.4387930  62.7080260  25.5405290
  37.6911500  53.3694770  25.1809320  37.5626130  53.3612670  26.1294240
  36.8673520  53.7077860  24.8300330  34.6905430  55.1285890  34.6416020
  33.9763950  55.3282810  35.2468630  35.1100470  54.3525460  35.0130820
  48.7936380  64.7416370  22.0409850  48.5058080  65.2029060  22.8287730
  49.5888550  64.2814140  22.3094070  36.6111420  63.4557380  22.7160580
  36.0039370  64.1956280  22.7255880  37.0860770  63.5456740  21.8898780
  46.1844210  57.6208200  32.3917470  46.5525030  56.8003410  32.7197040
  45.3242410  57.6810090  32.8073120  49.5506240  56.5765140  23.2005030
  48.9219400  56.6810810  22.4863260  49.0558160  56.7961920  23.9898910
  41.5190270  58.8551090  24.6162910  40.8106420  59.3237430  25.0576520
  41.8034750  58.1973100  25.2508100  43.1446200  60.2747790  32.6155440
  43.6431450  60.7493610  33.2807290  43.2869150  59.3511310  32.8225470
  45.5505700  55.5801750  26.0558700  45.4273480  55.5987880  25.1068210
  46.4990260  55.6280690  26.1757100  39.7225290  57.1636170  21.9913620
  40.5715820  57.6006320  21.9253810  39.3556560  57.4756430  22.8185680
  50.3513060  56.4915750  33.4583830  49.8486660  57.2321150  33.7977640
  51.1669720  56.8799750  33.1420620  48.6435070  61.7348930  26.9045190
  47.7025210  61.7499160  27.0792880  48.9579140  60.9484890  27.3505490
  38.6216710  63.4168530  20.4649150  39.3879980  63.3049890  21.0274580
  38.6991400  62.7206500  19.8125920  37.3163470  60.8493600  21.1482040
  37.3967060  59.9021110  21.2599440  38.2083220  61.1800480  21.2542700
  45.9601090  66.2914930  37.3877570  45.3539250  66.3146530  36.6473320
  45.6555200  65.5597970  37.9244820  34.8434270  62.6708520  36.3838210
  35.3473290  62.0915800  36.9554440  34.1041690  62.9548750  36.9214580
  41.7457890  65.3922710  19.9384500  41.6408530  64.7775060  20.6645880
  41.5782110  64.8688600  19.1547510  41.8972210  64.0779510  35.9173730
  41.1317880  64.6464510  35.8328400  42.0788170  63.7855720  35.0241960
  44.9860620  64.4542740  20.5426490  44.4370720  64.9012040  21.1869230
  45.6079880  63.9491990  21.0664160  49.0395560  65.8084840  36.4748750
  49.7805030  66.1460600  35.9716210  48.2768240  65.9776900  35.9218520
  36.8757350  60.8138110  37.2788280  36.9162690  60.5151980  38.1873510
  37.7302850  61.2145720  37.1195800  40.6535740  63.4133660  22.4391790
  41.0752160  63.2473530  23.2823180  40.7786580  62.6033890  21.9446930
  38.8163160  59.3930210  35.2462770  38.2859620  58.9021160  34.6186110
  39.4851230  59.8214410  34.7120700  43.1663380  62.4371270  19.6868890
  43.6869040  61.7220290  19.3210040  43.8131780  63.0757140  19.9869400
  47.7141220  63.8599670  35.0103960  48.1282240  64.0144750  35.8594380
  46.7792220  63.9854890  35.1729740  48.1863390  61.1995830  37.0143110
  48.7684160  60.4448150  36.9263590  48.3625160  61.7303270  36.2374590
  39.3035460  56.3592580  35.3260060  39.2092330  55.7413330  34.6010930
  38.7232850  57.0858870  35.0989970  42.0696900  54.9165820  32.3587450
  41.6214200  54.9390080  31.5133000  41.4362100  54.5184840  32.9557750
  42.4756450  63.8120150  32.9799890  42.8944560  64.6552880  32.8076130
  41.5565080  63.9492190  32.7506670  44.8120350  61.5436330  34.3637730
  44.9316560  60.9477470  35.1032570  45.6714350  61.5806020  33.9439030
  47.1508250  62.0973520  32.9400240  46.6243470  62.6216140  32.3365380
  47.4939590  62.7300910  33.5709970  39.5494640  59.4866890  19.3849950
  39.3483700  58.6234250  19.7463290  39.3786690  59.4000250  18.4471550
  41.5789120  58.0857680  35.6213550  42.1688810  57.7773530  36.3091370
  40.7609360  57.6137430  35.7773450  46.3982550  57.7023490  35.8546570
  45.7098070  57.0405030  35.7896560  47.1188570  57.2561760  36.2995030
  47.0282950  54.2975120  21.9136830  47.3085240  53.4543020  22.2696250
  46.2548680  54.5298230  22.4275580  38.3477440  56.5867510  19.3727830
  38.6503340  56.5934940  18.4646980  39.0872030  56.2365370  19.8695490
  41.5662370  55.5302130  20.3584030  41.2184370  54.8526120  19.7786480
  41.7675140  55.0691640  21.1727420  37.3707570  65.8909930  20.2057630
  37.8082440  66.4339600  20.8615210  37.8555300  65.0656880  20.2153970
  51.4063670  63.5351850  22.5240740  52.1682580  64.1048500  22.6300430
  51.4218040  62.9679050  23.2949050  34.9068010  62.0589780  26.7548400
  34.2516850  61.7901420  26.1108100  35.7445960  61.9494260  26.3050380
  52.4123640  64.3901950  27.3682670  52.7832470  63.6069270  26.9618640
  53.0525570  65.0791050  27.1899970  49.3957400  65.7738530  32.7812990
  48.5817240  66.2035690  33.0438780  49.8031600  66.3856940  32.1682040
  51.4582840  63.8286220  19.6813260  51.7331680  64.7365100  19.5532480
  51.2693580  63.7648750  20.6175250  47.8558450  56.8531070  20.9766890
  48.2743330  56.6662050  20.1363550  47.5494510  56.0010120  21.2869820
  51.3548180  61.7655210  24.6742690  50.9791780  60.9983140  24.2423980
  50.6251300  62.1477910  25.1617620  35.9443940  62.4442350  31.2951740
  36.3116980  62.3569750  32.1747760  35.3754760  61.6808900  31.1958600
  50.7447800  60.9126730  34.3082210  50.5133890  60.6839480  33.4080160
  51.0052350  61.8326280  34.2627100  35.4959940  59.3551440  35.2010160
  34.6015990  59.3218200  35.5403870  36.0357490  59.5538230  35.9661410
  49.1835870  56.1383160  37.0861910  50.0606050  56.1466560  37.4695910
  49.1956710  55.4014000  36.4754260  34.1206090  59.2688710  22.6973730
  33.2170170  59.5318910  22.5225390  34.6046710  59.5399880  21.9173690
  50.6299140  59.9912700  27.9749930  51.1536620  59.4975350  27.3440100
  51.2158560  60.1263060  28.7197500  50.8088860  60.0752570  31.4969480
  49.8591570  60.0416110  31.6114470  50.9901870  60.9852680  31.2619250
  36.6633300  58.3254250  20.6068110  37.3725000  57.9037470  20.1215390
  35.9473240  58.3929480  19.9751460  36.3107460  54.3793580  19.6470760
  37.0335590  54.9202520  19.9651980  36.5831980  54.1057000  18.7712300
  50.1199110  59.2486050  23.9142340  50.6158230  59.0156920  24.6991220
  49.9215180  58.4097890  23.4979980  35.9999650  53.6299770  29.5493380
  36.6475840  53.0797150  29.1088540  36.4201490  53.8842920  30.3709190
  51.5486270  57.8847000  26.4480020  51.4385550  57.7303040  27.3862290
  52.3093860  57.3567940  26.2055430  49.8951990  53.8241130  32.9063020
  50.5324210  54.4375270  33.2722210  50.0426880  53.8601790  31.9612250
  52.4376540  55.7154920  19.6886160  53.3625850  55.5836100  19.4804450
  52.4152330  55.7947740  20.6422610  52.5115030  56.4865580  22.3142870
  51.7166530  56.4210700  22.8435780  52.7158310  57.4216220  22.3028220
  35.7531650  53.7855440  32.2918700  35.4046470  54.2419260  33.0576880
  35.4219350  52.8912570  32.3741130  43.2656470  54.9767320  35.8138120
  43.2045360  55.5689150  36.5633530  44.2056850  54.8693280  35.6688380
  45.9031030  54.6337380  35.4530410  46.5171440  54.9516670  34.7911490
  46.4480590  54.1485970  36.0726270  36.4252290  53.3131640  35.5669470
  36.9735280  53.1319690  34.8035580  36.4907600  52.5225750  36.1025780
  46.6439070  53.1969520  31.7799700  45.7698910  53.5304630  31.5772630
  46.5349820  52.7242700  32.6051570  47.5511050  55.4040390  33.1641420
  47.2224410  54.5892150  32.7843150  48.4993350  55.3610200  33.0407110
  44.3913890  54.1139360  30.7192610  43.6085680  54.5884860  30.9989370
  44.0976820  53.2094190  30.6105790  48.9434960  54.8162460  28.7641700
  49.3843050  54.7607560  27.9163300  48.6742550  55.7320470  28.8351880
  50.8073530  54.4477700  26.7750520  50.7461930  53.5038920  26.6281540
  51.5865560  54.5557790  27.3203980  35.7354300  54.4186840  23.2406330
  36.4933660  54.5315720  22.6670360  35.2731470  55.2556040  23.1949760
  42.2768110  56.5326110  26.2308640  41.4642620  56.1583000  25.8904520
  42.7809750  55.7771190  26.5329830  46.7793090  53.1968560  27.4691710
  47.3822460  53.7688770  27.9440230  46.0386080  53.7608000  27.2465610
  49.9227690  53.5990120  22.7431990  50.1178320  54.4973570  23.0099420
  49.1357560  53.3677200  23.2364940  38.1079450  54.9450890  21.7808300
  38.6372210  54.1580690  21.6516250  38.7407770  55.6242080  22.0143830
  40.3017290  54.6826030  24.8353690  39.6720030  53.9813340  25.0023820
  39.7622430  55.4430160  24.6186850  40.4272850  53.9610010  37.2706180
  40.1457120  54.4643610  36.5067000  40.8092550  53.1631760  36.9048310
  47.0288310  53.3763590  37.8486650  46.9153760  53.6958200  38.7438170
  47.8458050  53.7776100  37.5523930  45.9346460  61.3956060   8.2121390
  45.8540510  60.4810670   7.9413100  45.5210880  61.8923130   7.5061100
  44.0664500  63.1735080  10.0930660  43.2906600  62.6935520  10.3829230
  44.7177430  62.4940730   9.9186820  38.0830330  63.4854890  10.9706420
  37.2515210  63.2303600  11.3702930  38.6911310  63.5565660  11.7064340
  36.4922280  58.4456780   4.7548810  35.6038980  58.7872750   4.6528690
  36.7763470  58.2457100   3.8629640  34.4555290  61.0462430  10.6388510
  35.0271400  60.2784630  10.6392150  34.4556830  61.3451190   9.7295120
  43.5073490  65.8492270  10.1000820  43.4381770  64.9082210   9.9389950
  44.2693350  65.9393680  10.6723390  35.6980160  56.4546790  12.4257440
  35.5183000  55.5572540  12.7060200  35.2960240  57.0018660  13.1004390
  44.5378660  58.6562650  10.3269750  44.9143480  57.7834530  10.2143420
  44.4398170  58.9921350   9.4360190  38.6683670  57.0288280   5.7887190
  38.7750420  57.9292010   6.0955950  37.7576030  56.9806250   5.4981840
  48.3202780  56.1513090   7.2598090  49.1412400  55.6609660   7.3023570
  48.3536860  56.7410750   8.0129930  36.3166830  58.9507290  11.0339780
  36.9976940  59.2145660  11.6527180  36.0014880  58.1108160  11.3677790
  40.5091400  59.9974650  10.1212370  41.0169620  60.4955620  10.7617390
  41.0404640  59.2209850   9.9451730  52.6102330  58.1679840  13.8241720
  51.9054500  58.5561550  13.3056830  52.8760250  58.8630130  14.4262650
  38.7927500  54.6373210  14.3875790  38.7945940  55.1545600  13.5821690
  37.9631810  54.1603390  14.3645720  45.1798590  64.7492520   5.8865690
  44.5615860  65.2141970   5.3228410  45.6921840  65.4420000   6.3035200
  40.0430350  64.2768390  12.5649290  39.7099730  64.9037310  13.2070360
  40.2197030  64.8030270  11.7850960  48.5564260  58.0913470  10.0325630
  47.8519830  58.3798360  10.6128740  48.9176420  58.9013580   9.6725190
  38.4742830  56.3483170  12.3946240  38.8159640  57.1925220  12.1000110
  37.5358640  56.4966910  12.5111580  34.5481790  65.4349050   3.2605320
  34.1709770  65.9236150   2.5290220  34.8054860  66.1074330   3.8911850
  51.6251180  57.5368260  10.4234840  50.6776090  57.5707240  10.5550270
  51.9501170  58.3507210  10.8084200  42.1570720  53.8365440   8.7190830
  42.4645700  53.2812330   8.0026330  41.2271420  53.9709900   8.5363820
  47.1071220  64.4562570  12.3380900  47.5240010  64.2422680  11.5034360
  47.8311040  64.7135360  12.9089520  44.5451480  61.9014270   5.4550950
  43.6180760  61.8351650   5.6839420  44.6976300  62.8394400   5.3406190
  44.5320560  58.1731270   2.4518110  43.5924230  58.3345230   2.5370570
  44.8503820  58.8916950   1.9054100  51.0533320  62.8549790  12.4297140
  50.2251950  62.9242880  11.9547270  51.6483800  63.4404100  11.9612970
  48.5748770  63.4634570   5.9586200  47.9561190  63.1254120   5.3112500
  48.5573220  62.8194330   6.6665390  48.0175330  59.6419110  13.3752010
  47.6046510  60.4672820  13.6292000  47.2851280  59.0564150  13.1828370
  40.1508120  62.4279010   8.2370680  39.7465120  61.7156260   7.7416580
  40.2371240  62.0832250   9.1258720  40.6189820  66.1146570  10.4009890
  40.3218110  65.5092040   9.7217670  41.5689640  66.1523880  10.2899250
  38.8636740  59.2022220  12.0169720  39.4151330  59.3117560  11.2422970
  39.3780250  59.5759820  12.7324950  39.7108250  65.8528260  17.0517690
  38.8136780  66.0768230  17.2991090  39.7361120  65.9763200  16.1029090
  46.7513470  62.7021380   2.9658950  47.1906750  61.8643810   2.8196770
  47.4641890  63.3350780   3.0523090  38.5379470  62.7241580  15.6275060
  38.3987240  63.5964380  15.9962460  37.6560830  62.3814390  15.4823000
  36.8512750  61.3223990   5.7377330  36.7310350  62.0486080   5.1258600
  36.5413640  60.5526900   5.2605240  34.4898120  64.4939130  11.5445970
  34.5678540  64.6287900  10.6001690  35.1039800  63.7855020  11.7374090
  35.7345750  66.1939320   7.9552150  35.3273830  66.3353910   7.1005750
  36.6258760  65.9099480   7.7523360  51.5431900  58.6935690  17.2574130
  50.9276170  59.2015360  16.7289590  51.2228320  57.7934020  17.2000070
  34.5457640  65.5353300  14.0840430  34.7088680  65.0658660  13.2659800
  35.0110090  65.0276860  14.7489270  39.3176410  54.6659060   9.1201000
  38.8744560  55.4468600   8.7885520  39.8761400  54.9888950   9.8271940
  43.6046220  57.5327580  14.7236320  43.1425590  57.7410600  15.5356260
  43.2024330  56.7186930  14.4206990  48.6050730  58.7536530  15.8532980
  47.7544320  58.4542280  16.1742050  48.4452520  58.9978540  14.9416800
  45.7000440  60.2538280  17.9531770  46.0253850  59.4202030  17.6134000
  46.4880770  60.7766800  18.1010100  42.4335230  54.2869760   4.0006830
  41.8089410  54.2829630   4.7260140  42.3465350  53.4200720   3.6042800
  41.3552310  55.2106390  10.9790600  41.6524640  56.1169220  10.8982620
  41.9037870  54.7225170  10.3650170  39.1090630  59.7892630   6.8482250
  38.8831550  59.5729800   7.7528870  38.3283160  60.2221090   6.5028220
  46.3388390  59.7956000   5.4472900  45.7397280  60.5191800   5.2636520
  46.8868000  59.7332780   4.6649350  41.5489840  60.6878210  17.5142520
  41.4533440  59.7472940  17.3642920  42.3921820  60.9093280  17.1190590
  44.9453260  58.4319540   7.4776180  45.3382830  58.7491740   6.6644870
  45.3070110  57.5531420   7.5920700  36.6800380  57.0991880  15.6676300
  36.2863770  57.9467090  15.8749080  35.9918780  56.4618250  15.8584940
  43.2545430  57.1826850  18.7373040  42.5643750  56.9899050  19.3719130
  43.9977730  57.4661490  19.2697340  33.9817430  55.0220340   9.7006380
  33.6930480  55.5923200  10.4131360  34.7263190  54.5424790  10.0637610
  45.5308400  61.0225290  11.5726960  44.7989520  61.5312100  11.9217060
  45.1332740  60.2055270  11.2715740  41.9685790  57.6979490   9.9779450
  41.9721850  57.2569440   9.1283990  42.8636910  58.0196820  10.0851270
  37.8188170  57.5805980   8.9373660  37.4788220  58.0581210   9.6940710
  37.0565490  57.1271100   8.5774760  42.0305940  58.6991570   2.9686210
  42.1518760  58.6578050   3.9172030  41.6454450  59.5615720   2.8132940
  45.9934310  56.4758970  10.9849900  46.0107050  56.9267620  11.8291750
  45.7449890  55.5764610  11.1983340  41.0427440  61.0092710   2.3669510
  40.4744340  60.5610960   1.7405420  41.7516440  61.3685490   1.8334660
  49.4205060  53.8891150  16.8236280  49.7450830  53.1580810  17.3494260
  49.4561570  53.5704790  15.9217270  36.1196620  64.9104730  16.2436240
  35.7351410  64.2698400  16.8419200  36.4308810  65.6140850  16.8130970
  42.2693760  61.7581270  11.7244860  42.6363890  61.2839840  12.4706200
  42.0798820  62.6322840  12.0653200  35.1334250  56.5024960   7.8538330
  34.8481170  56.1380630   8.6916950  35.0713110  55.7705420   7.2401470
  40.0593130  60.7989910  14.0429070  39.7550200  61.6781890  14.2679430
  41.0139590  60.8589700  14.0786510  38.5874920  65.0050900   4.6395920
  37.8137180  64.4648520   4.4794640  39.3169550  64.4857510   4.3013680
  49.3462900  64.0016260  10.4322310  50.0662020  64.4971550  10.0418420
  49.1444720  63.3234150   9.7876180  44.8072840  55.3954220   4.5751700
  43.9937450  54.8967390   4.4997010  44.6134790  56.2352470   4.1588050
  44.7281700  64.0725320  16.3191310  44.6619010  63.1520990  16.0648900
  44.0986840  64.1700760  17.0335950  47.5221230  59.7673870   2.8713860
  48.4100850  60.0791100   2.6965200  47.4926320  58.8946120   2.4794440
  38.6312320  64.6731280   8.2774730  39.1490990  63.8699540   8.2231620
  38.1796340  64.6110420   9.1191560  36.1156860  61.6392650  15.1900430
  35.7571800  62.3046500  15.7773770  35.8211420  60.8076200  15.5613050
  39.3169980  62.0976890  18.0739980  39.0170120  62.2434070  17.1767800
  40.0881220  61.5382180  17.9813370  50.8709640  63.5353230  15.4163690
  50.1457830  64.1282010  15.2193080  51.3985100  63.5276770  14.6177060
  46.4009230  65.2613400   8.9147540  46.7533050  64.6641530   8.2548910
  45.5171560  64.9357630   9.0855790  34.6264910  61.6383910   1.8135030
  35.4959760  61.9208710   2.0970950  34.1355230  62.4519780   1.6983840
  41.7899720  63.0257120   5.9343310  42.2462500  63.8362370   6.1603500
  41.4387930  62.7080260   6.7661800  37.6911500  53.3694770   6.4065830
  37.5626130  53.3612670   7.3550750  36.8673520  53.7077860   6.0556840
  34.6905430  55.1285890  15.8672530  33.9763950  55.3282810  16.4725140
  35.1100470  54.3525460  16.2387330  48.7936380  64.7416370   3.2666360
  48.5058080  65.2029060   4.0544240  49.5888550  64.2814140   3.5350580
  36.6111420  63.4557380   3.9417090  36.0039370  64.1956280   3.9512390
  37.0860770  63.5456740   3.1155290  46.1844210  57.6208200  13.6173980
  46.5525030  56.8003410  13.9453550  45.3242410  57.6810090  14.0329630
  49.5506240  56.5765140   4.4261540  48.9219400  56.6810810   3.7119770
  49.0558160  56.7961920   5.2155420  41.5190270  58.8551090   5.8419420
  40.8106420  59.3237430   6.2833030  41.8034750  58.1973100   6.4764610
  43.1446200  60.2747790  13.8411950  43.6431450  60.7493610  14.5063800
  43.2869150  59.3511310  14.0481980  45.5505700  55.5801750   7.2815210
  45.4273480  55.5987880   6.3324720  46.4990260  55.6280690   7.4013610
  39.7225290  57.1636170   3.2170130  40.5715820  57.6006320   3.1510320
  39.3556560  57.4756430   4.0442190  50.3513060  56.4915750  14.6840340
  49.8486660  57.2321150  15.0234150  51.1669720  56.8799750  14.3677130
  48.6435070  61.7348930   8.1301700  47.7025210  61.7499160   8.3049390
  48.9579140  60.9484890   8.5762000  37.3163470  60.8493600   2.3738550
  37.3967060  59.9021110   2.4855950  38.2083220  61.1800480   2.4799210
  45.9601090  66.2914930  18.6134080  45.3539250  66.3146530  17.8729830
  45.6555200  65.5597970  19.1501330  34.8434270  62.6708520  17.6094720
  35.3473290  62.0915800  18.1810950  34.1041690  62.9548750  18.1471090
  41.8972210  64.0779510  17.1430240  41.1317880  64.6464510  17.0584910
  42.0788170  63.7855720  16.2498470  44.9860620  64.4542740   1.7683000
  44.4370720  64.9012040   2.4125740  45.6079880  63.9491990   2.2920670
  49.0395560  65.8084840  17.7005260  49.7805030  66.1460600  17.1972720
  48.2768240  65.9776900  17.1475030  36.8757350  60.8138110  18.5044790
  36.9162690  60.5151980  19.4130020  37.7302850  61.2145720  18.3452310
  40.6535740  63.4133660   3.6648300  41.0752160  63.2473530   4.5079690
  40.7786580  62.6033890   3.1703440  38.8163160  59.3930210  16.4719280
  38.2859620  58.9021160  15.8442620  39.4851230  59.8214410  15.9377210
  47.7141220  63.8599670  16.2360470  48.1282240  64.0144750  17.0850890
  46.7792220  63.9854890  16.3986250  48.1863390  61.1995830  18.2399620
  48.7684160  60.4448150  18.1520100  48.3625160  61.7303270  17.4631100
  39.3035460  56.3592580  16.5516570  39.2092330  55.7413330  15.8267440
  38.7232850  57.0858870  16.3246480  42.0696900  54.9165820  13.5843960
  41.6214200  54.9390080  12.7389510  41.4362100  54.5184840  14.1814260
  42.4756450  63.8120150  14.2056400  42.8944560  64.6552880  14.0332640
  41.5565080  63.9492190  13.9763180  44.8120350  61.5436330  15.5894240
  44.9316560  60.9477470  16.3289080  45.6714350  61.5806020  15.1695540
  47.1508250  62.0973520  14.1656750  46.6243470  62.6216140  13.5621890
  47.4939590  62.7300910  14.7966480  41.5789120  58.0857680  16.8470060
  42.1688810  57.7773530  17.5347880  40.7609360  57.6137430  17.0029960
  46.3982550  57.7023490  17.0803080  45.7098070  57.0405030  17.0153070
  47.1188570  57.2561760  17.5251540  47.0282950  54.2975120   3.1393340
  47.3085240  53.4543020   3.4952760  46.2548680  54.5298230   3.6532090
  51.4063670  63.5351850   3.7497250  52.1682580  64.1048500   3.8556940
  51.4218040  62.9679050   4.5205560  34.9068010  62.0589780   7.9804910
  34.2516850  61.7901420   7.3364610  35.7445960  61.9494260   7.5306890
  52.4123640  64.3901950   8.5939180  52.7832470  63.6069270   8.1875150
  53.0525570  65.0791050   8.4156480  49.3957400  65.7738530  14.0069500
  48.5817240  66.2035690  14.2695290  49.8031600  66.3856940  13.3938550
  51.3548180  61.7655210   5.8999200  50.9791780  60.9983140   5.4680490
  50.6251300  62.1477910   6.3874130  35.9443940  62.4442350  12.5208250
  36.3116980  62.3569750  13.4004270  35.3754760  61.6808900  12.4215110
  50.7447800  60.9126730  15.5338720  50.5133890  60.6839480  14.6336670
  51.0052350  61.8326280  15.4883610  35.4959940  59.3551440  16.4266670
  34.6015990  59.3218200  16.7660380  36.0357490  59.5538230  17.1917920
  49.1835870  56.1383160  18.3118420  50.0606050  56.1466560  18.6952420
  49.1956710  55.4014000  17.7010770  34.1206090  59.2688710   3.9230240
  33.2170170  59.5318910   3.7481900  34.6046710  59.5399880   3.1430200
  50.6299140  59.9912700   9.2006440  51.1536620  59.4975350   8.5696610
  51.2158560  60.1263060   9.9454010  50.8088860  60.0752570  12.7225990
  49.8591570  60.0416110  12.8370980  50.9901870  60.9852680  12.4875760
  50.1199110  59.2486050   5.1398850  50.6158230  59.0156920   5.9247730
  49.9215180  58.4097890   4.7236490  35.9999650  53.6299770  10.7749890
  36.6475840  53.0797150  10.3345050  36.4201490  53.8842920  11.5965700
  51.5486270  57.8847000   7.6736530  51.4385550  57.7303040   8.6118800
  52.3093860  57.3567940   7.4311940  49.8951990  53.8241130  14.1319530
  50.5324210  54.4375270  14.4978720  50.0426880  53.8601790  13.1868760
  52.5115030  56.4865580   3.5399380  51.7166530  56.4210700   4.0692290
  52.7158310  57.4216220   3.5284730  35.7531650  53.7855440  13.5175210
  35.4046470  54.2419260  14.2833390  35.4219350  52.8912570  13.5997640
  43.2656470  54.9767320  17.0394630  43.2045360  55.5689150  17.7890040
  44.2056850  54.8693280  16.8944890  45.9031030  54.6337380  16.6786920
  46.5171440  54.9516670  16.0168000  46.4480590  54.1485970  17.2982780
  36.4252290  53.3131640  16.7925980  36.9735280  53.1319690  16.0292090
  36.4907600  52.5225750  17.3282290  46.6439070  53.1969520  13.0056210
  45.7698910  53.5304630  12.8029140  46.5349820  52.7242700  13.8308080
  47.5511050  55.4040390  14.3897930  47.2224410  54.5892150  14.0099660
  48.4993350  55.3610200  14.2663620  44.3913890  54.1139360  11.9449120
  43.6085680  54.5884860  12.2245880  44.0976820  53.2094190  11.8362300
  48.9434960  54.8162460   9.9898210  49.3843050  54.7607560   9.1419810
  48.6742550  55.7320470  10.0608390  50.8073530  54.4477700   8.0007030
  50.7461930  53.5038920   7.8538050  51.5865560  54.5557790   8.5460490
  35.7354300  54.4186840   4.4662840  36.4933660  54.5315720   3.8926870
  35.2731470  55.2556040   4.4206270  42.2768110  56.5326110   7.4565150
  41.4642620  56.1583000   7.1161030  42.7809750  55.7771190   7.7586340
  46.7793090  53.1968560   8.6948220  47.3822460  53.7688770   9.1696740
  46.0386080  53.7608000   8.4722120  49.9227690  53.5990120   3.9688500
  50.1178320  54.4973570   4.2355930  49.1357560  53.3677200   4.4621450
  38.1079450  54.9450890   3.0064810  38.6372210  54.1580690   2.8772760
  38.7407770  55.6242080   3.2400340  40.3017290  54.6826030   6.0610200
  39.6720030  53.9813340   6.2280330  39.7622430  55.4430160   5.8443360
  40.4272850  53.9610010  18.4962690  40.1457120  54.4643610  17.7323510
  40.8092550  53.1631760  18.1304820  47.0288310  53.3763590  19.0743160
  46.9153760  53.6958200  19.9694680  47.8458050  53.7776100  18.7780440
  45.9346460  42.6212570  45.7608370  45.8540510  41.7067180  45.4900080
  45.5210880  43.1179640  45.0548080  44.0664500  44.3991590  47.6417640
  43.2906600  43.9192030  47.9316210  44.7177430  43.7197240  47.4673800
  38.0830330  44.7111400  48.5193400  37.2515210  44.4560110  48.9189910
  38.6911310  44.7822170  49.2551320  48.0871930  48.8051780  46.4216770
  47.6253460  48.0339020  46.7503940  48.8997480  48.8317850  46.9269220
  38.0631590  48.7451490  48.7151420  38.3659630  47.8549230  48.5361640
  38.8075180  49.3021710  48.4873670  36.4922280  39.6713290  42.3035790
  35.6038980  40.0129260  42.2015670  36.7763470  39.4713610  41.4116620
  34.4555290  42.2718940  48.1875490  35.0271400  41.5041140  48.1879130
  34.4556830  42.5707700  47.2782100  44.3135240  51.0909790  46.0420760
  43.6946680  51.5467290  45.4715200  45.1687020  51.2461250  45.6410460
  43.5073490  47.0748780  47.6487800  43.4381770  46.1338720  47.4876930
  44.2693350  47.1650190  48.2210370  35.6980160  37.6803300  49.9744420
  35.5183000  36.7829050  50.2547180  35.2960240  38.2275170  50.6491370
  44.5378660  39.8819160  47.8756730  44.9143480  39.0091040  47.7630400
  44.4398170  40.2177860  46.9847170  38.6683670  38.2544790  43.3374170
  38.7750420  39.1548520  43.6442930  37.7576030  38.2062760  43.0468820
  48.3202780  37.3769600  44.8085070  49.1412400  36.8866170  44.8510550
  48.3536860  37.9667260  45.5616910  36.3166830  40.1763800  48.5826760
  36.9976940  40.4402170  49.2014160  36.0014880  39.3364670  48.9164770
  40.5091400  41.2231160  47.6699350  41.0169620  41.7212130  48.3104370
  41.0404640  40.4466360  47.4938710  52.6102330  39.3936350  51.3728700
  51.9054500  39.7818060  50.8543810  52.8760250  40.0886640  51.9749630
  38.7927500  35.8629720  51.9362770  38.7945940  36.3802110  51.1308670
  37.9631810  35.3859900  51.9132700  45.1798590  45.9749030  43.4352670
  44.5615860  46.4398480  42.8715390  45.6921840  46.6676510  43.8522180
  40.0430350  45.5024900  50.1136270  39.7099730  46.1293820  50.7557340
  40.2197030  46.0286780  49.3337940  48.5564260  39.3169980  47.5812610
  47.8519830  39.6054870  48.1615720  48.9176420  40.1270090  47.2212170
  38.4742830  37.5739680  49.9433220  38.8159640  38.4181730  49.6487090
  37.5358640  37.7223420  50.0598560  39.2549450  47.4705700  51.9285450
  39.8723450  48.1456780  51.6469900  38.3942570  47.8793680  51.8372950
  34.5481790  46.6605560  40.8092300  34.1709770  47.1492660  40.0777200
  34.8054860  47.3330840  41.4398830  50.1727040  48.9345110  49.8440090
  49.4890560  49.6044220  49.8356760  50.7121330  49.1325760  49.0784950
  51.6251180  38.7624770  47.9721820  50.6776090  38.7963750  48.1037250
  51.9501170  39.5763720  48.3571180  42.1570720  35.0621950  46.2677810
  42.4645700  34.5068840  45.5513310  41.2271420  35.1966410  46.0850800
  47.7085780  50.7789240  48.5585270  47.7212940  50.3751530  47.6907530
  47.1561000  51.5536530  48.4546700  49.0031200  47.5005460  43.6475440
  48.8927530  46.5579790  43.7724860  48.9999450  47.8621100  44.5338200
  47.1071220  45.6819080  49.8867880  47.5240010  45.4679190  49.0521340
  47.8311040  45.9391870  50.4576500  44.5451480  43.1270780  43.0037930
  43.6180760  43.0608160  43.2326400  44.6976300  44.0650910  42.8893170
  44.5320560  39.3987780  40.0005090  43.5924230  39.5601740  40.0857550
  44.8503820  40.1173460  39.4541080  51.0533320  44.0806300  49.9784120
  50.2251950  44.1499390  49.5034250  51.6483800  44.6660610  49.5099950
  48.5748770  44.6891080  43.5073180  47.9561190  44.3510630  42.8599480
  48.5573220  44.0450840  44.2152370  48.0175330  40.8675620  50.9238990
  47.6046510  41.6929330  51.1778980  47.2851280  40.2820660  50.7315350
  40.1508120  43.6535520  45.7857660  39.7465120  42.9412770  45.2903560
  40.2371240  43.3088760  46.6745700  40.6189820  47.3403080  47.9496870
  40.3218110  46.7348550  47.2704650  41.5689640  47.3780390  47.8386230
  38.8636740  40.4278730  49.5656700  39.4151330  40.5374070  48.7909950
  39.3780250  40.8016330  50.2811930  48.7075430  50.9134950  51.6119970
  48.2305990  51.7207140  51.4192580  48.0237220  50.2613280  51.7646180
  39.7108250  47.0784770  54.6004670  38.8136780  47.3024740  54.8478070
  39.7361120  47.2019710  53.6516070  46.7513470  43.9277890  40.5145930
  47.1906750  43.0900320  40.3683750  47.4641890  44.5607290  40.6010070
  38.5379470  43.9498090  53.1762040  38.3987240  44.8220890  53.5449440
  37.6560830  43.6070900  53.0309980  44.8608850  48.8673960  44.4827170
  45.3004760  49.6098290  44.0682560  44.7995740  49.1100530  45.4066130
  40.3359820  49.8919790  55.3847190  40.3075250  50.2962740  54.5175620
  40.1724790  48.9630150  55.2218790  50.3330610  35.1820700  38.8286970
  50.0203270  35.2747530  39.7286040  51.0943080  35.7601730  38.7784400
  36.8512750  42.5480500  43.2864310  36.7310350  43.2742590  42.6745580
  36.5413640  41.7783410  42.8092220  34.4898120  45.7195640  49.0932950
  34.5678540  45.8544410  48.1488670  35.1039800  45.0111530  49.2861070
  35.7345750  47.4195830  45.5039130  35.3273830  47.5610420  44.6492730
  36.6258760  47.1355990  45.3010340  51.6907890  47.8659740  53.8411370
  51.8170950  47.6271620  52.9228550  51.7329270  47.0344280  54.3133450
  45.5524630  51.5687740  52.4106180  46.0669300  51.4795750  53.2128610
  44.7093710  51.9147440  52.7034090  47.5279030  51.8543080  41.8390180
  47.3680170  51.5646020  42.7372010  47.3625740  51.0783210  41.3035410
  40.0067410  51.6341610  43.6161800  39.8309890  50.7177150  43.4029600
  39.1523150  51.9928900  43.8559600  47.2305160  49.3630640  40.3988180
  46.5370320  49.3607930  39.7390460  47.9728020  48.9389960  39.9682350
  46.7955090  50.9893350  44.4736670  47.2512040  50.2082730  44.7875290
  47.1347610  51.7000170  45.0177850  51.5431900  39.9192200  54.8061110
  50.9276170  40.4271870  54.2776570  51.2228320  39.0190530  54.7487050
  34.5457640  46.7609810  51.6327410  34.7088680  46.2915170  50.8146780
  35.0110090  46.2533370  52.2976250  39.3176410  35.8915570  46.6687980
  38.8744560  36.6725110  46.3372500  39.8761400  36.2145460  47.3758920
  43.6046220  38.7584090  52.2723300  43.1425590  38.9667110  53.0843240
  43.2024330  37.9443440  51.9693970  48.6050730  39.9793040  53.4019960
  47.7544320  39.6798790  53.7229030  48.4452520  40.2235050  52.4903780
  45.7000440  41.4794790  55.5018750  46.0253850  40.6458540  55.1620980
  46.4880770  42.0023310  55.6497080  42.4335230  35.5126270  41.5493810
  41.8089410  35.5086140  42.2747120  42.3465350  34.6457230  41.1529780
  41.3552310  36.4362900  48.5277580  41.6524640  37.3425730  48.4469600
  41.9037870  35.9481680  47.9137150  39.1090630  41.0149140  44.3969230
  38.8831550  40.7986310  45.3015850  38.3283160  41.4477600  44.0515200
  46.3388390  41.0212510  42.9959880  45.7397280  41.7448310  42.8123500
  46.8868000  40.9589290  42.2136330  41.5489840  41.9134720  55.0629500
  41.4533440  40.9729450  54.9129900  42.3921820  42.1349790  54.6677570
  44.9453260  39.6576050  45.0263160  45.3382830  39.9748250  44.2131850
  45.3070110  38.7787930  45.1407680  36.6800380  38.3248390  53.2163280
  36.2863770  39.1723600  53.4236060  35.9918780  37.6874760  53.4071920
  33.9817430  36.2476850  47.2493360  33.6930480  36.8179710  47.9618340
  34.7263190  35.7681300  47.6124590  45.5308400  42.2481800  49.1213940
  44.7989520  42.7568610  49.4704040  45.1332740  41.4311780  48.8202720
  41.9685790  38.9236000  47.5266430  41.9721850  38.4825950  46.6770970
  42.8636910  39.2453330  47.6338250  37.8188170  38.8062490  46.4860640
  37.4788220  39.2837720  47.2427690  37.0565490  38.3527610  46.1261740
  42.0305940  39.9248080  40.5173190  42.1518760  39.8834560  41.4659010
  41.6454450  40.7872230  40.3619920  45.9934310  37.7015480  48.5336880
  46.0107050  38.1524130  49.3778730  45.7449890  36.8021120  48.7470320
  41.0427440  42.2349220  39.9156490  40.4744340  41.7867470  39.2892400
  41.7516440  42.5942000  39.3821640  49.4205060  35.1147660  54.3723260
  49.7450830  34.3837320  54.8981240  49.4561570  34.7961300  53.4704250
  36.1196620  46.1361240  53.7923220  35.7351410  45.4954910  54.3906180
  36.4308810  46.8397360  54.3617950  42.2693760  42.9837780  49.2731840
  42.6363890  42.5096350  50.0193180  42.0798820  43.8579350  49.6140180
  35.1334250  37.7281470  45.4025310  34.8481170  37.3637140  46.2403930
  35.0713110  36.9961930  44.7888450  40.0593130  42.0246420  51.5916050
  39.7550200  42.9038400  51.8166410  41.0139590  42.0846210  51.6273490
  38.5874920  46.2307410  42.1882900  37.8137180  45.6905030  42.0281620
  39.3169550  45.7114020  41.8500660  49.3462900  45.2272770  47.9809290
  50.0662020  45.7228060  47.5905400  49.1444720  44.5490660  47.3363160
  44.8072840  36.6210730  42.1238680  43.9937450  36.1223900  42.0483990
  44.6134790  37.4608980  41.7075030  44.7281700  45.2981830  53.8678290
  44.6619010  44.3777500  53.6135880  44.0986840  45.3957270  54.5822930
  47.5221230  40.9930380  40.4200840  48.4100850  41.3047610  40.2452180
  47.4926320  40.1202630  40.0281420  38.6312320  45.8987790  45.8261710
  39.1490990  45.0956050  45.7718600  38.1796340  45.8366930  46.6678540
  43.5181820  47.1654070  41.0989010  43.8597520  47.9096300  40.6032330
  42.6894530  47.4785190  41.4613840  36.1156860  42.8649160  52.7387410
  35.7571800  43.5303010  53.3260750  35.8211420  42.0332710  53.1100030
  39.3169980  43.3233400  55.6226960  39.0170120  43.4690580  54.7254780
  40.0881220  42.7638690  55.5300350  44.6598430  48.1202400  53.6182090
  44.6742970  47.1883360  53.4001000  43.9523530  48.2062160  54.2571860
  49.7935500  42.3042220  39.8880700  49.7099220  42.7356440  39.0377140
  50.5129690  42.7640570  40.3207520  50.8709640  44.7609740  52.9650670
  50.1457830  45.3538520  52.7680060  51.3985100  44.7533280  52.1664040
  50.8222750  49.1584480  42.6162830  50.1798910  48.5040100  42.8906550
  50.4353410  49.5639570  41.8403500  46.4009230  46.4869910  46.4634520
  46.7533050  45.8898040  45.8035890  45.5171560  46.1614140  46.6342770
  42.4872510  47.2467600  43.8704930  43.1743640  47.7936810  44.2512520
  41.7004930  47.7908330  43.9054540  41.7899720  44.2513630  43.4830290
  42.2462500  45.0618880  43.7090480  41.4387930  43.9336770  44.3148780
  44.0932330  49.7619970  50.7122590  44.7374550  49.9679350  51.3896010
  44.4561770  49.0008370  50.2593440  37.6911500  34.5951280  43.9552810
  37.5626130  34.5869180  44.9037730  36.8673520  34.9334370  43.6043820
  45.3664410  47.7652320  49.4300040  46.0086640  47.0645480  49.5432210
  45.8913760  48.5450760  49.2496930  49.2120130  48.0500940  39.1539180
  48.9857710  47.3331380  39.7463820  48.8216330  47.8013380  38.3160930
  47.1402030  48.5647220  52.6336100  47.4758270  49.1513910  53.3114020
  46.2202370  48.4339930  52.8633890  34.9936160  52.0767800  39.9283640
  35.3533800  52.6757140  39.2740910  34.8528500  52.6227690  40.7018670
  34.6905430  36.3542400  53.4159510  33.9763950  36.5539320  54.0212120
  35.1100470  35.5781970  53.7874310  48.7936380  45.9672880  40.8153340
  48.5058080  46.4285570  41.6031220  49.5888550  45.5070650  41.0837560
  34.9778020  50.3422660  54.4026040  35.0869140  49.4017400  54.2621430
  34.3258580  50.6077410  53.7539770  41.0104780  49.4599000  40.7457310
  41.0014880  50.1928690  40.1301820  40.0903140  49.2130580  40.8384270
  36.6111420  44.6813890  41.4904070  36.0039370  45.4212790  41.4999370
  37.0860770  44.7713250  40.6642270  46.1844210  38.8464710  51.1660960
  46.5525030  38.0259920  51.4940530  45.3242410  38.9066600  51.5816610
  49.5506240  37.8021650  41.9748520  48.9219400  37.9067320  41.2606750
  49.0558160  38.0218430  42.7642400  43.9964380  49.5227240  39.4082500
  44.0976360  49.3191230  38.4784480  43.0966120  49.2685520  39.6130280
  41.5190270  40.0807600  43.3906400  40.8106420  40.5493940  43.8320010
  41.8034750  39.4229610  44.0251590  43.1446200  41.5004300  51.3898930
  43.6431450  41.9750120  52.0550780  43.2869150  40.5767820  51.5968960
  45.5505700  36.8058260  44.8302190  45.4273480  36.8244390  43.8811700
  46.4990260  36.8537200  44.9500590  42.6382490  52.0413560  44.1030170
  42.8923990  52.0034950  43.1809540  41.6894970  51.9146890  44.0958420
  39.7225290  38.3892680  40.7657110  40.5715820  38.8262830  40.6997300
  39.3556560  38.7012940  41.5929170  50.3513060  37.7172260  52.2327320
  49.8486660  38.4577660  52.5721130  51.1669720  38.1056260  51.9164110
  48.6435070  42.9605440  45.6788680  47.7025210  42.9755670  45.8536370
  48.9579140  42.1741400  46.1248980  38.6216710  44.6425040  39.2392640
  39.3879980  44.5306400  39.8018070  38.6991400  43.9463010  38.5869410
  50.6460650  50.1314290  47.3542940  50.7708070  50.9545460  47.8266750
  51.5126210  49.9205020  47.0067090  38.1178180  52.2245500  47.0260070
  38.8540660  51.6760960  47.2968640  38.5019100  53.0901510  46.8866060
  35.0023660  48.2919070  42.9001580  34.0763440  48.5340210  42.8906990
  35.4680090  49.1193330  42.7786330  41.2280490  51.3975810  38.8485640
  42.0209100  51.6864640  38.3967430  40.7084840  50.9667980  38.1698120
  47.3901460  51.2451730  54.7730470  48.3423210  51.1609750  54.7230710
  47.2429680  51.9093440  55.4464260  50.2810660  50.6245940  40.2722380
  49.9952170  50.2111080  39.4576560  50.0830210  51.5533650  40.1522900
  41.7457890  46.6179220  38.7127990  41.6408530  46.0031570  39.4389370
  41.5782110  46.0945110  37.9291000  41.8972210  45.3036020  54.6917220
  41.1317880  45.8721020  54.6071890  42.0788170  45.0112230  53.7985450
  44.9860620  45.6799250  39.3169980  44.4370720  46.1268550  39.9612720
  45.6079880  45.1748500  39.8407650  49.0395560  47.0341350  55.2492240
  49.7805030  47.3717110  54.7459700  48.2768240  47.2033410  54.6962010
  40.6535740  44.6390170  41.2135280  41.0752160  44.4730040  42.0566670
  40.7786580  43.8290400  40.7190420  38.8163160  40.6186720  54.0206260
  38.2859620  40.1277670  53.3929600  39.4851230  41.0470920  53.4864190
  43.1663380  43.6627780  38.4612380  43.6869040  42.9476800  38.0953530
  43.8131780  44.3013650  38.7612890  47.7141220  45.0856180  53.7847450
  48.1282240  45.2401260  54.6337870  46.7792220  45.2111400  53.9473230
  39.3035460  37.5849090  54.1003550  39.2092330  36.9669840  53.3754420
  38.7232850  38.3115380  53.8733460  42.0696900  36.1422330  51.1330940
  41.6214200  36.1646590  50.2876490  41.4362100  35.7441350  51.7301240
  42.4756450  45.0376660  51.7543380  42.8944560  45.8809390  51.5819620
  41.5565080  45.1748700  51.5250160  44.8120350  42.7692840  53.1381220
  44.9316560  42.1733980  53.8776060  45.6714350  42.8062530  52.7182520
  47.1508250  43.3230030  51.7143730  46.6243470  43.8472650  51.1108870
  47.4939590  43.9557420  52.3453460  40.3263870  51.3429670  52.8701110
  39.7884960  52.0675730  52.5509810  40.5797830  50.8660010  52.0798450
  41.5789120  39.3114190  54.3957040  42.1688810  39.0030040  55.0834860
  40.7609360  38.8393940  54.5516940  46.3982550  38.9280000  54.6290060
  45.7098070  38.2661540  54.5640050  47.1188570  38.4818270  55.0738520
  47.0282950  35.5231630  40.6880320  47.3085240  34.6799530  41.0439740
  46.2548680  35.7554740  41.2019070  43.1826080  52.5780880  53.1287760
  43.1084780  53.4816020  53.4360130  42.2804920  52.2592780  53.1009830
  41.5662370  36.7558640  39.1327520  41.2184370  36.0782630  38.5529970
  41.7675140  36.2948150  39.9470910  43.7311410  51.7439390  40.7514120
  44.6262200  52.0824360  40.7732880  43.7629040  51.0218800  40.1238400
  37.3707570  47.1166440  38.9801120  37.8082440  47.6596110  39.6358700
  37.8555300  46.2913390  38.9897460  34.5853370  49.9055470  46.4321380
  34.9156380  49.0376530  46.2000020  35.0144370  50.1113990  47.2626340
  39.1815290  48.2364480  44.0923350  38.8810830  48.1129450  44.9927260
  39.0752780  47.3773070  43.6839080  35.0743580  50.7726060  49.1703010
  34.6374570  50.9526860  50.0027160  35.6421260  51.5300680  49.0284730
  50.7105760  50.2743060  53.4580320  50.1107750  50.3335620  52.7144240
  50.8399660  49.3348040  53.5877170  51.9507210  48.0160880  38.7950030
  51.1200170  48.0837530  39.2657260  52.1279040  48.9065000  38.4916890
  51.4063670  44.7608360  41.2984230  52.1682580  45.3305010  41.4043920
  51.4218040  44.1935560  42.0692540  34.9068010  43.2846290  45.5291890
  34.2516850  43.0157930  44.8851590  35.7445960  43.1750770  45.0793870
  52.4123640  45.6158460  46.1426160  52.7832470  44.8325780  45.7362130
  53.0525570  46.3047560  45.9643460  49.3957400  46.9995040  51.5556480
  48.5817240  47.4292200  51.8182270  49.8031600  47.6113450  50.9425530
  51.4582840  45.0542730  38.4556750  51.7331680  45.9621610  38.3275970
  51.2693580  44.9905260  39.3918740  47.8558450  38.0787580  39.7510380
  48.2743330  37.8918560  38.9107040  47.5494510  37.2266630  40.0613310
  51.3548180  42.9911720  43.4486180  50.9791780  42.2239650  43.0167470
  50.6251300  43.3734420  43.9361110  35.9443940  43.6698860  50.0695230
  36.3116980  43.5826260  50.9491250  35.3754760  42.9065410  49.9702090
  50.7447800  42.1383240  53.0825700  50.5133890  41.9095990  52.1823650
  51.0052350  43.0582790  53.0370590  35.4959940  40.5807950  53.9753650
  34.6015990  40.5474710  54.3147360  36.0357490  40.7794740  54.7404900
  50.6299140  41.2169210  46.7493420  51.1536620  40.7231860  46.1183590
  51.2158560  41.3519570  47.4940990  50.8088860  41.3009080  50.2712970
  49.8591570  41.2672620  50.3857960  50.9901870  42.2109190  50.0362740
  50.1199110  40.4742560  42.6885830  50.6158230  40.2413430  43.4734710
  49.9215180  39.6354400  42.2723470  35.9999650  34.8556280  48.3236870
  36.6475840  34.3053660  47.8832030  36.4201490  35.1099430  49.1452680
  51.5486270  39.1103510  45.2223510  51.4385550  38.9559550  46.1605780
  52.3093860  38.5824450  44.9798920  49.8951990  35.0497640  51.6806510
  50.5324210  35.6631780  52.0465700  50.0426880  35.0858300  50.7355740
  52.4376540  36.9411430  38.4629650  53.3625850  36.8092610  38.2547940
  52.4152330  37.0204250  39.4166100  52.5115030  37.7122090  41.0886360
  51.7166530  37.6467210  41.6179270  52.7158310  38.6472730  41.0771710
  49.4533450  51.7513640  45.0824750  50.0492520  51.4298210  44.4059170
  49.7111600  51.2785460  45.8738020  35.7531650  35.0111950  51.0662190
  35.4046470  35.4675770  51.8320370  35.4219350  34.1169080  51.1484620
  41.0602050  49.7391140  50.8325100  40.8193410  50.0065700  49.9455620
  42.0004690  49.9096870  50.8875960  43.2656470  36.2023830  54.5881610
  43.2045360  36.7945660  55.3377020  44.2056850  36.0949790  54.4431870
  45.9031030  35.8593890  54.2273900  46.5171440  36.1773180  53.5654980
  46.4480590  35.3742480  54.8469760  52.3206210  51.7585520  51.6335740
  51.8264490  52.1554390  50.9162870  51.7119500  51.1334730  52.0273020
  36.4252290  34.5388150  54.3412960  36.9735280  34.3576200  53.5779070
  36.4907600  33.7482260  54.8769270  37.1984050  51.1293800  52.3513160
  36.6044370  50.9978500  53.0903200  37.1907890  50.2931940  51.8855260
  46.6439070  34.4226030  50.5543190  45.7698910  34.7561140  50.3516120
  46.5349820  33.9499210  51.3795060  47.5511050  36.6296900  51.9384910
  47.2224410  35.8148660  51.5586640  48.4993350  36.5866710  51.8150600
  50.0045660  52.4008940  48.9122480  49.5448630  53.1524750  48.5380500
  49.3758120  51.6815410  48.8537280  36.8296280  48.4952180  51.3021200
  36.1030340  47.8757470  51.2347150  36.8905430  48.8892790  50.4319280
  40.4341380  50.7097180  48.0870610  40.9506400  50.0984540  47.5618870
  41.0838760  51.2125960  48.5781620  43.1736880  51.6005670  48.9139590
  43.4614690  51.3459970  48.0372600  43.6860100  51.0483030  49.5045160
  44.3913890  35.3395870  49.4936100  43.6085680  35.8141370  49.7732860
  44.0976820  34.4350700  49.3849280  48.9434960  36.0418970  47.5385190
  49.3843050  35.9864070  46.6906790  48.6742550  36.9576980  47.6095370
  50.8073530  35.6734210  45.5494010  50.7461930  34.7295430  45.4025030
  51.5865560  35.7814300  46.0947470  35.1126280  51.8126570  44.5117960
  34.9448320  51.1797250  45.2099850  34.2460790  52.0185970  44.1612150
  35.7354300  35.6443350  42.0149820  36.4933660  35.7572230  41.4413850
  35.2731470  36.4812550  41.9693250  42.2768110  37.7582620  45.0052130
  41.4642620  37.3839510  44.6648010  42.7809750  37.0027700  45.3073320
  46.7793090  34.4225070  46.2435200  47.3822460  34.9945280  46.7183720
  46.0386080  34.9864510  46.0209100  49.9227690  34.8246630  41.5175480
  50.1178320  35.7230080  41.7842910  49.1357560  34.5933710  42.0108430
  36.7188980  50.5059800  41.9568100  36.1936600  50.8867830  41.2530060
  36.6433560  51.1310570  42.6777810  40.3017290  35.9082540  43.6097180
  39.6720030  35.2069850  43.7767310  39.7622430  36.6686670  43.3930340
  51.4754300  52.0647340  43.2782040  51.6506490  51.3785080  42.6342960
  50.7775870  52.5894390  42.8858710  39.3181950  52.4542180  40.8317350
  40.0500770  52.1701460  40.2841240  39.5775620  52.2155460  41.7216730
  38.4796740  48.5706910  40.8363680  37.8505620  49.0392010  41.3849510
  38.5944570  47.7256130  41.2709870  45.9346460  42.6212570  26.9864880
  45.8540510  41.7067180  26.7156590  45.5210880  43.1179640  26.2804590
  44.0664500  44.3991590  28.8674150  43.2906600  43.9192030  29.1572720
  44.7177430  43.7197240  28.6930310  38.0830330  44.7111400  29.7449910
  37.2515210  44.4560110  30.1446420  38.6911310  44.7822170  30.4807830
  48.0871930  48.8051780  27.6473280  47.6253460  48.0339020  27.9760450
  48.8997480  48.8317850  28.1525730  38.0631590  48.7451490  29.9407930
  38.3659630  47.8549230  29.7618150  38.8075180  49.3021710  29.7130180
  36.4922280  39.6713290  23.5292300  35.6038980  40.0129260  23.4272180
  36.7763470  39.4713610  22.6373130  34.4555290  42.2718940  29.4132000
  35.0271400  41.5041140  29.4135640  34.4556830  42.5707700  28.5038610
  44.3135240  51.0909790  27.2677270  43.6946680  51.5467290  26.6971710
  45.1687020  51.2461250  26.8666970  43.5073490  47.0748780  28.8744310
  43.4381770  46.1338720  28.7133440  44.2693350  47.1650190  29.4466880
  44.5378660  39.8819160  29.1013240  44.9143480  39.0091040  28.9886910
  44.4398170  40.2177860  28.2103680  38.6683670  38.2544790  24.5630680
  38.7750420  39.1548520  24.8699440  37.7576030  38.2062760  24.2725330
  48.3202780  37.3769600  26.0341580  49.1412400  36.8866170  26.0767060
  48.3536860  37.9667260  26.7873420  36.3166830  40.1763800  29.8083270
  36.9976940  40.4402170  30.4270670  36.0014880  39.3364670  30.1421280
  40.5091400  41.2231160  28.8955860  41.0169620  41.7212130  29.5360880
  41.0404640  40.4466360  28.7195220  52.6102330  39.3936350  32.5985210
  51.9054500  39.7818060  32.0800320  52.8760250  40.0886640  33.2006140
  38.7927500  35.8629720  33.1619280  38.7945940  36.3802110  32.3565180
  37.9631810  35.3859900  33.1389210  45.1798590  45.9749030  24.6609180
  44.5615860  46.4398480  24.0971900  45.6921840  46.6676510  25.0778690
  40.0430350  45.5024900  31.3392780  39.7099730  46.1293820  31.9813850
  40.2197030  46.0286780  30.5594450  48.5564260  39.3169980  28.8069120
  47.8519830  39.6054870  29.3872230  48.9176420  40.1270090  28.4468680
  38.4742830  37.5739680  31.1689730  38.8159640  38.4181730  30.8743600
  37.5358640  37.7223420  31.2855070  39.2549450  47.4705700  33.1541960
  39.8723450  48.1456780  32.8726410  38.3942570  47.8793680  33.0629460
  34.5481790  46.6605560  22.0348810  34.1709770  47.1492660  21.3033710
  34.8054860  47.3330840  22.6655340  50.1727040  48.9345110  31.0696600
  49.4890560  49.6044220  31.0613270  50.7121330  49.1325760  30.3041460
  51.6251180  38.7624770  29.1978330  50.6776090  38.7963750  29.3293760
  51.9501170  39.5763720  29.5827690  42.1570720  35.0621950  27.4934320
  42.4645700  34.5068840  26.7769820  41.2271420  35.1966410  27.3107310
  47.7085780  50.7789240  29.7841780  47.7212940  50.3751530  28.9164040
  47.1561000  51.5536530  29.6803210  49.0031200  47.5005460  24.8731950
  48.8927530  46.5579790  24.9981370  48.9999450  47.8621100  25.7594710
  47.1071220  45.6819080  31.1124390  47.5240010  45.4679190  30.2777850
  47.8311040  45.9391870  31.6833010  44.5451480  43.1270780  24.2294440
  43.6180760  43.0608160  24.4582910  44.6976300  44.0650910  24.1149680
  44.5320560  39.3987780  21.2261600  43.5924230  39.5601740  21.3114060
  44.8503820  40.1173460  20.6797590  51.0533320  44.0806300  31.2040630
  50.2251950  44.1499390  30.7290760  51.6483800  44.6660610  30.7356460
  48.5748770  44.6891080  24.7329690  47.9561190  44.3510630  24.0855990
  48.5573220  44.0450840  25.4408880  48.0175330  40.8675620  32.1495500
  47.6046510  41.6929330  32.4035490  47.2851280  40.2820660  31.9571860
  40.1508120  43.6535520  27.0114170  39.7465120  42.9412770  26.5160070
  40.2371240  43.3088760  27.9002210  40.6189820  47.3403080  29.1753380
  40.3218110  46.7348550  28.4961160  41.5689640  47.3780390  29.0642740
  38.8636740  40.4278730  30.7913210  39.4151330  40.5374070  30.0166460
  39.3780250  40.8016330  31.5068440  48.7075430  50.9134950  32.8376480
  48.2305990  51.7207140  32.6449090  48.0237220  50.2613280  32.9902690
  39.7108250  47.0784770  35.8261180  38.8136780  47.3024740  36.0734580
  39.7361120  47.2019710  34.8772580  46.7513470  43.9277890  21.7402440
  47.1906750  43.0900320  21.5940260  47.4641890  44.5607290  21.8266580
  38.5379470  43.9498090  34.4018550  38.3987240  44.8220890  34.7705950
  37.6560830  43.6070900  34.2566490  44.8608850  48.8673960  25.7083680
  45.3004760  49.6098290  25.2939070  44.7995740  49.1100530  26.6322640
  40.3359820  49.8919790  36.6103700  40.3075250  50.2962740  35.7432130
  40.1724790  48.9630150  36.4475300  50.3330610  35.1820700  20.0543480
  50.0203270  35.2747530  20.9542550  51.0943080  35.7601730  20.0040910
  36.8512750  42.5480500  24.5120820  36.7310350  43.2742590  23.9002090
  36.5413640  41.7783410  24.0348730  52.2874640  50.6746890  37.9067870
  52.7634360  51.1529780  38.5856950  52.9081800  50.6064380  37.1813370
  35.7345750  47.4195830  26.7295640  35.3273830  47.5610420  25.8749240
  36.6258760  47.1355990  26.5266850  51.6907890  47.8659740  35.0667880
  51.8170950  47.6271620  34.1485060  51.7329270  47.0344280  35.5389960
  45.5524630  51.5687740  33.6362690  46.0669300  51.4795750  34.4385120
  44.7093710  51.9147440  33.9290600  47.5279030  51.8543080  23.0646690
  47.3680170  51.5646020  23.9628520  47.3625740  51.0783210  22.5291920
  40.0067410  51.6341610  24.8418310  39.8309890  50.7177150  24.6286110
  39.1523150  51.9928900  25.0816110  47.2305160  49.3630640  21.6244690
  46.5370320  49.3607930  20.9646970  47.9728020  48.9389960  21.1938860
  46.7955090  50.9893350  25.6993180  47.2512040  50.2082730  26.0131800
  47.1347610  51.7000170  26.2434360  51.5431900  39.9192200  36.0317620
  50.9276170  40.4271870  35.5033080  51.2228320  39.0190530  35.9743560
  39.3176410  35.8915570  27.8944490  38.8744560  36.6725110  27.5629010
  39.8761400  36.2145460  28.6015430  43.6046220  38.7584090  33.4979810
  43.1425590  38.9667110  34.3099750  43.2024330  37.9443440  33.1950480
  48.6050730  39.9793040  34.6276470  47.7544320  39.6798790  34.9485540
  48.4452520  40.2235050  33.7160290  45.7000440  41.4794790  36.7275260
  46.0253850  40.6458540  36.3877490  46.4880770  42.0023310  36.8753590
  42.4335230  35.5126270  22.7750320  41.8089410  35.5086140  23.5003630
  42.3465350  34.6457230  22.3786290  41.3552310  36.4362900  29.7534090
  41.6524640  37.3425730  29.6726110  41.9037870  35.9481680  29.1393660
  39.1090630  41.0149140  25.6225740  38.8831550  40.7986310  26.5272360
  38.3283160  41.4477600  25.2771710  46.3388390  41.0212510  24.2216390
  45.7397280  41.7448310  24.0380010  46.8868000  40.9589290  23.4392840
  41.5489840  41.9134720  36.2886010  41.4533440  40.9729450  36.1386410
  42.3921820  42.1349790  35.8934080  44.9453260  39.6576050  26.2519670
  45.3382830  39.9748250  25.4388360  45.3070110  38.7787930  26.3664190
  43.2545430  38.4083360  37.5116530  42.5643750  38.2155560  38.1462620
  43.9977730  38.6918000  38.0440830  34.1687660  40.1896970  19.6852590
  34.0862330  41.1327730  19.8267580  33.8170720  40.0471880  18.8064940
  45.5308400  42.2481800  30.3470450  44.7989520  42.7568610  30.6960550
  45.1332740  41.4311780  30.0459230  41.9685790  38.9236000  28.7522940
  41.9721850  38.4825950  27.9027480  42.8636910  39.2453330  28.8594760
  37.8188170  38.8062490  27.7117150  37.4788220  39.2837720  28.4684200
  37.0565490  38.3527610  27.3518250  42.0305940  39.9248080  21.7429700
  42.1518760  39.8834560  22.6915520  41.6454450  40.7872230  21.5876430
  45.9934310  37.7015480  29.7593390  46.0107050  38.1524130  30.6035240
  45.7449890  36.8021120  29.9726830  41.0427440  42.2349220  21.1413000
  40.4744340  41.7867470  20.5148910  41.7516440  42.5942000  20.6078150
  49.4205060  35.1147660  35.5979770  49.7450830  34.3837320  36.1237750
  49.4561570  34.7961300  34.6960760  42.2693760  42.9837780  30.4988350
  42.6363890  42.5096350  31.2449690  42.0798820  43.8579350  30.8396690
  35.1334250  37.7281470  26.6281820  34.8481170  37.3637140  27.4660440
  35.0713110  36.9961930  26.0144960  40.0593130  42.0246420  32.8172560
  39.7550200  42.9038400  33.0422920  41.0139590  42.0846210  32.8530000
  38.5874920  46.2307410  23.4139410  37.8137180  45.6905030  23.2538130
  39.3169550  45.7114020  23.0757170  49.3462900  45.2272770  29.2065800
  50.0662020  45.7228060  28.8161910  49.1444720  44.5490660  28.5619670
  44.8072840  36.6210730  23.3495190  43.9937450  36.1223900  23.2740500
  44.6134790  37.4608980  22.9331540  44.7281700  45.2981830  35.0934800
  44.6619010  44.3777500  34.8392390  44.0986840  45.3957270  35.8079440
  47.5221230  40.9930380  21.6457350  48.4100850  41.3047610  21.4708690
  47.4926320  40.1202630  21.2537930  38.6312320  45.8987790  27.0518220
  39.1490990  45.0956050  26.9975110  38.1796340  45.8366930  27.8935050
  43.5181820  47.1654070  22.3245520  43.8597520  47.9096300  21.8288840
  42.6894530  47.4785190  22.6870350  39.3169980  43.3233400  36.8483470
  39.0170120  43.4690580  35.9511290  40.0881220  42.7638690  36.7556860
  44.6598430  48.1202400  34.8438600  44.6742970  47.1883360  34.6257510
  43.9523530  48.2062160  35.4828370  49.7935500  42.3042220  21.1137210
  49.7099220  42.7356440  20.2633650  50.5129690  42.7640570  21.5464030
  50.8709640  44.7609740  34.1907180  50.1457830  45.3538520  33.9936570
  51.3985100  44.7533280  33.3920550  50.8222750  49.1584480  23.8419340
  50.1798910  48.5040100  24.1163060  50.4353410  49.5639570  23.0660010
  46.4009230  46.4869910  27.6891030  46.7533050  45.8898040  27.0292400
  45.5171560  46.1614140  27.8599280  42.4872510  47.2467600  25.0961440
  43.1743640  47.7936810  25.4769030  41.7004930  47.7908330  25.1311050
  34.6264910  42.8640420  20.5878520  35.4959760  43.1465220  20.8714440
  34.1355230  43.6776290  20.4727330  41.7899720  44.2513630  24.7086800
  42.2462500  45.0618880  24.9346990  41.4387930  43.9336770  25.5405290
  44.0932330  49.7619970  31.9379100  44.7374550  49.9679350  32.6152520
  44.4561770  49.0008370  31.4849950  37.6911500  34.5951280  25.1809320
  37.5626130  34.5869180  26.1294240  36.8673520  34.9334370  24.8300330
  45.3664410  47.7652320  30.6556550  46.0086640  47.0645480  30.7688720
  45.8913760  48.5450760  30.4753440  49.2120130  48.0500940  20.3795690
  48.9857710  47.3331380  20.9720330  48.8216330  47.8013380  19.5417440
  47.1402030  48.5647220  33.8592610  47.4758270  49.1513910  34.5370530
  46.2202370  48.4339930  34.0890400  34.9936160  52.0767800  21.1540150
  35.3533800  52.6757140  20.4997420  34.8528500  52.6227690  21.9275180
  48.7936380  45.9672880  22.0409850  48.5058080  46.4285570  22.8287730
  49.5888550  45.5070650  22.3094070  34.9778020  50.3422660  35.6282550
  35.0869140  49.4017400  35.4877940  34.3258580  50.6077410  34.9796280
  42.9690610  48.6138550  37.0280670  42.6487480  47.8947790  37.5726360
  42.2948970  49.2893620  37.1016730  41.0104780  49.4599000  21.9713820
  41.0014880  50.1928690  21.3558330  40.0903140  49.2130580  22.0640780
  36.6111420  44.6813890  22.7160580  36.0039370  45.4212790  22.7255880
  37.0860770  44.7713250  21.8898780  46.1844210  38.8464710  32.3917470
  46.5525030  38.0259920  32.7197040  45.3242410  38.9066600  32.8073120
  49.5506240  37.8021650  23.2005030  48.9219400  37.9067320  22.4863260
  49.0558160  38.0218430  23.9898910  43.9964380  49.5227240  20.6339010
  44.0976360  49.3191230  19.7040990  43.0966120  49.2685520  20.8386790
  41.5190270  40.0807600  24.6162910  40.8106420  40.5493940  25.0576520
  41.8034750  39.4229610  25.2508100  43.1446200  41.5004300  32.6155440
  43.6431450  41.9750120  33.2807290  43.2869150  40.5767820  32.8225470
  45.5505700  36.8058260  26.0558700  45.4273480  36.8244390  25.1068210
  46.4990260  36.8537200  26.1757100  42.6382490  52.0413560  25.3286680
  42.8923990  52.0034950  24.4066050  41.6894970  51.9146890  25.3214930
  39.7225290  38.3892680  21.9913620  40.5715820  38.8262830  21.9253810
  39.3556560  38.7012940  22.8185680  50.3513060  37.7172260  33.4583830
  49.8486660  38.4577660  33.7977640  51.1669720  38.1056260  33.1420620
  48.6435070  42.9605440  26.9045190  47.7025210  42.9755670  27.0792880
  48.9579140  42.1741400  27.3505490  38.6216710  44.6425040  20.4649150
  39.3879980  44.5306400  21.0274580  38.6991400  43.9463010  19.8125920
  37.3163470  42.0750110  21.1482040  37.3967060  41.1277620  21.2599440
  38.2083220  42.4056990  21.2542700  50.6460650  50.1314290  28.5799450
  50.7708070  50.9545460  29.0523260  51.5126210  49.9205020  28.2323600
  38.1178180  52.2245500  28.2516580  38.8540660  51.6760960  28.5225150
  38.5019100  53.0901510  28.1122570  35.0023660  48.2919070  24.1258090
  34.0763440  48.5340210  24.1163500  35.4680090  49.1193330  24.0042840
  37.1236460  51.4091570  37.4402160  37.9249190  51.7303620  37.8537560
  36.6088280  51.0487150  38.1622070  41.2280490  51.3975810  20.0742150
  42.0209100  51.6864640  19.6223940  40.7084840  50.9667980  19.3954630
  45.9601090  47.5171440  37.3877570  45.3539250  47.5403040  36.6473320
  45.6555200  46.7854480  37.9244820  47.3901460  51.2451730  35.9986980
  48.3423210  51.1609750  35.9487220  47.2429680  51.9093440  36.6720770
  50.2810660  50.6245940  21.4978890  49.9952170  50.2111080  20.6833070
  50.0830210  51.5533650  21.3779410  41.7457890  46.6179220  19.9384500
  41.6408530  46.0031570  20.6645880  41.5782110  46.0945110  19.1547510
  41.8972210  45.3036020  35.9173730  41.1317880  45.8721020  35.8328400
  42.0788170  45.0112230  35.0241960  44.9860620  45.6799250  20.5426490
  44.4370720  46.1268550  21.1869230  45.6079880  45.1748500  21.0664160
  49.0395560  47.0341350  36.4748750  49.7805030  47.3717110  35.9716210
  48.2768240  47.2033410  35.9218520  40.6535740  44.6390170  22.4391790
  41.0752160  44.4730040  23.2823180  40.7786580  43.8290400  21.9446930
  43.1663380  43.6627780  19.6868890  43.6869040  42.9476800  19.3210040
  43.8131780  44.3013650  19.9869400  47.7141220  45.0856180  35.0103960
  48.1282240  45.2401260  35.8594380  46.7792220  45.2111400  35.1729740
  48.1863390  42.4252340  37.0143110  48.7684160  41.6704660  36.9263590
  48.3625160  42.9559780  36.2374590  42.0696900  36.1422330  32.3587450
  41.6214200  36.1646590  31.5133000  41.4362100  35.7441350  32.9557750
  42.4756450  45.0376660  32.9799890  42.8944560  45.8809390  32.8076130
  41.5565080  45.1748700  32.7506670  44.8120350  42.7692840  34.3637730
  44.9316560  42.1733980  35.1032570  45.6714350  42.8062530  33.9439030
  47.1508250  43.3230030  32.9400240  46.6243470  43.8472650  32.3365380
  47.4939590  43.9557420  33.5709970  39.5494640  40.7123400  19.3849950
  39.3483700  39.8490760  19.7463290  39.3786690  40.6256760  18.4471550
  40.3263870  51.3429670  34.0957620  39.7884960  52.0675730  33.7766320
  40.5797830  50.8660010  33.3054960  41.5789120  39.3114190  35.6213550
  42.1688810  39.0030040  36.3091370  40.7609360  38.8393940  35.7773450
  46.3982550  38.9280000  35.8546570  45.7098070  38.2661540  35.7896560
  47.1188570  38.4818270  36.2995030  47.0282950  35.5231630  21.9136830
  47.3085240  34.6799530  22.2696250  46.2548680  35.7554740  22.4275580
  38.3477440  37.8124020  19.3727830  38.6503340  37.8191450  18.4646980
  39.0872030  37.4621880  19.8695490  43.1826080  52.5780880  34.3544270
  43.1084780  53.4816020  34.6616640  42.2804920  52.2592780  34.3266340
  41.5662370  36.7558640  20.3584030  41.2184370  36.0782630  19.7786480
  41.7675140  36.2948150  21.1727420  43.7311410  51.7439390  21.9770630
  44.6262200  52.0824360  21.9989390  43.7629040  51.0218800  21.3494910
  37.3707570  47.1166440  20.2057630  37.8082440  47.6596110  20.8615210
  37.8555300  46.2913390  20.2153970  39.1815290  48.2364480  25.3179860
  38.8810830  48.1129450  26.2183770  39.0752780  47.3773070  24.9095590
  50.7105760  50.2743060  34.6836830  50.1107750  50.3335620  33.9400750
  50.8399660  49.3348040  34.8133680  51.9507210  48.0160880  20.0206540
  51.1200170  48.0837530  20.4913770  52.1279040  48.9065000  19.7173400
  51.4063670  44.7608360  22.5240740  52.1682580  45.3305010  22.6300430
  51.4218040  44.1935560  23.2949050  34.9068010  43.2846290  26.7548400
  34.2516850  43.0157930  26.1108100  35.7445960  43.1750770  26.3050380
  52.4123640  45.6158460  27.3682670  52.7832470  44.8325780  26.9618640
  53.0525570  46.3047560  27.1899970  49.3957400  46.9995040  32.7812990
  48.5817240  47.4292200  33.0438780  49.8031600  47.6113450  32.1682040
  51.4582840  45.0542730  19.6813260  51.7331680  45.9621610  19.5532480
  51.2693580  44.9905260  20.6175250  47.8558450  38.0787580  20.9766890
  48.2743330  37.8918560  20.1363550  47.5494510  37.2266630  21.2869820
  51.3548180  42.9911720  24.6742690  50.9791780  42.2239650  24.2423980
  50.6251300  43.3734420  25.1617620  35.9443940  43.6698860  31.2951740
  36.3116980  43.5826260  32.1747760  35.3754760  42.9065410  31.1958600
  50.7447800  42.1383240  34.3082210  50.5133890  41.9095990  33.4080160
  51.0052350  43.0582790  34.2627100  49.1835870  37.3639670  37.0861910
  50.0606050  37.3723070  37.4695910  49.1956710  36.6270510  36.4754260
  34.1206090  40.4945220  22.6973730  33.2170170  40.7575420  22.5225390
  34.6046710  40.7656390  21.9173690  50.6299140  41.2169210  27.9749930
  51.1536620  40.7231860  27.3440100  51.2158560  41.3519570  28.7197500
  50.8088860  41.3009080  31.4969480  49.8591570  41.2672620  31.6114470
  50.9901870  42.2109190  31.2619250  36.6633300  39.5510760  20.6068110
  37.3725000  39.1293980  20.1215390  35.9473240  39.6185990  19.9751460
  36.3107460  35.6050090  19.6470760  37.0335590  36.1459030  19.9651980
  36.5831980  35.3313510  18.7712300  50.1199110  40.4742560  23.9142340
  50.6158230  40.2413430  24.6991220  49.9215180  39.6354400  23.4979980
  51.5486270  39.1103510  26.4480020  51.4385550  38.9559550  27.3862290
  52.3093860  38.5824450  26.2055430  49.8951990  35.0497640  32.9063020
  50.5324210  35.6631780  33.2722210  50.0426880  35.0858300  31.9612250
  52.4376540  36.9411430  19.6886160  53.3625850  36.8092610  19.4804450
  52.4152330  37.0204250  20.6422610  52.5115030  37.7122090  22.3142870
  51.7166530  37.6467210  22.8435780  52.7158310  38.6472730  22.3028220
  49.4533450  51.7513640  26.3081260  50.0492520  51.4298210  25.6315680
  49.7111600  51.2785460  27.0994530  37.3596020  48.1831550  36.4571890
  37.3165650  47.8124460  37.3386350  37.4907030  49.1209120  36.5973710
  41.0602050  49.7391140  32.0581610  40.8193410  50.0065700  31.1712130
  42.0004690  49.9096870  32.1132470  43.2656470  36.2023830  35.8138120
  43.2045360  36.7945660  36.5633530  44.2056850  36.0949790  35.6688380
  45.9031030  35.8593890  35.4530410  46.5171440  36.1773180  34.7911490
  46.4480590  35.3742480  36.0726270  52.3206210  51.7585520  32.8592250
  51.8264490  52.1554390  32.1419380  51.7119500  51.1334730  33.2529530
  37.1984050  51.1293800  33.5769670  36.6044370  50.9978500  34.3159710
  37.1907890  50.2931940  33.1111770  46.6439070  34.4226030  31.7799700
  45.7698910  34.7561140  31.5772630  46.5349820  33.9499210  32.6051570
  47.5511050  36.6296900  33.1641420  47.2224410  35.8148660  32.7843150
  48.4993350  36.5866710  33.0407110  50.0045660  52.4008940  30.1378990
  49.5448630  53.1524750  29.7637010  49.3758120  51.6815410  30.0793790
  40.4341380  50.7097180  29.3127120  40.9506400  50.0984540  28.7875380
  41.0838760  51.2125960  29.8038130  43.1736880  51.6005670  30.1396100
  43.4614690  51.3459970  29.2629110  43.6860100  51.0483030  30.7301670
  44.3913890  35.3395870  30.7192610  43.6085680  35.8141370  30.9989370
  44.0976820  34.4350700  30.6105790  48.9434960  36.0418970  28.7641700
  49.3843050  35.9864070  27.9163300  48.6742550  36.9576980  28.8351880
  50.8073530  35.6734210  26.7750520  50.7461930  34.7295430  26.6281540
  51.5865560  35.7814300  27.3203980  35.1126280  51.8126570  25.7374470
  34.9448320  51.1797250  26.4356360  34.2460790  52.0185970  25.3868660
  35.7354300  35.6443350  23.2406330  36.4933660  35.7572230  22.6670360
  35.2731470  36.4812550  23.1949760  42.2768110  37.7582620  26.2308640
  41.4642620  37.3839510  25.8904520  42.7809750  37.0027700  26.5329830
  46.7793090  34.4225070  27.4691710  47.3822460  34.9945280  27.9440230
  46.0386080  34.9864510  27.2465610  49.9227690  34.8246630  22.7431990
  50.1178320  35.7230080  23.0099420  49.1357560  34.5933710  23.2364940
  36.7188980  50.5059800  23.1824610  36.1936600  50.8867830  22.4786570
  36.6433560  51.1310570  23.9034320  38.1079450  36.1707400  21.7808300
  38.6372210  35.3837200  21.6516250  38.7407770  36.8498590  22.0143830
  40.3017290  35.9082540  24.8353690  39.6720030  35.2069850  25.0023820
  39.7622430  36.6686670  24.6186850  43.2409240  52.5221770  37.5064300
  44.1676550  52.2866040  37.5500260  43.2259670  53.3493770  37.0250330
  51.4754300  52.0647340  24.5038550  51.6506490  51.3785080  23.8599470
  50.7775870  52.5894390  24.1115220  39.3181950  52.4542180  22.0573860
  40.0500770  52.1701460  21.5097750  39.5775620  52.2155460  22.9473240
  38.4796740  48.5706910  22.0620190  37.8505620  49.0392010  22.6106020
  38.5944570  47.7256130  22.4966380  47.0288310  34.6020100  37.8486650
  46.9153760  34.9214710  38.7438170  47.8458050  35.0032610  37.5523930
  49.8086800  51.7491630  37.3305340  50.6012120  51.2540860  37.1231300
  50.1019950  52.4281770  37.9380950  45.9346460  42.6212570   8.2121390
  45.8540510  41.7067180   7.9413100  45.5210880  43.1179640   7.5061100
  44.0664500  44.3991590  10.0930660  43.2906600  43.9192030  10.3829230
  44.7177430  43.7197240   9.9186820  38.0830330  44.7111400  10.9706420
  37.2515210  44.4560110  11.3702930  38.6911310  44.7822170  11.7064340
  48.0871930  48.8051780   8.8729790  47.6253460  48.0339020   9.2016960
  48.8997480  48.8317850   9.3782240  38.0631590  48.7451490  11.1664440
  38.3659630  47.8549230  10.9874660  38.8075180  49.3021710  10.9386690
  36.4922280  39.6713290   4.7548810  35.6038980  40.0129260   4.6528690
  36.7763470  39.4713610   3.8629640  34.4555290  42.2718940  10.6388510
  35.0271400  41.5041140  10.6392150  34.4556830  42.5707700   9.7295120
  44.3135240  51.0909790   8.4933780  43.6946680  51.5467290   7.9228220
  45.1687020  51.2461250   8.0923480  43.5073490  47.0748780  10.1000820
  43.4381770  46.1338720   9.9389950  44.2693350  47.1650190  10.6723390
  35.6980160  37.6803300  12.4257440  35.5183000  36.7829050  12.7060200
  35.2960240  38.2275170  13.1004390  44.5378660  39.8819160  10.3269750
  44.9143480  39.0091040  10.2143420  44.4398170  40.2177860   9.4360190
  38.6683670  38.2544790   5.7887190  38.7750420  39.1548520   6.0955950
  37.7576030  38.2062760   5.4981840  48.3202780  37.3769600   7.2598090
  49.1412400  36.8866170   7.3023570  48.3536860  37.9667260   8.0129930
  36.3166830  40.1763800  11.0339780  36.9976940  40.4402170  11.6527180
  36.0014880  39.3364670  11.3677790  40.5091400  41.2231160  10.1212370
  41.0169620  41.7212130  10.7617390  41.0404640  40.4466360   9.9451730
  52.6102330  39.3936350  13.8241720  51.9054500  39.7818060  13.3056830
  52.8760250  40.0886640  14.4262650  38.7927500  35.8629720  14.3875790
  38.7945940  36.3802110  13.5821690  37.9631810  35.3859900  14.3645720
  45.1798590  45.9749030   5.8865690  44.5615860  46.4398480   5.3228410
  45.6921840  46.6676510   6.3035200  40.0430350  45.5024900  12.5649290
  39.7099730  46.1293820  13.2070360  40.2197030  46.0286780  11.7850960
  48.5564260  39.3169980  10.0325630  47.8519830  39.6054870  10.6128740
  48.9176420  40.1270090   9.6725190  38.4742830  37.5739680  12.3946240
  38.8159640  38.4181730  12.1000110  37.5358640  37.7223420  12.5111580
  39.2549450  47.4705700  14.3798470  39.8723450  48.1456780  14.0982920
  38.3942570  47.8793680  14.2885970  34.5481790  46.6605560   3.2605320
  34.1709770  47.1492660   2.5290220  34.8054860  47.3330840   3.8911850
  50.1727040  48.9345110  12.2953110  49.4890560  49.6044220  12.2869780
  50.7121330  49.1325760  11.5297970  51.6251180  38.7624770  10.4234840
  50.6776090  38.7963750  10.5550270  51.9501170  39.5763720  10.8084200
  42.1570720  35.0621950   8.7190830  42.4645700  34.5068840   8.0026330
  41.2271420  35.1966410   8.5363820  47.7085780  50.7789240  11.0098290
  47.7212940  50.3751530  10.1420550  47.1561000  51.5536530  10.9059720
  49.0031200  47.5005460   6.0988460  48.8927530  46.5579790   6.2237880
  48.9999450  47.8621100   6.9851220  47.1071220  45.6819080  12.3380900
  47.5240010  45.4679190  11.5034360  47.8311040  45.9391870  12.9089520
  44.5451480  43.1270780   5.4550950  43.6180760  43.0608160   5.6839420
  44.6976300  44.0650910   5.3406190  44.5320560  39.3987780   2.4518110
  43.5924230  39.5601740   2.5370570  44.8503820  40.1173460   1.9054100
  51.0533320  44.0806300  12.4297140  50.2251950  44.1499390  11.9547270
  51.6483800  44.6660610  11.9612970  48.5748770  44.6891080   5.9586200
  47.9561190  44.3510630   5.3112500  48.5573220  44.0450840   6.6665390
  48.0175330  40.8675620  13.3752010  47.6046510  41.6929330  13.6292000
  47.2851280  40.2820660  13.1828370  40.1508120  43.6535520   8.2370680
  39.7465120  42.9412770   7.7416580  40.2371240  43.3088760   9.1258720
  40.6189820  47.3403080  10.4009890  40.3218110  46.7348550   9.7217670
  41.5689640  47.3780390  10.2899250  38.8636740  40.4278730  12.0169720
  39.4151330  40.5374070  11.2422970  39.3780250  40.8016330  12.7324950
  48.7075430  50.9134950  14.0632990  48.2305990  51.7207140  13.8705600
  48.0237220  50.2613280  14.2159200  39.7108250  47.0784770  17.0517690
  38.8136780  47.3024740  17.2991090  39.7361120  47.2019710  16.1029090
  46.7513470  43.9277890   2.9658950  47.1906750  43.0900320   2.8196770
  47.4641890  44.5607290   3.0523090  38.5379470  43.9498090  15.6275060
  38.3987240  44.8220890  15.9962460  37.6560830  43.6070900  15.4823000
  44.8608850  48.8673960   6.9340190  45.3004760  49.6098290   6.5195580
  44.7995740  49.1100530   7.8579150  40.3359820  49.8919790  17.8360210
  40.3075250  50.2962740  16.9688640  40.1724790  48.9630150  17.6731810
  36.8512750  42.5480500   5.7377330  36.7310350  43.2742590   5.1258600
  36.5413640  41.7783410   5.2605240  52.2874640  50.6746890  19.1324380
  52.7634360  51.1529780  19.8113460  52.9081800  50.6064380  18.4069880
  34.4898120  45.7195640  11.5445970  34.5678540  45.8544410  10.6001690
  35.1039800  45.0111530  11.7374090  35.7345750  47.4195830   7.9552150
  35.3273830  47.5610420   7.1005750  36.6258760  47.1355990   7.7523360
  51.6907890  47.8659740  16.2924390  51.8170950  47.6271620  15.3741570
  51.7329270  47.0344280  16.7646470  45.5524630  51.5687740  14.8619200
  46.0669300  51.4795750  15.6641630  44.7093710  51.9147440  15.1547110
  47.5279030  51.8543080   4.2903200  47.3680170  51.5646020   5.1885030
  47.3625740  51.0783210   3.7548430  40.0067410  51.6341610   6.0674820
  39.8309890  50.7177150   5.8542620  39.1523150  51.9928900   6.3072620
  47.2305160  49.3630640   2.8501200  46.5370320  49.3607930   2.1903480
  47.9728020  48.9389960   2.4195370  46.7955090  50.9893350   6.9249690
  47.2512040  50.2082730   7.2388310  47.1347610  51.7000170   7.4690870
  51.5431900  39.9192200  17.2574130  50.9276170  40.4271870  16.7289590
  51.2228320  39.0190530  17.2000070  34.5457640  46.7609810  14.0840430
  34.7088680  46.2915170  13.2659800  35.0110090  46.2533370  14.7489270
  39.3176410  35.8915570   9.1201000  38.8744560  36.6725110   8.7885520
  39.8761400  36.2145460   9.8271940  43.6046220  38.7584090  14.7236320
  43.1425590  38.9667110  15.5356260  43.2024330  37.9443440  14.4206990
  48.6050730  39.9793040  15.8532980  47.7544320  39.6798790  16.1742050
  48.4452520  40.2235050  14.9416800  45.7000440  41.4794790  17.9531770
  46.0253850  40.6458540  17.6134000  46.4880770  42.0023310  18.1010100
  42.4335230  35.5126270   4.0006830  41.8089410  35.5086140   4.7260140
  42.3465350  34.6457230   3.6042800  41.3552310  36.4362900  10.9790600
  41.6524640  37.3425730  10.8982620  41.9037870  35.9481680  10.3650170
  39.1090630  41.0149140   6.8482250  38.8831550  40.7986310   7.7528870
  38.3283160  41.4477600   6.5028220  46.3388390  41.0212510   5.4472900
  45.7397280  41.7448310   5.2636520  46.8868000  40.9589290   4.6649350
  41.5489840  41.9134720  17.5142520  41.4533440  40.9729450  17.3642920
  42.3921820  42.1349790  17.1190590  44.9453260  39.6576050   7.4776180
  45.3382830  39.9748250   6.6644870  45.3070110  38.7787930   7.5920700
  36.6800380  38.3248390  15.6676300  36.2863770  39.1723600  15.8749080
  35.9918780  37.6874760  15.8584940  43.2545430  38.4083360  18.7373040
  42.5643750  38.2155560  19.3719130  43.9977730  38.6918000  19.2697340
  33.9817430  36.2476850   9.7006380  33.6930480  36.8179710  10.4131360
  34.7263190  35.7681300  10.0637610  45.5308400  42.2481800  11.5726960
  44.7989520  42.7568610  11.9217060  45.1332740  41.4311780  11.2715740
  41.9685790  38.9236000   9.9779450  41.9721850  38.4825950   9.1283990
  42.8636910  39.2453330  10.0851270  37.8188170  38.8062490   8.9373660
  37.4788220  39.2837720   9.6940710  37.0565490  38.3527610   8.5774760
  42.0305940  39.9248080   2.9686210  42.1518760  39.8834560   3.9172030
  41.6454450  40.7872230   2.8132940  45.9934310  37.7015480  10.9849900
  46.0107050  38.1524130  11.8291750  45.7449890  36.8021120  11.1983340
  41.0427440  42.2349220   2.3669510  40.4744340  41.7867470   1.7405420
  41.7516440  42.5942000   1.8334660  49.4205060  35.1147660  16.8236280
  49.7450830  34.3837320  17.3494260  49.4561570  34.7961300  15.9217270
  36.1196620  46.1361240  16.2436240  35.7351410  45.4954910  16.8419200
  36.4308810  46.8397360  16.8130970  42.2693760  42.9837780  11.7244860
  42.6363890  42.5096350  12.4706200  42.0798820  43.8579350  12.0653200
  35.1334250  37.7281470   7.8538330  34.8481170  37.3637140   8.6916950
  35.0713110  36.9961930   7.2401470  40.0593130  42.0246420  14.0429070
  39.7550200  42.9038400  14.2679430  41.0139590  42.0846210  14.0786510
  38.5874920  46.2307410   4.6395920  37.8137180  45.6905030   4.4794640
  39.3169550  45.7114020   4.3013680  49.3462900  45.2272770  10.4322310
  50.0662020  45.7228060  10.0418420  49.1444720  44.5490660   9.7876180
  44.8072840  36.6210730   4.5751700  43.9937450  36.1223900   4.4997010
  44.6134790  37.4608980   4.1588050  44.7281700  45.2981830  16.3191310
  44.6619010  44.3777500  16.0648900  44.0986840  45.3957270  17.0335950
  47.5221230  40.9930380   2.8713860  48.4100850  41.3047610   2.6965200
  47.4926320  40.1202630   2.4794440  38.6312320  45.8987790   8.2774730
  39.1490990  45.0956050   8.2231620  38.1796340  45.8366930   9.1191560
  43.5181820  47.1654070   3.5502030  43.8597520  47.9096300   3.0545350
  42.6894530  47.4785190   3.9126860  36.1156860  42.8649160  15.1900430
  35.7571800  43.5303010  15.7773770  35.8211420  42.0332710  15.5613050
  39.3169980  43.3233400  18.0739980  39.0170120  43.4690580  17.1767800
  40.0881220  42.7638690  17.9813370  44.6598430  48.1202400  16.0695110
  44.6742970  47.1883360  15.8514020  43.9523530  48.2062160  16.7084880
  50.8709640  44.7609740  15.4163690  50.1457830  45.3538520  15.2193080
  51.3985100  44.7533280  14.6177060  50.8222750  49.1584480   5.0675850
  50.1798910  48.5040100   5.3419570  50.4353410  49.5639570   4.2916520
  46.4009230  46.4869910   8.9147540  46.7533050  45.8898040   8.2548910
  45.5171560  46.1614140   9.0855790  42.4872510  47.2467600   6.3217950
  43.1743640  47.7936810   6.7025540  41.7004930  47.7908330   6.3567560
  34.6264910  42.8640420   1.8135030  35.4959760  43.1465220   2.0970950
  34.1355230  43.6776290   1.6983840  41.7899720  44.2513630   5.9343310
  42.2462500  45.0618880   6.1603500  41.4387930  43.9336770   6.7661800
  44.0932330  49.7619970  13.1635610  44.7374550  49.9679350  13.8409030
  44.4561770  49.0008370  12.7106460  37.6911500  34.5951280   6.4065830
  37.5626130  34.5869180   7.3550750  36.8673520  34.9334370   6.0556840
  45.3664410  47.7652320  11.8813060  46.0086640  47.0645480  11.9945230
  45.8913760  48.5450760  11.7009950  47.1402030  48.5647220  15.0849120
  47.4758270  49.1513910  15.7627040  46.2202370  48.4339930  15.3146910
  34.9936160  52.0767800   2.3796660  35.3533800  52.6757140   1.7253930
  34.8528500  52.6227690   3.1531690  34.6905430  36.3542400  15.8672530
  33.9763950  36.5539320  16.4725140  35.1100470  35.5781970  16.2387330
  48.7936380  45.9672880   3.2666360  48.5058080  46.4285570   4.0544240
  49.5888550  45.5070650   3.5350580  34.9778020  50.3422660  16.8539060
  35.0869140  49.4017400  16.7134450  34.3258580  50.6077410  16.2052790
  42.9690610  48.6138550  18.2537180  42.6487480  47.8947790  18.7982870
  42.2948970  49.2893620  18.3273240  41.0104780  49.4599000   3.1970330
  41.0014880  50.1928690   2.5814840  40.0903140  49.2130580   3.2897290
  36.6111420  44.6813890   3.9417090  36.0039370  45.4212790   3.9512390
  37.0860770  44.7713250   3.1155290  46.1844210  38.8464710  13.6173980
  46.5525030  38.0259920  13.9453550  45.3242410  38.9066600  14.0329630
  49.5506240  37.8021650   4.4261540  48.9219400  37.9067320   3.7119770
  49.0558160  38.0218430   5.2155420  41.5190270  40.0807600   5.8419420
  40.8106420  40.5493940   6.2833030  41.8034750  39.4229610   6.4764610
  43.1446200  41.5004300  13.8411950  43.6431450  41.9750120  14.5063800
  43.2869150  40.5767820  14.0481980  45.5505700  36.8058260   7.2815210
  45.4273480  36.8244390   6.3324720  46.4990260  36.8537200   7.4013610
  42.6382490  52.0413560   6.5543190  42.8923990  52.0034950   5.6322560
  41.6894970  51.9146890   6.5471440  39.7225290  38.3892680   3.2170130
  40.5715820  38.8262830   3.1510320  39.3556560  38.7012940   4.0442190
  50.3513060  37.7172260  14.6840340  49.8486660  38.4577660  15.0234150
  51.1669720  38.1056260  14.3677130  48.6435070  42.9605440   8.1301700
  47.7025210  42.9755670   8.3049390  48.9579140  42.1741400   8.5762000
  37.3163470  42.0750110   2.3738550  37.3967060  41.1277620   2.4855950
  38.2083220  42.4056990   2.4799210  50.6460650  50.1314290   9.8055960
  50.7708070  50.9545460  10.2779770  51.5126210  49.9205020   9.4580110
  38.1178180  52.2245500   9.4773090  38.8540660  51.6760960   9.7481660
  38.5019100  53.0901510   9.3379080  35.0023660  48.2919070   5.3514600
  34.0763440  48.5340210   5.3420010  35.4680090  49.1193330   5.2299350
  37.1236460  51.4091570  18.6658670  37.9249190  51.7303620  19.0794070
  36.6088280  51.0487150  19.3878580  45.9601090  47.5171440  18.6134080
  45.3539250  47.5403040  17.8729830  45.6555200  46.7854480  19.1501330
  47.3901460  51.2451730  17.2243490  48.3423210  51.1609750  17.1743730
  47.2429680  51.9093440  17.8977280  50.2810660  50.6245940   2.7235400
  49.9952170  50.2111080   1.9089580  50.0830210  51.5533650   2.6035920
  34.8434270  43.8965030  17.6094720  35.3473290  43.3172310  18.1810950
  34.1041690  44.1805260  18.1471090  41.8972210  45.3036020  17.1430240
  41.1317880  45.8721020  17.0584910  42.0788170  45.0112230  16.2498470
  44.9860620  45.6799250   1.7683000  44.4370720  46.1268550   2.4125740
  45.6079880  45.1748500   2.2920670  49.0395560  47.0341350  17.7005260
  49.7805030  47.3717110  17.1972720  48.2768240  47.2033410  17.1475030
  36.8757350  42.0394620  18.5044790  36.9162690  41.7408490  19.4130020
  37.7302850  42.4402230  18.3452310  40.6535740  44.6390170   3.6648300
  41.0752160  44.4730040   4.5079690  40.7786580  43.8290400   3.1703440
  38.8163160  40.6186720  16.4719280  38.2859620  40.1277670  15.8442620
  39.4851230  41.0470920  15.9377210  47.7141220  45.0856180  16.2360470
  48.1282240  45.2401260  17.0850890  46.7792220  45.2111400  16.3986250
  48.1863390  42.4252340  18.2399620  48.7684160  41.6704660  18.1520100
  48.3625160  42.9559780  17.4631100  39.3035460  37.5849090  16.5516570
  39.2092330  36.9669840  15.8267440  38.7232850  38.3115380  16.3246480
  42.0696900  36.1422330  13.5843960  41.6214200  36.1646590  12.7389510
  41.4362100  35.7441350  14.1814260  42.4756450  45.0376660  14.2056400
  42.8944560  45.8809390  14.0332640  41.5565080  45.1748700  13.9763180
  44.8120350  42.7692840  15.5894240  44.9316560  42.1733980  16.3289080
  45.6714350  42.8062530  15.1695540  47.1508250  43.3230030  14.1656750
  46.6243470  43.8472650  13.5621890  47.4939590  43.9557420  14.7966480
  40.3263870  51.3429670  15.3214130  39.7884960  52.0675730  15.0022830
  40.5797830  50.8660010  14.5311470  41.5789120  39.3114190  16.8470060
  42.1688810  39.0030040  17.5347880  40.7609360  38.8393940  17.0029960
  46.3982550  38.9280000  17.0803080  45.7098070  38.2661540  17.0153070
  47.1188570  38.4818270  17.5251540  47.0282950  35.5231630   3.1393340
  47.3085240  34.6799530   3.4952760  46.2548680  35.7554740   3.6532090
  43.1826080  52.5780880  15.5800780  43.1084780  53.4816020  15.8873150
  42.2804920  52.2592780  15.5522850  43.7311410  51.7439390   3.2027140
  44.6262200  52.0824360   3.2245900  43.7629040  51.0218800   2.5751420
  34.5853370  49.9055470   8.8834400  34.9156380  49.0376530   8.6513040
  35.0144370  50.1113990   9.7139360  39.1815290  48.2364480   6.5436370
  38.8810830  48.1129450   7.4440280  39.0752780  47.3773070   6.1352100
  35.0743580  50.7726060  11.6216030  34.6374570  50.9526860  12.4540180
  35.6421260  51.5300680  11.4797750  50.7105760  50.2743060  15.9093340
  50.1107750  50.3335620  15.1657260  50.8399660  49.3348040  16.0390190
  51.4063670  44.7608360   3.7497250  52.1682580  45.3305010   3.8556940
  51.4218040  44.1935560   4.5205560  34.9068010  43.2846290   7.9804910
  34.2516850  43.0157930   7.3364610  35.7445960  43.1750770   7.5306890
  52.4123640  45.6158460   8.5939180  52.7832470  44.8325780   8.1875150
  53.0525570  46.3047560   8.4156480  49.3957400  46.9995040  14.0069500
  48.5817240  47.4292200  14.2695290  49.8031600  47.6113450  13.3938550
  51.3548180  42.9911720   5.8999200  50.9791780  42.2239650   5.4680490
  50.6251300  43.3734420   6.3874130  35.9443940  43.6698860  12.5208250
  36.3116980  43.5826260  13.4004270  35.3754760  42.9065410  12.4215110
  50.7447800  42.1383240  15.5338720  50.5133890  41.9095990  14.6336670
  51.0052350  43.0582790  15.4883610  35.4959940  40.5807950  16.4266670
  34.6015990  40.5474710  16.7660380  36.0357490  40.7794740  17.1917920
  49.1835870  37.3639670  18.3118420  50.0606050  37.3723070  18.6952420
  49.1956710  36.6270510  17.7010770  34.1206090  40.4945220   3.9230240
  33.2170170  40.7575420   3.7481900  34.6046710  40.7656390   3.1430200
  50.6299140  41.2169210   9.2006440  51.1536620  40.7231860   8.5696610
  51.2158560  41.3519570   9.9454010  50.8088860  41.3009080  12.7225990
  49.8591570  41.2672620  12.8370980  50.9901870  42.2109190  12.4875760
  50.1199110  40.4742560   5.1398850  50.6158230  40.2413430   5.9247730
  49.9215180  39.6354400   4.7236490  35.9999650  34.8556280  10.7749890
  36.6475840  34.3053660  10.3345050  36.4201490  35.1099430  11.5965700
  51.5486270  39.1103510   7.6736530  51.4385550  38.9559550   8.6118800
  52.3093860  38.5824450   7.4311940  49.8951990  35.0497640  14.1319530
  50.5324210  35.6631780  14.4978720  50.0426880  35.0858300  13.1868760
  52.5115030  37.7122090   3.5399380  51.7166530  37.6467210   4.0692290
  52.7158310  38.6472730   3.5284730  49.4533450  51.7513640   7.5337770
  50.0492520  51.4298210   6.8572190  49.7111600  51.2785460   8.3251040
  35.7531650  35.0111950  13.5175210  35.4046470  35.4675770  14.2833390
  35.4219350  34.1169080  13.5997640  37.3596020  48.1831550  17.6828400
  37.3165650  47.8124460  18.5642860  37.4907030  49.1209120  17.8230220
  41.0602050  49.7391140  13.2838120  40.8193410  50.0065700  12.3968640
  42.0004690  49.9096870  13.3388980  43.2656470  36.2023830  17.0394630
  43.2045360  36.7945660  17.7890040  44.2056850  36.0949790  16.8944890
  45.9031030  35.8593890  16.6786920  46.5171440  36.1773180  16.0168000
  46.4480590  35.3742480  17.2982780  52.3206210  51.7585520  14.0848760
  51.8264490  52.1554390  13.3675890  51.7119500  51.1334730  14.4786040
  36.4252290  34.5388150  16.7925980  36.9735280  34.3576200  16.0292090
  36.4907600  33.7482260  17.3282290  37.1984050  51.1293800  14.8026180
  36.6044370  50.9978500  15.5416220  37.1907890  50.2931940  14.3368280
  46.6439070  34.4226030  13.0056210  45.7698910  34.7561140  12.8029140
  46.5349820  33.9499210  13.8308080  47.5511050  36.6296900  14.3897930
  47.2224410  35.8148660  14.0099660  48.4993350  36.5866710  14.2663620
  50.0045660  52.4008940  11.3635500  49.5448630  53.1524750  10.9893520
  49.3758120  51.6815410  11.3050300  36.8296280  48.4952180  13.7534220
  36.1030340  47.8757470  13.6860170  36.8905430  48.8892790  12.8832300
  40.4341380  50.7097180  10.5383630  40.9506400  50.0984540  10.0131890
  41.0838760  51.2125960  11.0294640  43.1736880  51.6005670  11.3652610
  43.4614690  51.3459970  10.4885620  43.6860100  51.0483030  11.9558180
  44.3913890  35.3395870  11.9449120  43.6085680  35.8141370  12.2245880
  44.0976820  34.4350700  11.8362300  48.9434960  36.0418970   9.9898210
  49.3843050  35.9864070   9.1419810  48.6742550  36.9576980  10.0608390
  50.8073530  35.6734210   8.0007030  50.7461930  34.7295430   7.8538050
  51.5865560  35.7814300   8.5460490  35.1126280  51.8126570   6.9630980
  34.9448320  51.1797250   7.6612870  34.2460790  52.0185970   6.6125170
  35.7354300  35.6443350   4.4662840  36.4933660  35.7572230   3.8926870
  35.2731470  36.4812550   4.4206270  42.2768110  37.7582620   7.4565150
  41.4642620  37.3839510   7.1161030  42.7809750  37.0027700   7.7586340
  46.7793090  34.4225070   8.6948220  47.3822460  34.9945280   9.1696740
  46.0386080  34.9864510   8.4722120  49.9227690  34.8246630   3.9688500
  50.1178320  35.7230080   4.2355930  49.1357560  34.5933710   4.4621450
  36.7188980  50.5059800   4.4081120  36.1936600  50.8867830   3.7043080
  36.6433560  51.1310570   5.1290830  38.1079450  36.1707400   3.0064810
  38.6372210  35.3837200   2.8772760  38.7407770  36.8498590   3.2400340
  40.3017290  35.9082540   6.0610200  39.6720030  35.2069850   6.2280330
  39.7622430  36.6686670   5.8443360  43.2409240  52.5221770  18.7320810
  44.1676550  52.2866040  18.7756770  43.2259670  53.3493770  18.2506840
  51.4754300  52.0647340   5.7295060  51.6506490  51.3785080   5.0855980
  50.7775870  52.5894390   5.3371730  40.4272850  35.1866520  18.4962690
  40.1457120  35.6900120  17.7323510  40.8092550  34.3888270  18.1304820
  39.3181950  52.4542180   3.2830370  40.0500770  52.1701460   2.7354260
  39.5775620  52.2155460   4.1729750  38.4796740  48.5706910   3.2876700
  37.8505620  49.0392010   3.8362530  38.5944570  47.7256130   3.7222890
  47.0288310  34.6020100  19.0743160  46.9153760  34.9214710  19.9694680
  47.8458050  35.0032610  18.7780440  49.8086800  51.7491630  18.5561850
  50.6012120  51.2540860  18.3487810  50.1019950  52.4281770  19.1637460
  45.9346460  23.8469080  45.7608370  45.8540510  22.9323690  45.4900080
  45.5210880  24.3436150  45.0548080  44.0664500  25.6248100  47.6417640
  43.2906600  25.1448540  47.9316210  44.7177430  24.9453750  47.4673800
  38.0830330  25.9367910  48.5193400  37.2515210  25.6816620  48.9189910
  38.6911310  26.0078680  49.2551320  48.0871930  30.0308290  46.4216770
  47.6253460  29.2595530  46.7503940  48.8997480  30.0574360  46.9269220
  38.0631590  29.9708000  48.7151420  38.3659630  29.0805740  48.5361640
  38.8075180  30.5278220  48.4873670  36.4922280  20.8969800  42.3035790
  35.6038980  21.2385770  42.2015670  36.7763470  20.6970120  41.4116620
  34.4555290  23.4975450  48.1875490  35.0271400  22.7297650  48.1879130
  34.4556830  23.7964210  47.2782100  44.3135240  32.3166300  46.0420760
  43.6946680  32.7723800  45.4715200  45.1687020  32.4717760  45.6410460
  43.5073490  28.3005290  47.6487800  43.4381770  27.3595230  47.4876930
  44.2693350  28.3906700  48.2210370  35.6980160  18.9059810  49.9744420
  35.5183000  18.0085560  50.2547180  35.2960240  19.4531680  50.6491370
  44.5378660  21.1075670  47.8756730  44.9143480  20.2347550  47.7630400
  44.4398170  21.4434370  46.9847170  38.6683670  19.4801300  43.3374170
  38.7750420  20.3805030  43.6442930  37.7576030  19.4319270  43.0468820
  48.3202780  18.6026110  44.8085070  49.1412400  18.1122680  44.8510550
  48.3536860  19.1923770  45.5616910  36.3166830  21.4020310  48.5826760
  36.9976940  21.6658680  49.2014160  36.0014880  20.5621180  48.9164770
  40.5091400  22.4487670  47.6699350  41.0169620  22.9468640  48.3104370
  41.0404640  21.6722870  47.4938710  52.6102330  20.6192860  51.3728700
  51.9054500  21.0074570  50.8543810  52.8760250  21.3143150  51.9749630
  38.7927500  17.0886230  51.9362770  38.7945940  17.6058620  51.1308670
  37.9631810  16.6116410  51.9132700  45.1798590  27.2005540  43.4352670
  44.5615860  27.6654990  42.8715390  45.6921840  27.8933020  43.8522180
  40.0430350  26.7281410  50.1136270  39.7099730  27.3550330  50.7557340
  40.2197030  27.2543290  49.3337940  48.5564260  20.5426490  47.5812610
  47.8519830  20.8311380  48.1615720  48.9176420  21.3526600  47.2212170
  38.4742830  18.7996190  49.9433220  38.8159640  19.6438240  49.6487090
  37.5358640  18.9479930  50.0598560  39.2549450  28.6962210  51.9285450
  39.8723450  29.3713290  51.6469900  38.3942570  29.1050190  51.8372950
  34.5481790  27.8862070  40.8092300  34.1709770  28.3749170  40.0777200
  34.8054860  28.5587350  41.4398830  50.1727040  30.1601620  49.8440090
  49.4890560  30.8300730  49.8356760  50.7121330  30.3582270  49.0784950
  51.6251180  19.9881280  47.9721820  50.6776090  20.0220260  48.1037250
  51.9501170  20.8020230  48.3571180  42.1570720  16.2878460  46.2677810
  42.4645700  15.7325350  45.5513310  41.2271420  16.4222920  46.0850800
  47.7085780  32.0045750  48.5585270  47.7212940  31.6008040  47.6907530
  47.1561000  32.7793040  48.4546700  49.0031200  28.7261970  43.6475440
  48.8927530  27.7836300  43.7724860  48.9999450  29.0877610  44.5338200
  47.1071220  26.9075590  49.8867880  47.5240010  26.6935700  49.0521340
  47.8311040  27.1648380  50.4576500  44.5451480  24.3527290  43.0037930
  43.6180760  24.2864670  43.2326400  44.6976300  25.2907420  42.8893170
  44.5320560  20.6244290  40.0005090  43.5924230  20.7858250  40.0857550
  44.8503820  21.3429970  39.4541080  51.0533320  25.3062810  49.9784120
  50.2251950  25.3755900  49.5034250  51.6483800  25.8917120  49.5099950
  48.5748770  25.9147590  43.5073180  47.9561190  25.5767140  42.8599480
  48.5573220  25.2707350  44.2152370  48.0175330  22.0932130  50.9238990
  47.6046510  22.9185840  51.1778980  47.2851280  21.5077170  50.7315350
  40.1508120  24.8792030  45.7857660  39.7465120  24.1669280  45.2903560
  40.2371240  24.5345270  46.6745700  40.6189820  28.5659590  47.9496870
  40.3218110  27.9605060  47.2704650  41.5689640  28.6036900  47.8386230
  38.8636740  21.6535240  49.5656700  39.4151330  21.7630580  48.7909950
  39.3780250  22.0272840  50.2811930  48.7075430  32.1391460  51.6119970
  48.2305990  32.9463650  51.4192580  48.0237220  31.4869790  51.7646180
  39.7108250  28.3041280  54.6004670  38.8136780  28.5281250  54.8478070
  39.7361120  28.4276220  53.6516070  46.7513470  25.1534400  40.5145930
  47.1906750  24.3156830  40.3683750  47.4641890  25.7863800  40.6010070
  38.5379470  25.1754600  53.1762040  38.3987240  26.0477400  53.5449440
  37.6560830  24.8327410  53.0309980  44.8608850  30.0930470  44.4827170
  45.3004760  30.8354800  44.0682560  44.7995740  30.3357040  45.4066130
  40.3359820  31.1176300  55.3847190  40.3075250  31.5219250  54.5175620
  40.1724790  30.1886660  55.2218790  50.3330610  16.4077210  38.8286970
  50.0203270  16.5004040  39.7286040  51.0943080  16.9858240  38.7784400
  36.8512750  23.7737010  43.2864310  36.7310350  24.4999100  42.6745580
  36.5413640  23.0039920  42.8092220  34.4898120  26.9452150  49.0932950
  34.5678540  27.0800920  48.1488670  35.1039800  26.2368040  49.2861070
  35.7345750  28.6452340  45.5039130  35.3273830  28.7866930  44.6492730
  36.6258760  28.3612500  45.3010340  51.6907890  29.0916250  53.8411370
  51.8170950  28.8528130  52.9228550  51.7329270  28.2600790  54.3133450
  45.5524630  32.7944250  52.4106180  46.0669300  32.7052260  53.2128610
  44.7093710  33.1403950  52.7034090  47.5279030  33.0799590  41.8390180
  47.3680170  32.7902530  42.7372010  47.3625740  32.3039720  41.3035410
  40.0067410  32.8598120  43.6161800  39.8309890  31.9433660  43.4029600
  39.1523150  33.2185410  43.8559600  47.2305160  30.5887150  40.3988180
  46.5370320  30.5864440  39.7390460  47.9728020  30.1646470  39.9682350
  46.7955090  32.2149860  44.4736670  47.2512040  31.4339240  44.7875290
  47.1347610  32.9256680  45.0177850  51.5431900  21.1448710  54.8061110
  50.9276170  21.6528380  54.2776570  51.2228320  20.2447040  54.7487050
  34.5457640  27.9866320  51.6327410  34.7088680  27.5171680  50.8146780
  35.0110090  27.4789880  52.2976250  39.3176410  17.1172080  46.6687980
  38.8744560  17.8981620  46.3372500  39.8761400  17.4401970  47.3758920
  43.6046220  19.9840600  52.2723300  43.1425590  20.1923620  53.0843240
  43.2024330  19.1699950  51.9693970  48.6050730  21.2049550  53.4019960
  47.7544320  20.9055300  53.7229030  48.4452520  21.4491560  52.4903780
  45.7000440  22.7051300  55.5018750  46.0253850  21.8715050  55.1620980
  46.4880770  23.2279820  55.6497080  42.4335230  16.7382780  41.5493810
  41.8089410  16.7342650  42.2747120  42.3465350  15.8713740  41.1529780
  41.3552310  17.6619410  48.5277580  41.6524640  18.5682240  48.4469600
  41.9037870  17.1738190  47.9137150  39.1090630  22.2405650  44.3969230
  38.8831550  22.0242820  45.3015850  38.3283160  22.6734110  44.0515200
  46.3388390  22.2469020  42.9959880  45.7397280  22.9704820  42.8123500
  46.8868000  22.1845800  42.2136330  41.5489840  23.1391230  55.0629500
  41.4533440  22.1985960  54.9129900  42.3921820  23.3606300  54.6677570
  44.9453260  20.8832560  45.0263160  45.3382830  21.2004760  44.2131850
  45.3070110  20.0044440  45.1407680  36.6800380  19.5504900  53.2163280
  36.2863770  20.3980110  53.4236060  35.9918780  18.9131270  53.4071920
  33.9817430  17.4733360  47.2493360  33.6930480  18.0436220  47.9618340
  34.7263190  16.9937810  47.6124590  34.1687660  21.4153480  38.4596080
  34.0862330  22.3584240  38.6011070  33.8170720  21.2728390  37.5808430
  45.5308400  23.4738310  49.1213940  44.7989520  23.9825120  49.4704040
  45.1332740  22.6568290  48.8202720  41.9685790  20.1492510  47.5266430
  41.9721850  19.7082460  46.6770970  42.8636910  20.4709840  47.6338250
  37.8188170  20.0319000  46.4860640  37.4788220  20.5094230  47.2427690
  37.0565490  19.5784120  46.1261740  42.0305940  21.1504590  40.5173190
  42.1518760  21.1091070  41.4659010  41.6454450  22.0128740  40.3619920
  45.9934310  18.9271990  48.5336880  46.0107050  19.3780640  49.3778730
  45.7449890  18.0277630  48.7470320  41.0427440  23.4605730  39.9156490
  40.4744340  23.0123980  39.2892400  41.7516440  23.8198510  39.3821640
  49.4205060  16.3404170  54.3723260  49.7450830  15.6093830  54.8981240
  49.4561570  16.0217810  53.4704250  36.1196620  27.3617750  53.7923220
  35.7351410  26.7211420  54.3906180  36.4308810  28.0653870  54.3617950
  42.2693760  24.2094290  49.2731840  42.6363890  23.7352860  50.0193180
  42.0798820  25.0835860  49.6140180  35.1334250  18.9537980  45.4025310
  34.8481170  18.5893650  46.2403930  35.0713110  18.2218440  44.7888450
  40.0593130  23.2502930  51.5916050  39.7550200  24.1294910  51.8166410
  41.0139590  23.3102720  51.6273490  38.5874920  27.4563920  42.1882900
  37.8137180  26.9161540  42.0281620  39.3169550  26.9370530  41.8500660
  49.3462900  26.4529280  47.9809290  50.0662020  26.9484570  47.5905400
  49.1444720  25.7747170  47.3363160  44.8072840  17.8467240  42.1238680
  43.9937450  17.3480410  42.0483990  44.6134790  18.6865490  41.7075030
  44.7281700  26.5238340  53.8678290  44.6619010  25.6034010  53.6135880
  44.0986840  26.6213780  54.5822930  47.5221230  22.2186890  40.4200840
  48.4100850  22.5304120  40.2452180  47.4926320  21.3459140  40.0281420
  38.6312320  27.1244300  45.8261710  39.1490990  26.3212560  45.7718600
  38.1796340  27.0623440  46.6678540  43.5181820  28.3910580  41.0989010
  43.8597520  29.1352810  40.6032330  42.6894530  28.7041700  41.4613840
  36.1156860  24.0905670  52.7387410  35.7571800  24.7559520  53.3260750
  35.8211420  23.2589220  53.1100030  39.3169980  24.5489910  55.6226960
  39.0170120  24.6947090  54.7254780  40.0881220  23.9895200  55.5300350
  44.6598430  29.3458910  53.6182090  44.6742970  28.4139870  53.4001000
  43.9523530  29.4318670  54.2571860  49.7935500  23.5298730  39.8880700
  49.7099220  23.9612950  39.0377140  50.5129690  23.9897080  40.3207520
  50.8709640  25.9866250  52.9650670  50.1457830  26.5795030  52.7680060
  51.3985100  25.9789790  52.1664040  50.8222750  30.3840990  42.6162830
  50.1798910  29.7296610  42.8906550  50.4353410  30.7896080  41.8403500
  46.4009230  27.7126420  46.4634520  46.7533050  27.1154550  45.8035890
  45.5171560  27.3870650  46.6342770  42.4872510  28.4724110  43.8704930
  43.1743640  29.0193320  44.2512520  41.7004930  29.0164840  43.9054540
  34.6264910  24.0896930  39.3622010  35.4959760  24.3721730  39.6457930
  34.1355230  24.9032800  39.2470820  41.7899720  25.4770140  43.4830290
  42.2462500  26.2875390  43.7090480  41.4387930  25.1593280  44.3148780
  44.0932330  30.9876480  50.7122590  44.7374550  31.1935860  51.3896010
  44.4561770  30.2264880  50.2593440  37.6911500  15.8207790  43.9552810
  37.5626130  15.8125690  44.9037730  36.8673520  16.1590880  43.6043820
  45.3664410  28.9908830  49.4300040  46.0086640  28.2901990  49.5432210
  45.8913760  29.7707270  49.2496930  49.2120130  29.2757450  39.1539180
  48.9857710  28.5587890  39.7463820  48.8216330  29.0269890  38.3160930
  47.1402030  29.7903730  52.6336100  47.4758270  30.3770420  53.3114020
  46.2202370  29.6596440  52.8633890  34.6905430  17.5798910  53.4159510
  33.9763950  17.7795830  54.0212120  35.1100470  16.8038480  53.7874310
  48.7936380  27.1929390  40.8153340  48.5058080  27.6542080  41.6031220
  49.5888550  26.7327160  41.0837560  34.9778020  31.5679170  54.4026040
  35.0869140  30.6273910  54.2621430  34.3258580  31.8333920  53.7539770
  41.0104780  30.6855510  40.7457310  41.0014880  31.4185200  40.1301820
  40.0903140  30.4387090  40.8384270  36.6111420  25.9070400  41.4904070
  36.0039370  26.6469300  41.4999370  37.0860770  25.9969760  40.6642270
  46.1844210  20.0721220  51.1660960  46.5525030  19.2516430  51.4940530
  45.3242410  20.1323110  51.5816610  49.5506240  19.0278160  41.9748520
  48.9219400  19.1323830  41.2606750  49.0558160  19.2474940  42.7642400
  43.9964380  30.7483750  39.4082500  44.0976360  30.5447740  38.4784480
  43.0966120  30.4942030  39.6130280  41.5190270  21.3064110  43.3906400
  40.8106420  21.7750450  43.8320010  41.8034750  20.6486120  44.0251590
  43.1446200  22.7260810  51.3898930  43.6431450  23.2006630  52.0550780
  43.2869150  21.8024330  51.5968960  45.5505700  18.0314770  44.8302190
  45.4273480  18.0500900  43.8811700  46.4990260  18.0793710  44.9500590
  42.6382490  33.2670070  44.1030170  42.8923990  33.2291460  43.1809540
  41.6894970  33.1403400  44.0958420  39.7225290  19.6149190  40.7657110
  40.5715820  20.0519340  40.6997300  39.3556560  19.9269450  41.5929170
  50.3513060  18.9428770  52.2327320  49.8486660  19.6834170  52.5721130
  51.1669720  19.3312770  51.9164110  48.6435070  24.1861950  45.6788680
  47.7025210  24.2012180  45.8536370  48.9579140  23.3997910  46.1248980
  38.6216710  25.8681550  39.2392640  39.3879980  25.7562910  39.8018070
  38.6991400  25.1719520  38.5869410  37.3163470  23.3006620  39.9225530
  37.3967060  22.3534130  40.0342930  38.2083220  23.6313500  40.0286190
  50.6460650  31.3570800  47.3542940  50.7708070  32.1801970  47.8266750
  51.5126210  31.1461530  47.0067090  38.1178180  33.4502010  47.0260070
  38.8540660  32.9017470  47.2968640  38.5019100  34.3158020  46.8866060
  35.0023660  29.5175580  42.9001580  34.0763440  29.7596720  42.8906990
  35.4680090  30.3449840  42.7786330  41.2280490  32.6232320  38.8485640
  42.0209100  32.9121150  38.3967430  40.7084840  32.1924490  38.1698120
  47.3901460  32.4708240  54.7730470  48.3423210  32.3866260  54.7230710
  47.2429680  33.1349950  55.4464260  50.2810660  31.8502450  40.2722380
  49.9952170  31.4367590  39.4576560  50.0830210  32.7790160  40.1522900
  41.7457890  27.8435730  38.7127990  41.6408530  27.2288080  39.4389370
  41.5782110  27.3201620  37.9291000  41.8972210  26.5292530  54.6917220
  41.1317880  27.0977530  54.6071890  42.0788170  26.2368740  53.7985450
  44.9860620  26.9055760  39.3169980  44.4370720  27.3525060  39.9612720
  45.6079880  26.4005010  39.8407650  49.0395560  28.2597860  55.2492240
  49.7805030  28.5973620  54.7459700  48.2768240  28.4289920  54.6962010
  40.6535740  25.8646680  41.2135280  41.0752160  25.6986550  42.0566670
  40.7786580  25.0546910  40.7190420  38.8163160  21.8443230  54.0206260
  38.2859620  21.3534180  53.3929600  39.4851230  22.2727430  53.4864190
  43.1663380  24.8884290  38.4612380  43.6869040  24.1733310  38.0953530
  43.8131780  25.5270160  38.7612890  47.7141220  26.3112690  53.7847450
  48.1282240  26.4657770  54.6337870  46.7792220  26.4367910  53.9473230
  39.3035460  18.8105600  54.1003550  39.2092330  18.1926350  53.3754420
  38.7232850  19.5371890  53.8733460  42.0696900  17.3678840  51.1330940
  41.6214200  17.3903100  50.2876490  41.4362100  16.9697860  51.7301240
  42.4756450  26.2633170  51.7543380  42.8944560  27.1065900  51.5819620
  41.5565080  26.4005210  51.5250160  44.8120350  23.9949350  53.1381220
  44.9316560  23.3990490  53.8776060  45.6714350  24.0319040  52.7182520
  47.1508250  24.5486540  51.7143730  46.6243470  25.0729160  51.1108870
  47.4939590  25.1813930  52.3453460  39.5494640  21.9379910  38.1593440
  39.3483700  21.0747270  38.5206780  39.3786690  21.8513270  37.2215040
  40.3263870  32.5686180  52.8701110  39.7884960  33.2932240  52.5509810
  40.5797830  32.0916520  52.0798450  41.5789120  20.5370700  54.3957040
  42.1688810  20.2286550  55.0834860  40.7609360  20.0650450  54.5516940
  46.3982550  20.1536510  54.6290060  45.7098070  19.4918050  54.5640050
  47.1188570  19.7074780  55.0738520  47.0282950  16.7488140  40.6880320
  47.3085240  15.9056040  41.0439740  46.2548680  16.9811250  41.2019070
  38.3477440  19.0380530  38.1471320  38.6503340  19.0447960  37.2390470
  39.0872030  18.6878390  38.6438980  43.1826080  33.8037390  53.1287760
  43.1084780  34.7072530  53.4360130  42.2804920  33.4849290  53.1009830
  41.5662370  17.9815150  39.1327520  41.2184370  17.3039140  38.5529970
  41.7675140  17.5204660  39.9470910  43.7311410  32.9695900  40.7514120
  44.6262200  33.3080870  40.7732880  43.7629040  32.2475310  40.1238400
  37.3707570  28.3422950  38.9801120  37.8082440  28.8852620  39.6358700
  37.8555300  27.5169900  38.9897460  34.5853370  31.1311980  46.4321380
  34.9156380  30.2633040  46.2000020  35.0144370  31.3370500  47.2626340
  39.1815290  29.4620990  44.0923350  38.8810830  29.3385960  44.9927260
  39.0752780  28.6029580  43.6839080  35.0743580  31.9982570  49.1703010
  34.6374570  32.1783370  50.0027160  35.6421260  32.7557190  49.0284730
  50.7105760  31.4999570  53.4580320  50.1107750  31.5592130  52.7144240
  50.8399660  30.5604550  53.5877170  51.9507210  29.2417390  38.7950030
  51.1200170  29.3094040  39.2657260  52.1279040  30.1321510  38.4916890
  51.4063670  25.9864870  41.2984230  52.1682580  26.5561520  41.4043920
  51.4218040  25.4192070  42.0692540  34.9068010  24.5102800  45.5291890
  34.2516850  24.2414440  44.8851590  35.7445960  24.4007280  45.0793870
  52.4123640  26.8414970  46.1426160  52.7832470  26.0582290  45.7362130
  53.0525570  27.5304070  45.9643460  49.3957400  28.2251550  51.5556480
  48.5817240  28.6548710  51.8182270  49.8031600  28.8369960  50.9425530
  51.4582840  26.2799240  38.4556750  51.7331680  27.1878120  38.3275970
  51.2693580  26.2161770  39.3918740  47.8558450  19.3044090  39.7510380
  48.2743330  19.1175070  38.9107040  47.5494510  18.4523140  40.0613310
  51.3548180  24.2168230  43.4486180  50.9791780  23.4496160  43.0167470
  50.6251300  24.5990930  43.9361110  35.9443940  24.8955370  50.0695230
  36.3116980  24.8082770  50.9491250  35.3754760  24.1321920  49.9702090
  50.7447800  23.3639750  53.0825700  50.5133890  23.1352500  52.1823650
  51.0052350  24.2839300  53.0370590  35.4959940  21.8064460  53.9753650
  34.6015990  21.7731220  54.3147360  36.0357490  22.0051250  54.7404900
  34.1206090  21.7201730  41.4717220  33.2170170  21.9831930  41.2968880
  34.6046710  21.9912900  40.6917180  50.6299140  22.4425720  46.7493420
  51.1536620  21.9488370  46.1183590  51.2158560  22.5776080  47.4940990
  50.8088860  22.5265590  50.2712970  49.8591570  22.4929130  50.3857960
  50.9901870  23.4365700  50.0362740  36.6633300  20.7767270  39.3811600
  37.3725000  20.3550490  38.8958880  35.9473240  20.8442500  38.7494950
  36.3107460  16.8306600  38.4214250  37.0335590  17.3715540  38.7395470
  36.5831980  16.5570020  37.5455790  50.1199110  21.6999070  42.6885830
  50.6158230  21.4669940  43.4734710  49.9215180  20.8610910  42.2723470
  35.9999650  16.0812790  48.3236870  36.6475840  15.5310170  47.8832030
  36.4201490  16.3355940  49.1452680  51.5486270  20.3360020  45.2223510
  51.4385550  20.1816060  46.1605780  52.3093860  19.8080960  44.9798920
  49.8951990  16.2754150  51.6806510  50.5324210  16.8888290  52.0465700
  50.0426880  16.3114810  50.7355740  52.4376540  18.1667940  38.4629650
  53.3625850  18.0349120  38.2547940  52.4152330  18.2460760  39.4166100
  52.5115030  18.9378600  41.0886360  51.7166530  18.8723720  41.6179270
  52.7158310  19.8729240  41.0771710  49.4533450  32.9770150  45.0824750
  50.0492520  32.6554720  44.4059170  49.7111600  32.5041970  45.8738020
  35.7531650  16.2368460  51.0662190  35.4046470  16.6932280  51.8320370
  35.4219350  15.3425590  51.1484620  41.0602050  30.9647650  50.8325100
  40.8193410  31.2322210  49.9455620  42.0004690  31.1353380  50.8875960
  43.2656470  17.4280340  54.5881610  43.2045360  18.0202170  55.3377020
  44.2056850  17.3206300  54.4431870  45.9031030  17.0850400  54.2273900
  46.5171440  17.4029690  53.5654980  46.4480590  16.5998990  54.8469760
  52.3206210  32.9842030  51.6335740  51.8264490  33.3810900  50.9162870
  51.7119500  32.3591240  52.0273020  36.4252290  15.7644660  54.3412960
  36.9735280  15.5832710  53.5779070  36.4907600  14.9738770  54.8769270
  37.1984050  32.3550310  52.3513160  36.6044370  32.2235010  53.0903200
  37.1907890  31.5188450  51.8855260  46.6439070  15.6482540  50.5543190
  45.7698910  15.9817650  50.3516120  46.5349820  15.1755720  51.3795060
  47.5511050  17.8553410  51.9384910  47.2224410  17.0405170  51.5586640
  48.4993350  17.8123220  51.8150600  50.0045660  33.6265450  48.9122480
  49.5448630  34.3781260  48.5380500  49.3758120  32.9071920  48.8537280
  36.8296280  29.7208690  51.3021200  36.1030340  29.1013980  51.2347150
  36.8905430  30.1149300  50.4319280  40.4341380  31.9353690  48.0870610
  40.9506400  31.3241050  47.5618870  41.0838760  32.4382470  48.5781620
  43.1736880  32.8262180  48.9139590  43.4614690  32.5716480  48.0372600
  43.6860100  32.2739540  49.5045160  44.3913890  16.5652380  49.4936100
  43.6085680  17.0397880  49.7732860  44.0976820  15.6607210  49.3849280
  48.9434960  17.2675480  47.5385190  49.3843050  17.2120580  46.6906790
  48.6742550  18.1833490  47.6095370  50.8073530  16.8990720  45.5494010
  50.7461930  15.9551940  45.4025030  51.5865560  17.0070810  46.0947470
  35.1126280  33.0383080  44.5117960  34.9448320  32.4053760  45.2099850
  34.2460790  33.2442480  44.1612150  35.7354300  16.8699860  42.0149820
  36.4933660  16.9828740  41.4413850  35.2731470  17.7069060  41.9693250
  42.2768110  18.9839130  45.0052130  41.4642620  18.6096020  44.6648010
  42.7809750  18.2284210  45.3073320  46.7793090  15.6481580  46.2435200
  47.3822460  16.2201790  46.7183720  46.0386080  16.2121020  46.0209100
  49.9227690  16.0503140  41.5175480  50.1178320  16.9486590  41.7842910
  49.1357560  15.8190220  42.0108430  36.7188980  31.7316310  41.9568100
  36.1936600  32.1124340  41.2530060  36.6433560  32.3567080  42.6777810
  38.1079450  17.3963910  40.5551790  38.6372210  16.6093710  40.4259740
  38.7407770  18.0755100  40.7887320  40.3017290  17.1339050  43.6097180
  39.6720030  16.4326360  43.7767310  39.7622430  17.8943180  43.3930340
  51.4754300  33.2903850  43.2782040  51.6506490  32.6041590  42.6342960
  50.7775870  33.8150900  42.8858710  39.3181950  33.6798690  40.8317350
  40.0500770  33.3957970  40.2841240  39.5775620  33.4411970  41.7216730
  38.4796740  29.7963420  40.8363680  37.8505620  30.2648520  41.3849510
  38.5944570  28.9512640  41.2709870  35.6980160  18.9059810  31.2000930
  35.5183000  18.0085560  31.4803690  35.2960240  19.4531680  31.8747880
  44.5378660  21.1075670  29.1013240  44.9143480  20.2347550  28.9886910
  44.4398170  21.4434370  28.2103680  48.3202780  18.6026110  26.0341580
  49.1412400  18.1122680  26.0767060  48.3536860  19.1923770  26.7873420
  52.6102330  20.6192860  32.5985210  51.9054500  21.0074570  32.0800320
  52.8760250  21.3143150  33.2006140  38.7927500  17.0886230  33.1619280
  38.7945940  17.6058620  32.3565180  37.9631810  16.6116410  33.1389210
  48.5564260  20.5426490  28.8069120  47.8519830  20.8311380  29.3872230
  48.9176420  21.3526600  28.4468680  38.4742830  18.7996190  31.1689730
  38.8159640  19.6438240  30.8743600  37.5358640  18.9479930  31.2855070
  39.2549450  28.6962210  33.1541960  39.8723450  29.3713290  32.8726410
  38.3942570  29.1050190  33.0629460  50.1727040  30.1601620  31.0696600
  49.4890560  30.8300730  31.0613270  50.7121330  30.3582270  30.3041460
  51.6251180  19.9881280  29.1978330  50.6776090  20.0220260  29.3293760
  51.9501170  20.8020230  29.5827690  42.1570720  16.2878460  27.4934320
  42.4645700  15.7325350  26.7769820  41.2271420  16.4222920  27.3107310
  47.7085780  32.0045750  29.7841780  47.7212940  31.6008040  28.9164040
  47.1561000  32.7793040  29.6803210  47.1071220  26.9075590  31.1124390
  47.5240010  26.6935700  30.2777850  47.8311040  27.1648380  31.6833010
  44.5320560  20.6244290  21.2261600  43.5924230  20.7858250  21.3114060
  44.8503820  21.3429970  20.6797590  51.0533320  25.3062810  31.2040630
  50.2251950  25.3755900  30.7290760  51.6483800  25.8917120  30.7356460
  48.0175330  22.0932130  32.1495500  47.6046510  22.9185840  32.4035490
  47.2851280  21.5077170  31.9571860  48.7075430  32.1391460  32.8376480
  48.2305990  32.9463650  32.6449090  48.0237220  31.4869790  32.9902690
  39.7108250  28.3041280  35.8261180  38.8136780  28.5281250  36.0734580
  39.7361120  28.4276220  34.8772580  40.3359820  31.1176300  36.6103700
  40.3075250  31.5219250  35.7432130  40.1724790  30.1886660  36.4475300
  50.3330610  16.4077210  20.0543480  50.0203270  16.5004040  20.9542550
  51.0943080  16.9858240  20.0040910  52.2874640  31.9003400  37.9067870
  52.7634360  32.3786290  38.5856950  52.9081800  31.8320890  37.1813370
  51.6907890  29.0916250  35.0667880  51.8170950  28.8528130  34.1485060
  51.7329270  28.2600790  35.5389960  45.5524630  32.7944250  33.6362690
  46.0669300  32.7052260  34.4385120  44.7093710  33.1403950  33.9290600
  47.5279030  33.0799590  23.0646690  47.3680170  32.7902530  23.9628520
  47.3625740  32.3039720  22.5291920  47.2305160  30.5887150  21.6244690
  46.5370320  30.5864440  20.9646970  47.9728020  30.1646470  21.1938860
  51.5431900  21.1448710  36.0317620  50.9276170  21.6528380  35.5033080
  51.2228320  20.2447040  35.9743560  39.3176410  17.1172080  27.8944490
  38.8744560  17.8981620  27.5629010  39.8761400  17.4401970  28.6015430
  43.6046220  19.9840600  33.4979810  43.1425590  20.1923620  34.3099750
  43.2024330  19.1699950  33.1950480  48.6050730  21.2049550  34.6276470
  47.7544320  20.9055300  34.9485540  48.4452520  21.4491560  33.7160290
  45.7000440  22.7051300  36.7275260  46.0253850  21.8715050  36.3877490
  46.4880770  23.2279820  36.8753590  42.4335230  16.7382780  22.7750320
  41.8089410  16.7342650  23.5003630  42.3465350  15.8713740  22.3786290
  41.3552310  17.6619410  29.7534090  41.6524640  18.5682240  29.6726110
  41.9037870  17.1738190  29.1393660  41.5489840  23.1391230  36.2886010
  41.4533440  22.1985960  36.1386410  42.3921820  23.3606300  35.8934080
  44.9453260  20.8832560  26.2519670  45.3382830  21.2004760  25.4388360
  45.3070110  20.0044440  26.3664190  36.6800380  19.5504900  34.4419790
  36.2863770  20.3980110  34.6492570  35.9918780  18.9131270  34.6328430
  43.2545430  19.6339870  37.5116530  42.5643750  19.4412070  38.1462620
  43.9977730  19.9174510  38.0440830  33.9817430  17.4733360  28.4749870
  33.6930480  18.0436220  29.1874850  34.7263190  16.9937810  28.8381100
  34.1687660  21.4153480  19.6852590  34.0862330  22.3584240  19.8267580
  33.8170720  21.2728390  18.8064940  45.5308400  23.4738310  30.3470450
  44.7989520  23.9825120  30.6960550  45.1332740  22.6568290  30.0459230
  42.0305940  21.1504590  21.7429700  42.1518760  21.1091070  22.6915520
  41.6454450  22.0128740  21.5876430  45.9934310  18.9271990  29.7593390
  46.0107050  19.3780640  30.6035240  45.7449890  18.0277630  29.9726830
  49.4205060  16.3404170  35.5979770  49.7450830  15.6093830  36.1237750
  49.4561570  16.0217810  34.6960760  44.8072840  17.8467240  23.3495190
  43.9937450  17.3480410  23.2740500  44.6134790  18.6865490  22.9331540
  44.7281700  26.5238340  35.0934800  44.6619010  25.6034010  34.8392390
  44.0986840  26.6213780  35.8079440  39.3169980  24.5489910  36.8483470
  39.0170120  24.6947090  35.9511290  40.0881220  23.9895200  36.7556860
  44.6598430  29.3458910  34.8438600  44.6742970  28.4139870  34.6257510
  43.9523530  29.4318670  35.4828370  50.8709640  25.9866250  34.1907180
  50.1457830  26.5795030  33.9936570  51.3985100  25.9789790  33.3920550
  44.0932330  30.9876480  31.9379100  44.7374550  31.1935860  32.6152520
  44.4561770  30.2264880  31.4849950  37.6911500  15.8207790  25.1809320
  37.5626130  15.8125690  26.1294240  36.8673520  16.1590880  24.8300330
  45.3664410  28.9908830  30.6556550  46.0086640  28.2901990  30.7688720
  45.8913760  29.7707270  30.4753440  49.2120130  29.2757450  20.3795690
  48.9857710  28.5587890  20.9720330  48.8216330  29.0269890  19.5417440
  47.1402030  29.7903730  33.8592610  47.4758270  30.3770420  34.5370530
  46.2202370  29.6596440  34.0890400  34.9936160  33.3024310  21.1540150
  35.3533800  33.9013650  20.4997420  34.8528500  33.8484200  21.9275180
  34.6905430  17.5798910  34.6416020  33.9763950  17.7795830  35.2468630
  35.1100470  16.8038480  35.0130820  42.9690610  29.8395060  37.0280670
  42.6487480  29.1204300  37.5726360  42.2948970  30.5150130  37.1016730
  46.1844210  20.0721220  32.3917470  46.5525030  19.2516430  32.7197040
  45.3242410  20.1323110  32.8073120  49.5506240  19.0278160  23.2005030
  48.9219400  19.1323830  22.4863260  49.0558160  19.2474940  23.9898910
  41.5190270  21.3064110  24.6162910  40.8106420  21.7750450  25.0576520
  41.8034750  20.6486120  25.2508100  43.1446200  22.7260810  32.6155440
  43.6431450  23.2006630  33.2807290  43.2869150  21.8024330  32.8225470
  45.5505700  18.0314770  26.0558700  45.4273480  18.0500900  25.1068210
  46.4990260  18.0793710  26.1757100  39.7225290  19.6149190  21.9913620
  40.5715820  20.0519340  21.9253810  39.3556560  19.9269450  22.8185680
  50.3513060  18.9428770  33.4583830  49.8486660  19.6834170  33.7977640
  51.1669720  19.3312770  33.1420620  50.6460650  31.3570800  28.5799450
  50.7708070  32.1801970  29.0523260  51.5126210  31.1461530  28.2323600
  38.1178180  33.4502010  28.2516580  38.8540660  32.9017470  28.5225150
  38.5019100  34.3158020  28.1122570  45.9601090  28.7427950  37.3877570
  45.3539250  28.7659550  36.6473320  45.6555200  28.0110990  37.9244820
  47.3901460  32.4708240  35.9986980  48.3423210  32.3866260  35.9487220
  47.2429680  33.1349950  36.6720770  50.2810660  31.8502450  21.4978890
  49.9952170  31.4367590  20.6833070  50.0830210  32.7790160  21.3779410
  41.8972210  26.5292530  35.9173730  41.1317880  27.0977530  35.8328400
  42.0788170  26.2368740  35.0241960  49.0395560  28.2597860  36.4748750
  49.7805030  28.5973620  35.9716210  48.2768240  28.4289920  35.9218520
  36.8757350  23.2651130  37.2788280  36.9162690  22.9665000  38.1873510
  37.7302850  23.6658740  37.1195800  38.8163160  21.8443230  35.2462770
  38.2859620  21.3534180  34.6186110  39.4851230  22.2727430  34.7120700
  47.7141220  26.3112690  35.0103960  48.1282240  26.4657770  35.8594380
  46.7792220  26.4367910  35.1729740  48.1863390  23.6508850  37.0143110
  48.7684160  22.8961170  36.9263590  48.3625160  24.1816290  36.2374590
  39.3035460  18.8105600  35.3260060  39.2092330  18.1926350  34.6010930
  38.7232850  19.5371890  35.0989970  42.0696900  17.3678840  32.3587450
  41.6214200  17.3903100  31.5133000  41.4362100  16.9697860  32.9557750
  42.4756450  26.2633170  32.9799890  42.8944560  27.1065900  32.8076130
  41.5565080  26.4005210  32.7506670  44.8120350  23.9949350  34.3637730
  44.9316560  23.3990490  35.1032570  45.6714350  24.0319040  33.9439030
  47.1508250  24.5486540  32.9400240  46.6243470  25.0729160  32.3365380
  47.4939590  25.1813930  33.5709970  39.5494640  21.9379910  19.3849950
  39.3483700  21.0747270  19.7463290  39.3786690  21.8513270  18.4471550
  40.3263870  32.5686180  34.0957620  39.7884960  33.2932240  33.7766320
  40.5797830  32.0916520  33.3054960  41.5789120  20.5370700  35.6213550
  42.1688810  20.2286550  36.3091370  40.7609360  20.0650450  35.7773450
  46.3982550  20.1536510  35.8546570  45.7098070  19.4918050  35.7896560
  47.1188570  19.7074780  36.2995030  47.0282950  16.7488140  21.9136830
  47.3085240  15.9056040  22.2696250  46.2548680  16.9811250  22.4275580
  38.3477440  19.0380530  19.3727830  38.6503340  19.0447960  18.4646980
  39.0872030  18.6878390  19.8695490  43.1826080  33.8037390  34.3544270
  43.1084780  34.7072530  34.6616640  42.2804920  33.4849290  34.3266340
  41.5662370  17.9815150  20.3584030  41.2184370  17.3039140  19.7786480
  41.7675140  17.5204660  21.1727420  50.7105760  31.4999570  34.6836830
  50.1107750  31.5592130  33.9400750  50.8399660  30.5604550  34.8133680
  51.9507210  29.2417390  20.0206540  51.1200170  29.3094040  20.4913770
  52.1279040  30.1321510  19.7173400  51.4063670  25.9864870  22.5240740
  52.1682580  26.5561520  22.6300430  51.4218040  25.4192070  23.2949050
  49.3957400  28.2251550  32.7812990  48.5817240  28.6548710  33.0438780
  49.8031600  28.8369960  32.1682040  51.4582840  26.2799240  19.6813260
  51.7331680  27.1878120  19.5532480  51.2693580  26.2161770  20.6175250
  47.8558450  19.3044090  20.9766890  48.2743330  19.1175070  20.1363550
  47.5494510  18.4523140  21.2869820  51.3548180  24.2168230  24.6742690
  50.9791780  23.4496160  24.2423980  50.6251300  24.5990930  25.1617620
  50.7447800  23.3639750  34.3082210  50.5133890  23.1352500  33.4080160
  51.0052350  24.2839300  34.2627100  49.1835870  18.5896180  37.0861910
  50.0606050  18.5979580  37.4695910  49.1956710  17.8527020  36.4754260
  50.6299140  22.4425720  27.9749930  51.1536620  21.9488370  27.3440100
  51.2158560  22.5776080  28.7197500  50.8088860  22.5265590  31.4969480
  49.8591570  22.4929130  31.6114470  50.9901870  23.4365700  31.2619250
  36.6633300  20.7767270  20.6068110  37.3725000  20.3550490  20.1215390
  35.9473240  20.8442500  19.9751460  36.3107460  16.8306600  19.6470760
  37.0335590  17.3715540  19.9651980  36.5831980  16.5570020  18.7712300
  50.1199110  21.6999070  23.9142340  50.6158230  21.4669940  24.6991220
  49.9215180  20.8610910  23.4979980  35.9999650  16.0812790  29.5493380
  36.6475840  15.5310170  29.1088540  36.4201490  16.3355940  30.3709190
  51.5486270  20.3360020  26.4480020  51.4385550  20.1816060  27.3862290
  52.3093860  19.8080960  26.2055430  49.8951990  16.2754150  32.9063020
  50.5324210  16.8888290  33.2722210  50.0426880  16.3114810  31.9612250
  52.4376540  18.1667940  19.6886160  53.3625850  18.0349120  19.4804450
  52.4152330  18.2460760  20.6422610  52.5115030  18.9378600  22.3142870
  51.7166530  18.8723720  22.8435780  52.7158310  19.8729240  22.3028220
  49.4533450  32.9770150  26.3081260  50.0492520  32.6554720  25.6315680
  49.7111600  32.5041970  27.0994530  35.7531650  16.2368460  32.2918700
  35.4046470  16.6932280  33.0576880  35.4219350  15.3425590  32.3741130
  41.0602050  30.9647650  32.0581610  40.8193410  31.2322210  31.1712130
  42.0004690  31.1353380  32.1132470  43.2656470  17.4280340  35.8138120
  43.2045360  18.0202170  36.5633530  44.2056850  17.3206300  35.6688380
  45.9031030  17.0850400  35.4530410  46.5171440  17.4029690  34.7911490
  46.4480590  16.5998990  36.0726270  52.3206210  32.9842030  32.8592250
  51.8264490  33.3810900  32.1419380  51.7119500  32.3591240  33.2529530
  36.4252290  15.7644660  35.5669470  36.9735280  15.5832710  34.8035580
  36.4907600  14.9738770  36.1025780  46.6439070  15.6482540  31.7799700
  45.7698910  15.9817650  31.5772630  46.5349820  15.1755720  32.6051570
  47.5511050  17.8553410  33.1641420  47.2224410  17.0405170  32.7843150
  48.4993350  17.8123220  33.0407110  50.0045660  33.6265450  30.1378990
  49.5448630  34.3781260  29.7637010  49.3758120  32.9071920  30.0793790
  36.8296280  29.7208690  32.5277710  36.1030340  29.1013980  32.4603660
  36.8905430  30.1149300  31.6575790  43.1736880  32.8262180  30.1396100
  43.4614690  32.5716480  29.2629110  43.6860100  32.2739540  30.7301670
  44.3913890  16.5652380  30.7192610  43.6085680  17.0397880  30.9989370
  44.0976820  15.6607210  30.6105790  48.9434960  17.2675480  28.7641700
  49.3843050  17.2120580  27.9163300  48.6742550  18.1833490  28.8351880
  50.8073530  16.8990720  26.7750520  50.7461930  15.9551940  26.6281540
  51.5865560  17.0070810  27.3203980  35.1126280  33.0383080  25.7374470
  34.9448320  32.4053760  26.4356360  34.2460790  33.2442480  25.3868660
  35.7354300  16.8699860  23.2406330  36.4933660  16.9828740  22.6670360
  35.2731470  17.7069060  23.1949760  42.2768110  18.9839130  26.2308640
  41.4642620  18.6096020  25.8904520  42.7809750  18.2284210  26.5329830
  46.7793090  15.6481580  27.4691710  47.3822460  16.2201790  27.9440230
  46.0386080  16.2121020  27.2465610  49.9227690  16.0503140  22.7431990
  50.1178320  16.9486590  23.0099420  49.1357560  15.8190220  23.2364940
  38.1079450  17.3963910  21.7808300  38.6372210  16.6093710  21.6516250
  38.7407770  18.0755100  22.0143830  40.3017290  17.1339050  24.8353690
  39.6720030  16.4326360  25.0023820  39.7622430  17.8943180  24.6186850
  43.2409240  33.7478280  37.5064300  44.1676550  33.5122550  37.5500260
  43.2259670  34.5750280  37.0250330  51.4754300  33.2903850  24.5038550
  51.6506490  32.6041590  23.8599470  50.7775870  33.8150900  24.1115220
  40.4272850  16.4123030  37.2706180  40.1457120  16.9156630  36.5067000
  40.8092550  15.6144780  36.9048310  47.0288310  15.8276610  37.8486650
  46.9153760  16.1471220  38.7438170  47.8458050  16.2289120  37.5523930
  49.8086800  32.9748140  37.3305340  50.6012120  32.4797370  37.1231300
  50.1019950  33.6538280  37.9380950  45.9346460  23.8469080   8.2121390
  45.8540510  22.9323690   7.9413100  45.5210880  24.3436150   7.5061100
  44.0664500  25.6248100  10.0930660  43.2906600  25.1448540  10.3829230
  44.7177430  24.9453750   9.9186820  38.0830330  25.9367910  10.9706420
  37.2515210  25.6816620  11.3702930  38.6911310  26.0078680  11.7064340
  48.0871930  30.0308290   8.8729790  47.6253460  29.2595530   9.2016960
  48.8997480  30.0574360   9.3782240  38.0631590  29.9708000  11.1664440
  38.3659630  29.0805740  10.9874660  38.8075180  30.5278220  10.9386690
  36.4922280  20.8969800   4.7548810  35.6038980  21.2385770   4.6528690
  36.7763470  20.6970120   3.8629640  34.4555290  23.4975450  10.6388510
  35.0271400  22.7297650  10.6392150  34.4556830  23.7964210   9.7295120
  44.3135240  32.3166300   8.4933780  43.6946680  32.7723800   7.9228220
  45.1687020  32.4717760   8.0923480  43.5073490  28.3005290  10.1000820
  43.4381770  27.3595230   9.9389950  44.2693350  28.3906700  10.6723390
  35.6980160  18.9059810  12.4257440  35.5183000  18.0085560  12.7060200
  35.2960240  19.4531680  13.1004390  44.5378660  21.1075670  10.3269750
  44.9143480  20.2347550  10.2143420  44.4398170  21.4434370   9.4360190
  38.6683670  19.4801300   5.7887190  38.7750420  20.3805030   6.0955950
  37.7576030  19.4319270   5.4981840  48.3202780  18.6026110   7.2598090
  49.1412400  18.1122680   7.3023570  48.3536860  19.1923770   8.0129930
  36.3166830  21.4020310  11.0339780  36.9976940  21.6658680  11.6527180
  36.0014880  20.5621180  11.3677790  40.5091400  22.4487670  10.1212370
  41.0169620  22.9468640  10.7617390  41.0404640  21.6722870   9.9451730
  52.6102330  20.6192860  13.8241720  51.9054500  21.0074570  13.3056830
  52.8760250  21.3143150  14.4262650  38.7927500  17.0886230  14.3875790
  38.7945940  17.6058620  13.5821690  37.9631810  16.6116410  14.3645720
  45.1798590  27.2005540   5.8865690  44.5615860  27.6654990   5.3228410
  45.6921840  27.8933020   6.3035200  40.0430350  26.7281410  12.5649290
  39.7099730  27.3550330  13.2070360  40.2197030  27.2543290  11.7850960
  48.5564260  20.5426490  10.0325630  47.8519830  20.8311380  10.6128740
  48.9176420  21.3526600   9.6725190  38.4742830  18.7996190  12.3946240
  38.8159640  19.6438240  12.1000110  37.5358640  18.9479930  12.5111580
  39.2549450  28.6962210  14.3798470  39.8723450  29.3713290  14.0982920
  38.3942570  29.1050190  14.2885970  34.5481790  27.8862070   3.2605320
  34.1709770  28.3749170   2.5290220  34.8054860  28.5587350   3.8911850
  50.1727040  30.1601620  12.2953110  49.4890560  30.8300730  12.2869780
  50.7121330  30.3582270  11.5297970  51.6251180  19.9881280  10.4234840
  50.6776090  20.0220260  10.5550270  51.9501170  20.8020230  10.8084200
  42.1570720  16.2878460   8.7190830  42.4645700  15.7325350   8.0026330
  41.2271420  16.4222920   8.5363820  47.7085780  32.0045750  11.0098290
  47.7212940  31.6008040  10.1420550  47.1561000  32.7793040  10.9059720
  49.0031200  28.7261970   6.0988460  48.8927530  27.7836300   6.2237880
  48.9999450  29.0877610   6.9851220  47.1071220  26.9075590  12.3380900
  47.5240010  26.6935700  11.5034360  47.8311040  27.1648380  12.9089520
  44.5451480  24.3527290   5.4550950  43.6180760  24.2864670   5.6839420
  44.6976300  25.2907420   5.3406190  44.5320560  20.6244290   2.4518110
  43.5924230  20.7858250   2.5370570  44.8503820  21.3429970   1.9054100
  51.0533320  25.3062810  12.4297140  50.2251950  25.3755900  11.9547270
  51.6483800  25.8917120  11.9612970  48.5748770  25.9147590   5.9586200
  47.9561190  25.5767140   5.3112500  48.5573220  25.2707350   6.6665390
  48.0175330  22.0932130  13.3752010  47.6046510  22.9185840  13.6292000
  47.2851280  21.5077170  13.1828370  40.1508120  24.8792030   8.2370680
  39.7465120  24.1669280   7.7416580  40.2371240  24.5345270   9.1258720
  40.6189820  28.5659590  10.4009890  40.3218110  27.9605060   9.7217670
  41.5689640  28.6036900  10.2899250  38.8636740  21.6535240  12.0169720
  39.4151330  21.7630580  11.2422970  39.3780250  22.0272840  12.7324950
  48.7075430  32.1391460  14.0632990  48.2305990  32.9463650  13.8705600
  48.0237220  31.4869790  14.2159200  46.7513470  25.1534400   2.9658950
  47.1906750  24.3156830   2.8196770  47.4641890  25.7863800   3.0523090
  38.5379470  25.1754600  15.6275060  38.3987240  26.0477400  15.9962460
  37.6560830  24.8327410  15.4823000  44.8608850  30.0930470   6.9340190
  45.3004760  30.8354800   6.5195580  44.7995740  30.3357040   7.8579150
  36.8512750  23.7737010   5.7377330  36.7310350  24.4999100   5.1258600
  36.5413640  23.0039920   5.2605240  52.2874640  31.9003400  19.1324380
  52.7634360  32.3786290  19.8113460  52.9081800  31.8320890  18.4069880
  34.4898120  26.9452150  11.5445970  34.5678540  27.0800920  10.6001690
  35.1039800  26.2368040  11.7374090  35.7345750  28.6452340   7.9552150
  35.3273830  28.7866930   7.1005750  36.6258760  28.3612500   7.7523360
  51.6907890  29.0916250  16.2924390  51.8170950  28.8528130  15.3741570
  51.7329270  28.2600790  16.7646470  45.5524630  32.7944250  14.8619200
  46.0669300  32.7052260  15.6641630  44.7093710  33.1403950  15.1547110
  47.5279030  33.0799590   4.2903200  47.3680170  32.7902530   5.1885030
  47.3625740  32.3039720   3.7548430  40.0067410  32.8598120   6.0674820
  39.8309890  31.9433660   5.8542620  39.1523150  33.2185410   6.3072620
  47.2305160  30.5887150   2.8501200  46.5370320  30.5864440   2.1903480
  47.9728020  30.1646470   2.4195370  46.7955090  32.2149860   6.9249690
  47.2512040  31.4339240   7.2388310  47.1347610  32.9256680   7.4690870
  51.5431900  21.1448710  17.2574130  50.9276170  21.6528380  16.7289590
  51.2228320  20.2447040  17.2000070  34.5457640  27.9866320  14.0840430
  34.7088680  27.5171680  13.2659800  35.0110090  27.4789880  14.7489270
  39.3176410  17.1172080   9.1201000  38.8744560  17.8981620   8.7885520
  39.8761400  17.4401970   9.8271940  43.6046220  19.9840600  14.7236320
  43.1425590  20.1923620  15.5356260  43.2024330  19.1699950  14.4206990
  48.6050730  21.2049550  15.8532980  47.7544320  20.9055300  16.1742050
  48.4452520  21.4491560  14.9416800  45.7000440  22.7051300  17.9531770
  46.0253850  21.8715050  17.6134000  46.4880770  23.2279820  18.1010100
  42.4335230  16.7382780   4.0006830  41.8089410  16.7342650   4.7260140
  42.3465350  15.8713740   3.6042800  41.3552310  17.6619410  10.9790600
  41.6524640  18.5682240  10.8982620  41.9037870  17.1738190  10.3650170
  39.1090630  22.2405650   6.8482250  38.8831550  22.0242820   7.7528870
  38.3283160  22.6734110   6.5028220  46.3388390  22.2469020   5.4472900
  45.7397280  22.9704820   5.2636520  46.8868000  22.1845800   4.6649350
  41.5489840  23.1391230  17.5142520  41.4533440  22.1985960  17.3642920
  42.3921820  23.3606300  17.1190590  44.9453260  20.8832560   7.4776180
  45.3382830  21.2004760   6.6644870  45.3070110  20.0044440   7.5920700
  36.6800380  19.5504900  15.6676300  36.2863770  20.3980110  15.8749080
  35.9918780  18.9131270  15.8584940  43.2545430  19.6339870  18.7373040
  42.5643750  19.4412070  19.3719130  43.9977730  19.9174510  19.2697340
  33.9817430  17.4733360   9.7006380  33.6930480  18.0436220  10.4131360
  34.7263190  16.9937810  10.0637610  45.5308400  23.4738310  11.5726960
  44.7989520  23.9825120  11.9217060  45.1332740  22.6568290  11.2715740
  41.9685790  20.1492510   9.9779450  41.9721850  19.7082460   9.1283990
  42.8636910  20.4709840  10.0851270  37.8188170  20.0319000   8.9373660
  37.4788220  20.5094230   9.6940710  37.0565490  19.5784120   8.5774760
  42.0305940  21.1504590   2.9686210  42.1518760  21.1091070   3.9172030
  41.6454450  22.0128740   2.8132940  45.9934310  18.9271990  10.9849900
  46.0107050  19.3780640  11.8291750  45.7449890  18.0277630  11.1983340
  41.0427440  23.4605730   2.3669510  40.4744340  23.0123980   1.7405420
  41.7516440  23.8198510   1.8334660  49.4205060  16.3404170  16.8236280
  49.7450830  15.6093830  17.3494260  49.4561570  16.0217810  15.9217270
  36.1196620  27.3617750  16.2436240  35.7351410  26.7211420  16.8419200
  36.4308810  28.0653870  16.8130970  42.2693760  24.2094290  11.7244860
  42.6363890  23.7352860  12.4706200  42.0798820  25.0835860  12.0653200
  35.1334250  18.9537980   7.8538330  34.8481170  18.5893650   8.6916950
  35.0713110  18.2218440   7.2401470  40.0593130  23.2502930  14.0429070
  39.7550200  24.1294910  14.2679430  41.0139590  23.3102720  14.0786510
  38.5874920  27.4563920   4.6395920  37.8137180  26.9161540   4.4794640
  39.3169550  26.9370530   4.3013680  49.3462900  26.4529280  10.4322310
  50.0662020  26.9484570  10.0418420  49.1444720  25.7747170   9.7876180
  44.8072840  17.8467240   4.5751700  43.9937450  17.3480410   4.4997010
  44.6134790  18.6865490   4.1588050  44.7281700  26.5238340  16.3191310
  44.6619010  25.6034010  16.0648900  44.0986840  26.6213780  17.0335950
  47.5221230  22.2186890   2.8713860  48.4100850  22.5304120   2.6965200
  47.4926320  21.3459140   2.4794440  38.6312320  27.1244300   8.2774730
  39.1490990  26.3212560   8.2231620  38.1796340  27.0623440   9.1191560
  43.5181820  28.3910580   3.5502030  43.8597520  29.1352810   3.0545350
  42.6894530  28.7041700   3.9126860  36.1156860  24.0905670  15.1900430
  35.7571800  24.7559520  15.7773770  35.8211420  23.2589220  15.5613050
  44.6598430  29.3458910  16.0695110  44.6742970  28.4139870  15.8514020
  43.9523530  29.4318670  16.7084880  50.8709640  25.9866250  15.4163690
  50.1457830  26.5795030  15.2193080  51.3985100  25.9789790  14.6177060
  50.8222750  30.3840990   5.0675850  50.1798910  29.7296610   5.3419570
  50.4353410  30.7896080   4.2916520  46.4009230  27.7126420   8.9147540
  46.7533050  27.1154550   8.2548910  45.5171560  27.3870650   9.0855790
  42.4872510  28.4724110   6.3217950  43.1743640  29.0193320   6.7025540
  41.7004930  29.0164840   6.3567560  34.6264910  24.0896930   1.8135030
  35.4959760  24.3721730   2.0970950  34.1355230  24.9032800   1.6983840
  41.7899720  25.4770140   5.9343310  42.2462500  26.2875390   6.1603500
  41.4387930  25.1593280   6.7661800  44.0932330  30.9876480  13.1635610
  44.7374550  31.1935860  13.8409030  44.4561770  30.2264880  12.7106460
  37.6911500  15.8207790   6.4065830  37.5626130  15.8125690   7.3550750
  36.8673520  16.1590880   6.0556840  45.3664410  28.9908830  11.8813060
  46.0086640  28.2901990  11.9945230  45.8913760  29.7707270  11.7009950
  47.1402030  29.7903730  15.0849120  47.4758270  30.3770420  15.7627040
  46.2202370  29.6596440  15.3146910  34.9936160  33.3024310   2.3796660
  35.3533800  33.9013650   1.7253930  34.8528500  33.8484200   3.1531690
  34.6905430  17.5798910  15.8672530  33.9763950  17.7795830  16.4725140
  35.1100470  16.8038480  16.2387330  48.7936380  27.1929390   3.2666360
  48.5058080  27.6542080   4.0544240  49.5888550  26.7327160   3.5350580
  34.9778020  31.5679170  16.8539060  35.0869140  30.6273910  16.7134450
  34.3258580  31.8333920  16.2052790  41.0104780  30.6855510   3.1970330
  41.0014880  31.4185200   2.5814840  40.0903140  30.4387090   3.2897290
  36.6111420  25.9070400   3.9417090  36.0039370  26.6469300   3.9512390
  37.0860770  25.9969760   3.1155290  46.1844210  20.0721220  13.6173980
  46.5525030  19.2516430  13.9453550  45.3242410  20.1323110  14.0329630
  49.5506240  19.0278160   4.4261540  48.9219400  19.1323830   3.7119770
  49.0558160  19.2474940   5.2155420  41.5190270  21.3064110   5.8419420
  40.8106420  21.7750450   6.2833030  41.8034750  20.6486120   6.4764610
  43.1446200  22.7260810  13.8411950  43.6431450  23.2006630  14.5063800
  43.2869150  21.8024330  14.0481980  45.5505700  18.0314770   7.2815210
  45.4273480  18.0500900   6.3324720  46.4990260  18.0793710   7.4013610
  42.6382490  33.2670070   6.5543190  42.8923990  33.2291460   5.6322560
  41.6894970  33.1403400   6.5471440  39.7225290  19.6149190   3.2170130
  40.5715820  20.0519340   3.1510320  39.3556560  19.9269450   4.0442190
  50.3513060  18.9428770  14.6840340  49.8486660  19.6834170  15.0234150
  51.1669720  19.3312770  14.3677130  48.6435070  24.1861950   8.1301700
  47.7025210  24.2012180   8.3049390  48.9579140  23.3997910   8.5762000
  37.3163470  23.3006620   2.3738550  37.3967060  22.3534130   2.4855950
  38.2083220  23.6313500   2.4799210  50.6460650  31.3570800   9.8055960
  50.7708070  32.1801970  10.2779770  51.5126210  31.1461530   9.4580110
  38.1178180  33.4502010   9.4773090  38.8540660  32.9017470   9.7481660
  38.5019100  34.3158020   9.3379080  35.0023660  29.5175580   5.3514600
  34.0763440  29.7596720   5.3420010  35.4680090  30.3449840   5.2299350
  45.9601090  28.7427950  18.6134080  45.3539250  28.7659550  17.8729830
  45.6555200  28.0110990  19.1501330  47.3901460  32.4708240  17.2243490
  48.3423210  32.3866260  17.1743730  47.2429680  33.1349950  17.8977280
  50.2810660  31.8502450   2.7235400  49.9952170  31.4367590   1.9089580
  50.0830210  32.7790160   2.6035920  34.8434270  25.1221540  17.6094720
  35.3473290  24.5428820  18.1810950  34.1041690  25.4061770  18.1471090
  41.8972210  26.5292530  17.1430240  41.1317880  27.0977530  17.0584910
  42.0788170  26.2368740  16.2498470  44.9860620  26.9055760   1.7683000
  44.4370720  27.3525060   2.4125740  45.6079880  26.4005010   2.2920670
  49.0395560  28.2597860  17.7005260  49.7805030  28.5973620  17.1972720
  48.2768240  28.4289920  17.1475030  36.8757350  23.2651130  18.5044790
  36.9162690  22.9665000  19.4130020  37.7302850  23.6658740  18.3452310
  40.6535740  25.8646680   3.6648300  41.0752160  25.6986550   4.5079690
  40.7786580  25.0546910   3.1703440  38.8163160  21.8443230  16.4719280
  38.2859620  21.3534180  15.8442620  39.4851230  22.2727430  15.9377210
  47.7141220  26.3112690  16.2360470  48.1282240  26.4657770  17.0850890
  46.7792220  26.4367910  16.3986250  48.1863390  23.6508850  18.2399620
  48.7684160  22.8961170  18.1520100  48.3625160  24.1816290  17.4631100
  39.3035460  18.8105600  16.5516570  39.2092330  18.1926350  15.8267440
  38.7232850  19.5371890  16.3246480  42.0696900  17.3678840  13.5843960
  41.6214200  17.3903100  12.7389510  41.4362100  16.9697860  14.1814260
  42.4756450  26.2633170  14.2056400  42.8944560  27.1065900  14.0332640
  41.5565080  26.4005210  13.9763180  44.8120350  23.9949350  15.5894240
  44.9316560  23.3990490  16.3289080  45.6714350  24.0319040  15.1695540
  47.1508250  24.5486540  14.1656750  46.6243470  25.0729160  13.5621890
  47.4939590  25.1813930  14.7966480  40.3263870  32.5686180  15.3214130
  39.7884960  33.2932240  15.0022830  40.5797830  32.0916520  14.5311470
  41.5789120  20.5370700  16.8470060  42.1688810  20.2286550  17.5347880
  40.7609360  20.0650450  17.0029960  46.3982550  20.1536510  17.0803080
  45.7098070  19.4918050  17.0153070  47.1188570  19.7074780  17.5251540
  47.0282950  16.7488140   3.1393340  47.3085240  15.9056040   3.4952760
  46.2548680  16.9811250   3.6532090  43.1826080  33.8037390  15.5800780
  43.1084780  34.7072530  15.8873150  42.2804920  33.4849290  15.5522850
  43.7311410  32.9695900   3.2027140  44.6262200  33.3080870   3.2245900
  43.7629040  32.2475310   2.5751420  34.5853370  31.1311980   8.8834400
  34.9156380  30.2633040   8.6513040  35.0144370  31.3370500   9.7139360
  39.1815290  29.4620990   6.5436370  38.8810830  29.3385960   7.4440280
  39.0752780  28.6029580   6.1352100  35.0743580  31.9982570  11.6216030
  34.6374570  32.1783370  12.4540180  35.6421260  32.7557190  11.4797750
  50.7105760  31.4999570  15.9093340  50.1107750  31.5592130  15.1657260
  50.8399660  30.5604550  16.0390190  51.4063670  25.9864870   3.7497250
  52.1682580  26.5561520   3.8556940  51.4218040  25.4192070   4.5205560
  34.9068010  24.5102800   7.9804910  34.2516850  24.2414440   7.3364610
  35.7445960  24.4007280   7.5306890  52.4123640  26.8414970   8.5939180
  52.7832470  26.0582290   8.1875150  53.0525570  27.5304070   8.4156480
  49.3957400  28.2251550  14.0069500  48.5817240  28.6548710  14.2695290
  49.8031600  28.8369960  13.3938550  51.3548180  24.2168230   5.8999200
  50.9791780  23.4496160   5.4680490  50.6251300  24.5990930   6.3874130
  35.9443940  24.8955370  12.5208250  36.3116980  24.8082770  13.4004270
  35.3754760  24.1321920  12.4215110  50.7447800  23.3639750  15.5338720
  50.5133890  23.1352500  14.6336670  51.0052350  24.2839300  15.4883610
  35.4959940  21.8064460  16.4266670  34.6015990  21.7731220  16.7660380
  36.0357490  22.0051250  17.1917920  49.1835870  18.5896180  18.3118420
  50.0606050  18.5979580  18.6952420  49.1956710  17.8527020  17.7010770
  34.1206090  21.7201730   3.9230240  33.2170170  21.9831930   3.7481900
  34.6046710  21.9912900   3.1430200  50.6299140  22.4425720   9.2006440
  51.1536620  21.9488370   8.5696610  51.2158560  22.5776080   9.9454010
  50.8088860  22.5265590  12.7225990  49.8591570  22.4929130  12.8370980
  50.9901870  23.4365700  12.4875760  50.1199110  21.6999070   5.1398850
  50.6158230  21.4669940   5.9247730  49.9215180  20.8610910   4.7236490
  35.9999650  16.0812790  10.7749890  36.6475840  15.5310170  10.3345050
  36.4201490  16.3355940  11.5965700  51.5486270  20.3360020   7.6736530
  51.4385550  20.1816060   8.6118800  52.3093860  19.8080960   7.4311940
  49.8951990  16.2754150  14.1319530  50.5324210  16.8888290  14.4978720
  50.0426880  16.3114810  13.1868760  52.5115030  18.9378600   3.5399380
  51.7166530  18.8723720   4.0692290  52.7158310  19.8729240   3.5284730
  49.4533450  32.9770150   7.5337770  50.0492520  32.6554720   6.8572190
  49.7111600  32.5041970   8.3251040  35.7531650  16.2368460  13.5175210
  35.4046470  16.6932280  14.2833390  35.4219350  15.3425590  13.5997640
  41.0602050  30.9647650  13.2838120  40.8193410  31.2322210  12.3968640
  42.0004690  31.1353380  13.3388980  43.2656470  17.4280340  17.0394630
  43.2045360  18.0202170  17.7890040  44.2056850  17.3206300  16.8944890
  45.9031030  17.0850400  16.6786920  46.5171440  17.4029690  16.0168000
  46.4480590  16.5998990  17.2982780  52.3206210  32.9842030  14.0848760
  51.8264490  33.3810900  13.3675890  51.7119500  32.3591240  14.4786040
  36.4252290  15.7644660  16.7925980  36.9735280  15.5832710  16.0292090
  36.4907600  14.9738770  17.3282290  37.1984050  32.3550310  14.8026180
  36.6044370  32.2235010  15.5416220  37.1907890  31.5188450  14.3368280
  46.6439070  15.6482540  13.0056210  45.7698910  15.9817650  12.8029140
  46.5349820  15.1755720  13.8308080  47.5511050  17.8553410  14.3897930
  47.2224410  17.0405170  14.0099660  48.4993350  17.8123220  14.2663620
  50.0045660  33.6265450  11.3635500  49.5448630  34.3781260  10.9893520
  49.3758120  32.9071920  11.3050300  36.8296280  29.7208690  13.7534220
  36.1030340  29.1013980  13.6860170  36.8905430  30.1149300  12.8832300
  40.4341380  31.9353690  10.5383630  40.9506400  31.3241050  10.0131890
  41.0838760  32.4382470  11.0294640  43.1736880  32.8262180  11.3652610
  43.4614690  32.5716480  10.4885620  43.6860100  32.2739540  11.9558180
  44.3913890  16.5652380  11.9449120  43.6085680  17.0397880  12.2245880
  44.0976820  15.6607210  11.8362300  48.9434960  17.2675480   9.9898210
  49.3843050  17.2120580   9.1419810  48.6742550  18.1833490  10.0608390
  50.8073530  16.8990720   8.0007030  50.7461930  15.9551940   7.8538050
  51.5865560  17.0070810   8.5460490  35.1126280  33.0383080   6.9630980
  34.9448320  32.4053760   7.6612870  34.2460790  33.2442480   6.6125170
  35.7354300  16.8699860   4.4662840  36.4933660  16.9828740   3.8926870
  35.2731470  17.7069060   4.4206270  42.2768110  18.9839130   7.4565150
  41.4642620  18.6096020   7.1161030  42.7809750  18.2284210   7.7586340
  46.7793090  15.6481580   8.6948220  47.3822460  16.2201790   9.1696740
  46.0386080  16.2121020   8.4722120  49.9227690  16.0503140   3.9688500
  50.1178320  16.9486590   4.2355930  49.1357560  15.8190220   4.4621450
  36.7188980  31.7316310   4.4081120  36.1936600  32.1124340   3.7043080
  36.6433560  32.3567080   5.1290830  38.1079450  17.3963910   3.0064810
  38.6372210  16.6093710   2.8772760  38.7407770  18.0755100   3.2400340
  40.3017290  17.1339050   6.0610200  39.6720030  16.4326360   6.2280330
  39.7622430  17.8943180   5.8443360  43.2409240  33.7478280  18.7320810
  44.1676550  33.5122550  18.7756770  43.2259670  34.5750280  18.2506840
  51.4754300  33.2903850   5.7295060  51.6506490  32.6041590   5.0855980
  50.7775870  33.8150900   5.3371730  40.4272850  16.4123030  18.4962690
  40.1457120  16.9156630  17.7323510  40.8092550  15.6144780  18.1304820
  39.3181950  33.6798690   3.2830370  40.0500770  33.3957970   2.7354260
  39.5775620  33.4411970   4.1729750  38.4796740  29.7963420   3.2876700
  37.8505620  30.2648520   3.8362530  38.5944570  28.9512640   3.7222890
  47.0288310  15.8276610  19.0743160  46.9153760  16.1471220  19.9694680
  47.8458050  16.2289120  18.7780440  49.8086800  32.9748140  18.5561850
  50.6012120  32.4797370  18.3487810  50.1019950  33.6538280  19.1637460
  45.9346460   5.0725590  45.7608370  45.8540510   4.1580200  45.4900080
  45.5210880   5.5692660  45.0548080  44.0664500   6.8504610  47.6417640
  43.2906600   6.3705050  47.9316210  44.7177430   6.1710260  47.4673800
  38.0830330   7.1624420  48.5193400  37.2515210   6.9073130  48.9189910
  38.6911310   7.2335190  49.2551320  48.0871930  11.2564800  46.4216770
  47.6253460  10.4852040  46.7503940  48.8997480  11.2830870  46.9269220
  38.0631590  11.1964510  48.7151420  38.3659630  10.3062250  48.5361640
  38.8075180  11.7534730  48.4873670  36.4922280   2.1226310  42.3035790
  35.6038980   2.4642280  42.2015670  36.7763470   1.9226630  41.4116620
  34.4555290   4.7231960  48.1875490  35.0271400   3.9554160  48.1879130
  34.4556830   5.0220720  47.2782100  44.3135240  13.5422810  46.0420760
  43.6946680  13.9980310  45.4715200  45.1687020  13.6974270  45.6410460
  43.5073490   9.5261800  47.6487800  43.4381770   8.5851740  47.4876930
  44.2693350   9.6163210  48.2210370  36.3166830   2.6276820  48.5826760
  36.9976940   2.8915190  49.2014160  36.0014880   1.7877690  48.9164770
  40.5091400   3.6744180  47.6699350  41.0169620   4.1725150  48.3104370
  41.0404640   2.8979380  47.4938710  52.6102330   1.8449370  51.3728700
  51.9054500   2.2331080  50.8543810  52.8760250   2.5399660  51.9749630
  45.1798590   8.4262050  43.4352670  44.5615860   8.8911500  42.8715390
  45.6921840   9.1189530  43.8522180  40.0430350   7.9537920  50.1136270
  39.7099730   8.5806840  50.7557340  40.2197030   8.4799800  49.3337940
  48.5564260   1.7683000  47.5812610  47.8519830   2.0567890  48.1615720
  48.9176420   2.5783110  47.2212170  39.2549450   9.9218720  51.9285450
  39.8723450  10.5969800  51.6469900  38.3942570  10.3306700  51.8372950
  34.5481790   9.1118580  40.8092300  34.1709770   9.6005680  40.0777200
  34.8054860   9.7843860  41.4398830  50.1727040  11.3858130  49.8440090
  49.4890560  12.0557240  49.8356760  50.7121330  11.5838780  49.0784950
  47.7085780  13.2302260  48.5585270  47.7212940  12.8264550  47.6907530
  47.1561000  14.0049550  48.4546700  49.0031200   9.9518480  43.6475440
  48.8927530   9.0092810  43.7724860  48.9999450  10.3134120  44.5338200
  47.1071220   8.1332100  49.8867880  47.5240010   7.9192210  49.0521340
  47.8311040   8.3904890  50.4576500  44.5451480   5.5783800  43.0037930
  43.6180760   5.5121180  43.2326400  44.6976300   6.5163930  42.8893170
  44.5320560   1.8500800  40.0005090  43.5924230   2.0114760  40.0857550
  44.8503820   2.5686480  39.4541080  51.0533320   6.5319320  49.9784120
  50.2251950   6.6012410  49.5034250  51.6483800   7.1173630  49.5099950
  48.5748770   7.1404100  43.5073180  47.9561190   6.8023650  42.8599480
  48.5573220   6.4963860  44.2152370  48.0175330   3.3188640  50.9238990
  47.6046510   4.1442350  51.1778980  47.2851280   2.7333680  50.7315350
  40.1508120   6.1048540  45.7857660  39.7465120   5.3925790  45.2903560
  40.2371240   5.7601780  46.6745700  40.6189820   9.7916100  47.9496870
  40.3218110   9.1861570  47.2704650  41.5689640   9.8293410  47.8386230
  38.8636740   2.8791750  49.5656700  39.4151330   2.9887090  48.7909950
  39.3780250   3.2529350  50.2811930  48.7075430  13.3647970  51.6119970
  48.2305990  14.1720160  51.4192580  48.0237220  12.7126300  51.7646180
  39.7108250   9.5297790  54.6004670  38.8136780   9.7537760  54.8478070
  39.7361120   9.6532730  53.6516070  46.7513470   6.3790910  40.5145930
  47.1906750   5.5413340  40.3683750  47.4641890   7.0120310  40.6010070
  38.5379470   6.4011110  53.1762040  38.3987240   7.2733910  53.5449440
  37.6560830   6.0583920  53.0309980  44.8608850  11.3186980  44.4827170
  45.3004760  12.0611310  44.0682560  44.7995740  11.5613550  45.4066130
  40.3359820  12.3432810  55.3847190  40.3075250  12.7475760  54.5175620
  40.1724790  11.4143170  55.2218790  36.8512750   4.9993520  43.2864310
  36.7310350   5.7255610  42.6745580  36.5413640   4.2296430  42.8092220
  34.4898120   8.1708660  49.0932950  34.5678540   8.3057430  48.1488670
  35.1039800   7.4624550  49.2861070  35.7345750   9.8708850  45.5039130
  35.3273830  10.0123440  44.6492730  36.6258760   9.5869010  45.3010340
  51.6907890  10.3172760  53.8411370  51.8170950  10.0784640  52.9228550
  51.7329270   9.4857300  54.3133450  45.5524630  14.0200760  52.4106180
  46.0669300  13.9308770  53.2128610  44.7093710  14.3660460  52.7034090
  47.5279030  14.3056100  41.8390180  47.3680170  14.0159040  42.7372010
  47.3625740  13.5296230  41.3035410  40.0067410  14.0854630  43.6161800
  39.8309890  13.1690170  43.4029600  39.1523150  14.4441920  43.8559600
  47.2305160  11.8143660  40.3988180  46.5370320  11.8120950  39.7390460
  47.9728020  11.3902980  39.9682350  46.7955090  13.4406370  44.4736670
  47.2512040  12.6595750  44.7875290  47.1347610  14.1513190  45.0177850
  34.5457640   9.2122830  51.6327410  34.7088680   8.7428190  50.8146780
  35.0110090   8.7046390  52.2976250  48.6050730   2.4306060  53.4019960
  47.7544320   2.1311810  53.7229030  48.4452520   2.6748070  52.4903780
  45.7000440   3.9307810  55.5018750  46.0253850   3.0971560  55.1620980
  46.4880770   4.4536330  55.6497080  39.1090630   3.4662160  44.3969230
  38.8831550   3.2499330  45.3015850  38.3283160   3.8990620  44.0515200
  46.3388390   3.4725530  42.9959880  45.7397280   4.1961330  42.8123500
  46.8868000   3.4102310  42.2136330  41.5489840   4.3647740  55.0629500
  41.4533440   3.4242470  54.9129900  42.3921820   4.5862810  54.6677570
  34.1687660   2.6409990  38.4596080  34.0862330   3.5840750  38.6011070
  33.8170720   2.4984900  37.5808430  45.5308400   4.6994820  49.1213940
  44.7989520   5.2081630  49.4704040  45.1332740   3.8824800  48.8202720
  42.0305940   2.3761100  40.5173190  42.1518760   2.3347580  41.4659010
  41.6454450   3.2385250  40.3619920  41.0427440   4.6862240  39.9156490
  40.4744340   4.2380490  39.2892400  41.7516440   5.0455020  39.3821640
  36.1196620   8.5874260  53.7923220  35.7351410   7.9467930  54.3906180
  36.4308810   9.2910380  54.3617950  42.2693760   5.4350800  49.2731840
  42.6363890   4.9609370  50.0193180  42.0798820   6.3092370  49.6140180
  40.0593130   4.4759440  51.5916050  39.7550200   5.3551420  51.8166410
  41.0139590   4.5359230  51.6273490  38.5874920   8.6820430  42.1882900
  37.8137180   8.1418050  42.0281620  39.3169550   8.1627040  41.8500660
  49.3462900   7.6785790  47.9809290  50.0662020   8.1741080  47.5905400
  49.1444720   7.0003680  47.3363160  44.7281700   7.7494850  53.8678290
  44.6619010   6.8290520  53.6135880  44.0986840   7.8470290  54.5822930
  47.5221230   3.4443400  40.4200840  48.4100850   3.7560630  40.2452180
  47.4926320   2.5715650  40.0281420  38.6312320   8.3500810  45.8261710
  39.1490990   7.5469070  45.7718600  38.1796340   8.2879950  46.6678540
  43.5181820   9.6167090  41.0989010  43.8597520  10.3609320  40.6032330
  42.6894530   9.9298210  41.4613840  36.1156860   5.3162180  52.7387410
  35.7571800   5.9816030  53.3260750  35.8211420   4.4845730  53.1100030
  39.3169980   5.7746420  55.6226960  39.0170120   5.9203600  54.7254780
  40.0881220   5.2151710  55.5300350  44.6598430  10.5715420  53.6182090
  44.6742970   9.6396380  53.4001000  43.9523530  10.6575180  54.2571860
  49.7935500   4.7555240  39.8880700  49.7099220   5.1869460  39.0377140
  50.5129690   5.2153590  40.3207520  50.8709640   7.2122760  52.9650670
  50.1457830   7.8051540  52.7680060  51.3985100   7.2046300  52.1664040
  50.8222750  11.6097500  42.6162830  50.1798910  10.9553120  42.8906550
  50.4353410  12.0152590  41.8403500  46.4009230   8.9382930  46.4634520
  46.7533050   8.3411060  45.8035890  45.5171560   8.6127160  46.6342770
  42.4872510   9.6980620  43.8704930  43.1743640  10.2449830  44.2512520
  41.7004930  10.2421350  43.9054540  34.6264910   5.3153440  39.3622010
  35.4959760   5.5978240  39.6457930  34.1355230   6.1289310  39.2470820
  41.7899720   6.7026650  43.4830290  42.2462500   7.5131900  43.7090480
  41.4387930   6.3849790  44.3148780  44.0932330  12.2132990  50.7122590
  44.7374550  12.4192370  51.3896010  44.4561770  11.4521390  50.2593440
  45.3664410  10.2165340  49.4300040  46.0086640   9.5158500  49.5432210
  45.8913760  10.9963780  49.2496930  49.2120130  10.5013960  39.1539180
  48.9857710   9.7844400  39.7463820  48.8216330  10.2526400  38.3160930
  47.1402030  11.0160240  52.6336100  47.4758270  11.6026930  53.3114020
  46.2202370  10.8852950  52.8633890  34.9936160  14.5280820  39.9283640
  35.3533800  15.1270160  39.2740910  34.8528500  15.0740710  40.7018670
  48.7936380   8.4185900  40.8153340  48.5058080   8.8798590  41.6031220
  49.5888550   7.9583670  41.0837560  34.9778020  12.7935680  54.4026040
  35.0869140  11.8530420  54.2621430  34.3258580  13.0590430  53.7539770
  41.0104780  11.9112020  40.7457310  41.0014880  12.6441710  40.1301820
  40.0903140  11.6643600  40.8384270  36.6111420   7.1326910  41.4904070
  36.0039370   7.8725810  41.4999370  37.0860770   7.2226270  40.6642270
  43.9964380  11.9740260  39.4082500  44.0976360  11.7704250  38.4784480
  43.0966120  11.7198540  39.6130280  41.5190270   2.5320620  43.3906400
  40.8106420   3.0006960  43.8320010  41.8034750   1.8742630  44.0251590
  43.1446200   3.9517320  51.3898930  43.6431450   4.4263140  52.0550780
  43.2869150   3.0280840  51.5968960  42.6382490  14.4926580  44.1030170
  42.8923990  14.4547970  43.1809540  41.6894970  14.3659910  44.0958420
  48.6435070   5.4118460  45.6788680  47.7025210   5.4268690  45.8536370
  48.9579140   4.6254420  46.1248980  38.6216710   7.0938060  39.2392640
  39.3879980   6.9819420  39.8018070  38.6991400   6.3976030  38.5869410
  37.3163470   4.5263130  39.9225530  37.3967060   3.5790640  40.0342930
  38.2083220   4.8570010  40.0286190  50.6460650  12.5827310  47.3542940
  50.7708070  13.4058480  47.8266750  51.5126210  12.3718040  47.0067090
  38.1178180  14.6758520  47.0260070  38.8540660  14.1273980  47.2968640
  38.5019100  15.5414530  46.8866060  35.0023660  10.7432090  42.9001580
  34.0763440  10.9853230  42.8906990  35.4680090  11.5706350  42.7786330
  41.2280490  13.8488830  38.8485640  42.0209100  14.1377660  38.3967430
  40.7084840  13.4181000  38.1698120  47.3901460  13.6964750  54.7730470
  48.3423210  13.6122770  54.7230710  47.2429680  14.3606460  55.4464260
  50.2810660  13.0758960  40.2722380  49.9952170  12.6624100  39.4576560
  50.0830210  14.0046670  40.1522900  41.7457890   9.0692240  38.7127990
  41.6408530   8.4544590  39.4389370  41.5782110   8.5458130  37.9291000
  41.8972210   7.7549040  54.6917220  41.1317880   8.3234040  54.6071890
  42.0788170   7.4625250  53.7985450  44.9860620   8.1312270  39.3169980
  44.4370720   8.5781570  39.9612720  45.6079880   7.6261520  39.8407650
  49.0395560   9.4854370  55.2492240  49.7805030   9.8230130  54.7459700
  48.2768240   9.6546430  54.6962010  40.6535740   7.0903190  41.2135280
  41.0752160   6.9243060  42.0566670  40.7786580   6.2803420  40.7190420
  38.8163160   3.0699740  54.0206260  38.2859620   2.5790690  53.3929600
  39.4851230   3.4983940  53.4864190  43.1663380   6.1140800  38.4612380
  43.6869040   5.3989820  38.0953530  43.8131780   6.7526670  38.7612890
  47.7141220   7.5369200  53.7847450  48.1282240   7.6914280  54.6337870
  46.7792220   7.6624420  53.9473230  42.4756450   7.4889680  51.7543380
  42.8944560   8.3322410  51.5819620  41.5565080   7.6261720  51.5250160
  44.8120350   5.2205860  53.1381220  44.9316560   4.6247000  53.8776060
  45.6714350   5.2575550  52.7182520  47.1508250   5.7743050  51.7143730
  46.6243470   6.2985670  51.1108870  47.4939590   6.4070440  52.3453460
  39.5494640   3.1636420  38.1593440  39.3483700   2.3003780  38.5206780
  39.3786690   3.0769780  37.2215040  40.3263870  13.7942690  52.8701110
  39.7884960  14.5188750  52.5509810  40.5797830  13.3173030  52.0798450
  43.1826080  15.0293900  53.1287760  43.1084780  15.9329040  53.4360130
  42.2804920  14.7105800  53.1009830  43.7311410  14.1952410  40.7514120
  44.6262200  14.5337380  40.7732880  43.7629040  13.4731820  40.1238400
  37.3707570   9.5679460  38.9801120  37.8082440  10.1109130  39.6358700
  37.8555300   8.7426410  38.9897460  34.5853370  12.3568490  46.4321380
  34.9156380  11.4889550  46.2000020  35.0144370  12.5627010  47.2626340
  39.1815290  10.6877500  44.0923350  38.8810830  10.5642470  44.9927260
  39.0752780   9.8286090  43.6839080  35.0743580  13.2239080  49.1703010
  34.6374570  13.4039880  50.0027160  35.6421260  13.9813700  49.0284730
  50.7105760  12.7256080  53.4580320  50.1107750  12.7848640  52.7144240
  50.8399660  11.7861060  53.5877170  51.9507210  10.4673900  38.7950030
  51.1200170  10.5350550  39.2657260  52.1279040  11.3578020  38.4916890
  51.4063670   7.2121380  41.2984230  52.1682580   7.7818030  41.4043920
  51.4218040   6.6448580  42.0692540  34.9068010   5.7359310  45.5291890
  34.2516850   5.4670950  44.8851590  35.7445960   5.6263790  45.0793870
  52.4123640   8.0671480  46.1426160  52.7832470   7.2838800  45.7362130
  53.0525570   8.7560580  45.9643460  49.3957400   9.4508060  51.5556480
  48.5817240   9.8805220  51.8182270  49.8031600  10.0626470  50.9425530
  51.4582840   7.5055750  38.4556750  51.7331680   8.4134630  38.3275970
  51.2693580   7.4418280  39.3918740  51.3548180   5.4424740  43.4486180
  50.9791780   4.6752670  43.0167470  50.6251300   5.8247440  43.9361110
  35.9443940   6.1211880  50.0695230  36.3116980   6.0339280  50.9491250
  35.3754760   5.3578430  49.9702090  50.7447800   4.5896260  53.0825700
  50.5133890   4.3609010  52.1823650  51.0052350   5.5095810  53.0370590
  35.4959940   3.0320970  53.9753650  34.6015990   2.9987730  54.3147360
  36.0357490   3.2307760  54.7404900  34.1206090   2.9458240  41.4717220
  33.2170170   3.2088440  41.2968880  34.6046710   3.2169410  40.6917180
  50.6299140   3.6682230  46.7493420  51.1536620   3.1744880  46.1183590
  51.2158560   3.8032590  47.4940990  50.8088860   3.7522100  50.2712970
  49.8591570   3.7185640  50.3857960  50.9901870   4.6622210  50.0362740
  36.6633300   2.0023780  39.3811600  37.3725000   1.5807000  38.8958880
  35.9473240   2.0699010  38.7494950  50.1199110   2.9255580  42.6885830
  50.6158230   2.6926450  43.4734710  49.9215180   2.0867420  42.2723470
  49.4533450  14.2026660  45.0824750  50.0492520  13.8811230  44.4059170
  49.7111600  13.7298480  45.8738020  41.0602050  12.1904160  50.8325100
  40.8193410  12.4578720  49.9455620  42.0004690  12.3609890  50.8875960
  52.3206210  14.2098540  51.6335740  51.8264490  14.6067410  50.9162870
  51.7119500  13.5847750  52.0273020  37.1984050  13.5806820  52.3513160
  36.6044370  13.4491520  53.0903200  37.1907890  12.7444960  51.8855260
  50.0045660  14.8521960  48.9122480  49.5448630  15.6037770  48.5380500
  49.3758120  14.1328430  48.8537280  36.8296280  10.9465200  51.3021200
  36.1030340  10.3270490  51.2347150  36.8905430  11.3405810  50.4319280
  40.4341380  13.1610200  48.0870610  40.9506400  12.5497560  47.5618870
  41.0838760  13.6638980  48.5781620  43.1736880  14.0518690  48.9139590
  43.4614690  13.7972990  48.0372600  43.6860100  13.4996050  49.5045160
  35.1126280  14.2639590  44.5117960  34.9448320  13.6310270  45.2099850
  34.2460790  14.4698990  44.1612150  36.7188980  12.9572820  41.9568100
  36.1936600  13.3380850  41.2530060  36.6433560  13.5823590  42.6777810
  51.4754300  14.5160360  43.2782040  51.6506490  13.8298100  42.6342960
  50.7775870  15.0407410  42.8858710  39.3181950  14.9055200  40.8317350
  40.0500770  14.6214480  40.2841240  39.5775620  14.6668480  41.7216730
  38.4796740  11.0219930  40.8363680  37.8505620  11.4905030  41.3849510
  38.5944570  10.1769150  41.2709870  45.9346460   5.0725590  26.9864880
  45.8540510   4.1580200  26.7156590  45.5210880   5.5692660  26.2804590
  44.0664500   6.8504610  28.8674150  43.2906600   6.3705050  29.1572720
  44.7177430   6.1710260  28.6930310  38.0830330   7.1624420  29.7449910
  37.2515210   6.9073130  30.1446420  38.6911310   7.2335190  30.4807830
  48.0871930  11.2564800  27.6473280  47.6253460  10.4852040  27.9760450
  48.8997480  11.2830870  28.1525730  38.0631590  11.1964510  29.9407930
  38.3659630  10.3062250  29.7618150  38.8075180  11.7534730  29.7130180
  36.4922280   2.1226310  23.5292300  35.6038980   2.4642280  23.4272180
  36.7763470   1.9226630  22.6373130  34.4555290   4.7231960  29.4132000
  35.0271400   3.9554160  29.4135640  34.4556830   5.0220720  28.5038610
  44.3135240  13.5422810  27.2677270  43.6946680  13.9980310  26.6971710
  45.1687020  13.6974270  26.8666970  43.5073490   9.5261800  28.8744310
  43.4381770   8.5851740  28.7133440  44.2693350   9.6163210  29.4466880
  36.3166830   2.6276820  29.8083270  36.9976940   2.8915190  30.4270670
  36.0014880   1.7877690  30.1421280  40.5091400   3.6744180  28.8955860
  41.0169620   4.1725150  29.5360880  41.0404640   2.8979380  28.7195220
  52.6102330   1.8449370  32.5985210  51.9054500   2.2331080  32.0800320
  52.8760250   2.5399660  33.2006140  45.1798590   8.4262050  24.6609180
  44.5615860   8.8911500  24.0971900  45.6921840   9.1189530  25.0778690
  40.0430350   7.9537920  31.3392780  39.7099730   8.5806840  31.9813850
  40.2197030   8.4799800  30.5594450  48.5564260   1.7683000  28.8069120
  47.8519830   2.0567890  29.3872230  48.9176420   2.5783110  28.4468680
  39.2549450   9.9218720  33.1541960  39.8723450  10.5969800  32.8726410
  38.3942570  10.3306700  33.0629460  34.5481790   9.1118580  22.0348810
  34.1709770   9.6005680  21.3033710  34.8054860   9.7843860  22.6655340
  50.1727040  11.3858130  31.0696600  49.4890560  12.0557240  31.0613270
  50.7121330  11.5838780  30.3041460  47.7085780  13.2302260  29.7841780
  47.7212940  12.8264550  28.9164040  47.1561000  14.0049550  29.6803210
  49.0031200   9.9518480  24.8731950  48.8927530   9.0092810  24.9981370
  48.9999450  10.3134120  25.7594710  47.1071220   8.1332100  31.1124390
  47.5240010   7.9192210  30.2777850  47.8311040   8.3904890  31.6833010
  44.5451480   5.5783800  24.2294440  43.6180760   5.5121180  24.4582910
  44.6976300   6.5163930  24.1149680  44.5320560   1.8500800  21.2261600
  43.5924230   2.0114760  21.3114060  44.8503820   2.5686480  20.6797590
  51.0533320   6.5319320  31.2040630  50.2251950   6.6012410  30.7290760
  51.6483800   7.1173630  30.7356460  48.5748770   7.1404100  24.7329690
  47.9561190   6.8023650  24.0855990  48.5573220   6.4963860  25.4408880
  48.0175330   3.3188640  32.1495500  47.6046510   4.1442350  32.4035490
  47.2851280   2.7333680  31.9571860  40.1508120   6.1048540  27.0114170
  39.7465120   5.3925790  26.5160070  40.2371240   5.7601780  27.9002210
  40.6189820   9.7916100  29.1753380  40.3218110   9.1861570  28.4961160
  41.5689640   9.8293410  29.0642740  38.8636740   2.8791750  30.7913210
  39.4151330   2.9887090  30.0166460  39.3780250   3.2529350  31.5068440
  48.7075430  13.3647970  32.8376480  48.2305990  14.1720160  32.6449090
  48.0237220  12.7126300  32.9902690  39.7108250   9.5297790  35.8261180
  38.8136780   9.7537760  36.0734580  39.7361120   9.6532730  34.8772580
  46.7513470   6.3790910  21.7402440  47.1906750   5.5413340  21.5940260
  47.4641890   7.0120310  21.8266580  38.5379470   6.4011110  34.4018550
  38.3987240   7.2733910  34.7705950  37.6560830   6.0583920  34.2566490
  44.8608850  11.3186980  25.7083680  45.3004760  12.0611310  25.2939070
  44.7995740  11.5613550  26.6322640  40.3359820  12.3432810  36.6103700
  40.3075250  12.7475760  35.7432130  40.1724790  11.4143170  36.4475300
  36.8512750   4.9993520  24.5120820  36.7310350   5.7255610  23.9002090
  36.5413640   4.2296430  24.0348730  52.2874640  13.1259910  37.9067870
  52.7634360  13.6042800  38.5856950  52.9081800  13.0577400  37.1813370
  34.4898120   8.1708660  30.3189460  34.5678540   8.3057430  29.3745180
  35.1039800   7.4624550  30.5117580  35.7345750   9.8708850  26.7295640
  35.3273830  10.0123440  25.8749240  36.6258760   9.5869010  26.5266850
  51.6907890  10.3172760  35.0667880  51.8170950  10.0784640  34.1485060
  51.7329270   9.4857300  35.5389960  45.5524630  14.0200760  33.6362690
  46.0669300  13.9308770  34.4385120  44.7093710  14.3660460  33.9290600
  47.5279030  14.3056100  23.0646690  47.3680170  14.0159040  23.9628520
  47.3625740  13.5296230  22.5291920  40.0067410  14.0854630  24.8418310
  39.8309890  13.1690170  24.6286110  39.1523150  14.4441920  25.0816110
  47.2305160  11.8143660  21.6244690  46.5370320  11.8120950  20.9646970
  47.9728020  11.3902980  21.1938860  46.7955090  13.4406370  25.6993180
  47.2512040  12.6595750  26.0131800  47.1347610  14.1513190  26.2434360
  34.5457640   9.2122830  32.8583920  34.7088680   8.7428190  32.0403290
  35.0110090   8.7046390  33.5232760  48.6050730   2.4306060  34.6276470
  47.7544320   2.1311810  34.9485540  48.4452520   2.6748070  33.7160290
  45.7000440   3.9307810  36.7275260  46.0253850   3.0971560  36.3877490
  46.4880770   4.4536330  36.8753590  39.1090630   3.4662160  25.6225740
  38.8831550   3.2499330  26.5272360  38.3283160   3.8990620  25.2771710
  46.3388390   3.4725530  24.2216390  45.7397280   4.1961330  24.0380010
  46.8868000   3.4102310  23.4392840  41.5489840   4.3647740  36.2886010
  41.4533440   3.4242470  36.1386410  42.3921820   4.5862810  35.8934080
  34.1687660   2.6409990  19.6852590  34.0862330   3.5840750  19.8267580
  33.8170720   2.4984900  18.8064940  45.5308400   4.6994820  30.3470450
  44.7989520   5.2081630  30.6960550  45.1332740   3.8824800  30.0459230
  42.0305940   2.3761100  21.7429700  42.1518760   2.3347580  22.6915520
  41.6454450   3.2385250  21.5876430  41.0427440   4.6862240  21.1413000
  40.4744340   4.2380490  20.5148910  41.7516440   5.0455020  20.6078150
  36.1196620   8.5874260  35.0179730  35.7351410   7.9467930  35.6162690
  36.4308810   9.2910380  35.5874460  42.2693760   5.4350800  30.4988350
  42.6363890   4.9609370  31.2449690  42.0798820   6.3092370  30.8396690
  40.0593130   4.4759440  32.8172560  39.7550200   5.3551420  33.0422920
  41.0139590   4.5359230  32.8530000  38.5874920   8.6820430  23.4139410
  37.8137180   8.1418050  23.2538130  39.3169550   8.1627040  23.0757170
  49.3462900   7.6785790  29.2065800  50.0662020   8.1741080  28.8161910
  49.1444720   7.0003680  28.5619670  44.7281700   7.7494850  35.0934800
  44.6619010   6.8290520  34.8392390  44.0986840   7.8470290  35.8079440
  47.5221230   3.4443400  21.6457350  48.4100850   3.7560630  21.4708690
  47.4926320   2.5715650  21.2537930  38.6312320   8.3500810  27.0518220
  39.1490990   7.5469070  26.9975110  38.1796340   8.2879950  27.8935050
  43.5181820   9.6167090  22.3245520  43.8597520  10.3609320  21.8288840
  42.6894530   9.9298210  22.6870350  36.1156860   5.3162180  33.9643920
  35.7571800   5.9816030  34.5517260  35.8211420   4.4845730  34.3356540
  39.3169980   5.7746420  36.8483470  39.0170120   5.9203600  35.9511290
  40.0881220   5.2151710  36.7556860  44.6598430  10.5715420  34.8438600
  44.6742970   9.6396380  34.6257510  43.9523530  10.6575180  35.4828370
  49.7935500   4.7555240  21.1137210  49.7099220   5.1869460  20.2633650
  50.5129690   5.2153590  21.5464030  50.8709640   7.2122760  34.1907180
  50.1457830   7.8051540  33.9936570  51.3985100   7.2046300  33.3920550
  50.8222750  11.6097500  23.8419340  50.1798910  10.9553120  24.1163060
  50.4353410  12.0152590  23.0660010  46.4009230   8.9382930  27.6891030
  46.7533050   8.3411060  27.0292400  45.5171560   8.6127160  27.8599280
  42.4872510   9.6980620  25.0961440  43.1743640  10.2449830  25.4769030
  41.7004930  10.2421350  25.1311050  34.6264910   5.3153440  20.5878520
  35.4959760   5.5978240  20.8714440  34.1355230   6.1289310  20.4727330
  41.7899720   6.7026650  24.7086800  42.2462500   7.5131900  24.9346990
  41.4387930   6.3849790  25.5405290  44.0932330  12.2132990  31.9379100
  44.7374550  12.4192370  32.6152520  44.4561770  11.4521390  31.4849950
  45.3664410  10.2165340  30.6556550  46.0086640   9.5158500  30.7688720
  45.8913760  10.9963780  30.4753440  49.2120130  10.5013960  20.3795690
  48.9857710   9.7844400  20.9720330  48.8216330  10.2526400  19.5417440
  47.1402030  11.0160240  33.8592610  47.4758270  11.6026930  34.5370530
  46.2202370  10.8852950  34.0890400  34.9936160  14.5280820  21.1540150
  35.3533800  15.1270160  20.4997420  34.8528500  15.0740710  21.9275180
  48.7936380   8.4185900  22.0409850  48.5058080   8.8798590  22.8287730
  49.5888550   7.9583670  22.3094070  34.9778020  12.7935680  35.6282550
  35.0869140  11.8530420  35.4877940  34.3258580  13.0590430  34.9796280
  42.9690610  11.0651570  37.0280670  42.6487480  10.3460810  37.5726360
  42.2948970  11.7406640  37.1016730  41.0104780  11.9112020  21.9713820
  41.0014880  12.6441710  21.3558330  40.0903140  11.6643600  22.0640780
  36.6111420   7.1326910  22.7160580  36.0039370   7.8725810  22.7255880
  37.0860770   7.2226270  21.8898780  43.9964380  11.9740260  20.6339010
  44.0976360  11.7704250  19.7040990  43.0966120  11.7198540  20.8386790
  41.5190270   2.5320620  24.6162910  40.8106420   3.0006960  25.0576520
  41.8034750   1.8742630  25.2508100  43.1446200   3.9517320  32.6155440
  43.6431450   4.4263140  33.2807290  43.2869150   3.0280840  32.8225470
  42.6382490  14.4926580  25.3286680  42.8923990  14.4547970  24.4066050
  41.6894970  14.3659910  25.3214930  48.6435070   5.4118460  26.9045190
  47.7025210   5.4268690  27.0792880  48.9579140   4.6254420  27.3505490
  38.6216710   7.0938060  20.4649150  39.3879980   6.9819420  21.0274580
  38.6991400   6.3976030  19.8125920  37.3163470   4.5263130  21.1482040
  37.3967060   3.5790640  21.2599440  38.2083220   4.8570010  21.2542700
  50.6460650  12.5827310  28.5799450  50.7708070  13.4058480  29.0523260
  51.5126210  12.3718040  28.2323600  38.1178180  14.6758520  28.2516580
  38.8540660  14.1273980  28.5225150  38.5019100  15.5414530  28.1122570
  35.0023660  10.7432090  24.1258090  34.0763440  10.9853230  24.1163500
  35.4680090  11.5706350  24.0042840  37.1236460  13.8604590  37.4402160
  37.9249190  14.1816640  37.8537560  36.6088280  13.5000170  38.1622070
  41.2280490  13.8488830  20.0742150  42.0209100  14.1377660  19.6223940
  40.7084840  13.4181000  19.3954630  45.9601090   9.9684460  37.3877570
  45.3539250   9.9916060  36.6473320  45.6555200   9.2367500  37.9244820
  47.3901460  13.6964750  35.9986980  48.3423210  13.6122770  35.9487220
  47.2429680  14.3606460  36.6720770  50.2810660  13.0758960  21.4978890
  49.9952170  12.6624100  20.6833070  50.0830210  14.0046670  21.3779410
  34.8434270   6.3478050  36.3838210  35.3473290   5.7685330  36.9554440
  34.1041690   6.6318280  36.9214580  41.7457890   9.0692240  19.9384500
  41.6408530   8.4544590  20.6645880  41.5782110   8.5458130  19.1547510
  41.8972210   7.7549040  35.9173730  41.1317880   8.3234040  35.8328400
  42.0788170   7.4625250  35.0241960  44.9860620   8.1312270  20.5426490
  44.4370720   8.5781570  21.1869230  45.6079880   7.6261520  21.0664160
  49.0395560   9.4854370  36.4748750  49.7805030   9.8230130  35.9716210
  48.2768240   9.6546430  35.9218520  36.8757350   4.4907640  37.2788280
  36.9162690   4.1921510  38.1873510  37.7302850   4.8915250  37.1195800
  40.6535740   7.0903190  22.4391790  41.0752160   6.9243060  23.2823180
  40.7786580   6.2803420  21.9446930  38.8163160   3.0699740  35.2462770
  38.2859620   2.5790690  34.6186110  39.4851230   3.4983940  34.7120700
  43.1663380   6.1140800  19.6868890  43.6869040   5.3989820  19.3210040
  43.8131780   6.7526670  19.9869400  47.7141220   7.5369200  35.0103960
  48.1282240   7.6914280  35.8594380  46.7792220   7.6624420  35.1729740
  48.1863390   4.8765360  37.0143110  48.7684160   4.1217680  36.9263590
  48.3625160   5.4072800  36.2374590  42.4756450   7.4889680  32.9799890
  42.8944560   8.3322410  32.8076130  41.5565080   7.6261720  32.7506670
  44.8120350   5.2205860  34.3637730  44.9316560   4.6247000  35.1032570
  45.6714350   5.2575550  33.9439030  47.1508250   5.7743050  32.9400240
  46.6243470   6.2985670  32.3365380  47.4939590   6.4070440  33.5709970
  39.5494640   3.1636420  19.3849950  39.3483700   2.3003780  19.7463290
  39.3786690   3.0769780  18.4471550  40.3263870  13.7942690  34.0957620
  39.7884960  14.5188750  33.7766320  40.5797830  13.3173030  33.3054960
  43.1826080  15.0293900  34.3544270  43.1084780  15.9329040  34.6616640
  42.2804920  14.7105800  34.3266340  43.7311410  14.1952410  21.9770630
  44.6262200  14.5337380  21.9989390  43.7629040  13.4731820  21.3494910
  37.3707570   9.5679460  20.2057630  37.8082440  10.1109130  20.8615210
  37.8555300   8.7426410  20.2153970  34.5853370  12.3568490  27.6577890
  34.9156380  11.4889550  27.4256530  35.0144370  12.5627010  28.4882850
  39.1815290  10.6877500  25.3179860  38.8810830  10.5642470  26.2183770
  39.0752780   9.8286090  24.9095590  35.0743580  13.2239080  30.3959520
  34.6374570  13.4039880  31.2283670  35.6421260  13.9813700  30.2541240
  50.7105760  12.7256080  34.6836830  50.1107750  12.7848640  33.9400750
  50.8399660  11.7861060  34.8133680  51.9507210  10.4673900  20.0206540
  51.1200170  10.5350550  20.4913770  52.1279040  11.3578020  19.7173400
  51.4063670   7.2121380  22.5240740  52.1682580   7.7818030  22.6300430
  51.4218040   6.6448580  23.2949050  34.9068010   5.7359310  26.7548400
  34.2516850   5.4670950  26.1108100  35.7445960   5.6263790  26.3050380
  52.4123640   8.0671480  27.3682670  52.7832470   7.2838800  26.9618640
  53.0525570   8.7560580  27.1899970  49.3957400   9.4508060  32.7812990
  48.5817240   9.8805220  33.0438780  49.8031600  10.0626470  32.1682040
  51.4582840   7.5055750  19.6813260  51.7331680   8.4134630  19.5532480
  51.2693580   7.4418280  20.6175250  51.3548180   5.4424740  24.6742690
  50.9791780   4.6752670  24.2423980  50.6251300   5.8247440  25.1617620
  35.9443940   6.1211880  31.2951740  36.3116980   6.0339280  32.1747760
  35.3754760   5.3578430  31.1958600  50.7447800   4.5896260  34.3082210
  50.5133890   4.3609010  33.4080160  51.0052350   5.5095810  34.2627100
  35.4959940   3.0320970  35.2010160  34.6015990   2.9987730  35.5403870
  36.0357490   3.2307760  35.9661410  34.1206090   2.9458240  22.6973730
  33.2170170   3.2088440  22.5225390  34.6046710   3.2169410  21.9173690
  50.6299140   3.6682230  27.9749930  51.1536620   3.1744880  27.3440100
  51.2158560   3.8032590  28.7197500  50.8088860   3.7522100  31.4969480
  49.8591570   3.7185640  31.6114470  50.9901870   4.6622210  31.2619250
  36.6633300   2.0023780  20.6068110  37.3725000   1.5807000  20.1215390
  35.9473240   2.0699010  19.9751460  50.1199110   2.9255580  23.9142340
  50.6158230   2.6926450  24.6991220  49.9215180   2.0867420  23.4979980
  49.4533450  14.2026660  26.3081260  50.0492520  13.8811230  25.6315680
  49.7111600  13.7298480  27.0994530  37.3596020  10.6344570  36.4571890
  37.3165650  10.2637480  37.3386350  37.4907030  11.5722140  36.5973710
  41.0602050  12.1904160  32.0581610  40.8193410  12.4578720  31.1712130
  42.0004690  12.3609890  32.1132470  52.3206210  14.2098540  32.8592250
  51.8264490  14.6067410  32.1419380  51.7119500  13.5847750  33.2529530
  37.1984050  13.5806820  33.5769670  36.6044370  13.4491520  34.3159710
  37.1907890  12.7444960  33.1111770  50.0045660  14.8521960  30.1378990
  49.5448630  15.6037770  29.7637010  49.3758120  14.1328430  30.0793790
  36.8296280  10.9465200  32.5277710  36.1030340  10.3270490  32.4603660
  36.8905430  11.3405810  31.6575790  40.4341380  13.1610200  29.3127120
  40.9506400  12.5497560  28.7875380  41.0838760  13.6638980  29.8038130
  43.1736880  14.0518690  30.1396100  43.4614690  13.7972990  29.2629110
  43.6860100  13.4996050  30.7301670  35.1126280  14.2639590  25.7374470
  34.9448320  13.6310270  26.4356360  34.2460790  14.4698990  25.3868660
  36.7188980  12.9572820  23.1824610  36.1936600  13.3380850  22.4786570
  36.6433560  13.5823590  23.9034320  43.2409240  14.9734790  37.5064300
  44.1676550  14.7379060  37.5500260  43.2259670  15.8006790  37.0250330
  51.4754300  14.5160360  24.5038550  51.6506490  13.8298100  23.8599470
  50.7775870  15.0407410  24.1115220  39.3181950  14.9055200  22.0573860
  40.0500770  14.6214480  21.5097750  39.5775620  14.6668480  22.9473240
  38.4796740  11.0219930  22.0620190  37.8505620  11.4905030  22.6106020
  38.5944570  10.1769150  22.4966380  49.8086800  14.2004650  37.3305340
  50.6012120  13.7053880  37.1231300  50.1019950  14.8794790  37.9380950
  45.9346460   5.0725590   8.2121390  45.8540510   4.1580200   7.9413100
  45.5210880   5.5692660   7.5061100  44.0664500   6.8504610  10.0930660
  43.2906600   6.3705050  10.3829230  44.7177430   6.1710260   9.9186820
  38.0830330   7.1624420  10.9706420  37.2515210   6.9073130  11.3702930
  38.6911310   7.2335190  11.7064340  48.0871930  11.2564800   8.8729790
  47.6253460  10.4852040   9.2016960  48.8997480  11.2830870   9.3782240
  38.0631590  11.1964510  11.1664440  38.3659630  10.3062250  10.9874660
  38.8075180  11.7534730  10.9386690  36.4922280   2.1226310   4.7548810
  35.6038980   2.4642280   4.6528690  36.7763470   1.9226630   3.8629640
  34.4555290   4.7231960  10.6388510  35.0271400   3.9554160  10.6392150
  34.4556830   5.0220720   9.7295120  44.3135240  13.5422810   8.4933780
  43.6946680  13.9980310   7.9228220  45.1687020  13.6974270   8.0923480
  43.5073490   9.5261800  10.1000820  43.4381770   8.5851740   9.9389950
  44.2693350   9.6163210  10.6723390  36.3166830   2.6276820  11.0339780
  36.9976940   2.8915190  11.6527180  36.0014880   1.7877690  11.3677790
  40.5091400   3.6744180  10.1212370  41.0169620   4.1725150  10.7617390
  41.0404640   2.8979380   9.9451730  52.6102330   1.8449370  13.8241720
  51.9054500   2.2331080  13.3056830  52.8760250   2.5399660  14.4262650
  45.1798590   8.4262050   5.8865690  44.5615860   8.8911500   5.3228410
  45.6921840   9.1189530   6.3035200  40.0430350   7.9537920  12.5649290
  39.7099730   8.5806840  13.2070360  40.2197030   8.4799800  11.7850960
  48.5564260   1.7683000  10.0325630  47.8519830   2.0567890  10.6128740
  48.9176420   2.5783110   9.6725190  39.2549450   9.9218720  14.3798470
  39.8723450  10.5969800  14.0982920  38.3942570  10.3306700  14.2885970
  34.5481790   9.1118580   3.2605320  34.1709770   9.6005680   2.5290220
  34.8054860   9.7843860   3.8911850  50.1727040  11.3858130  12.2953110
  49.4890560  12.0557240  12.2869780  50.7121330  11.5838780  11.5297970
  47.7085780  13.2302260  11.0098290  47.7212940  12.8264550  10.1420550
  47.1561000  14.0049550  10.9059720  49.0031200   9.9518480   6.0988460
  48.8927530   9.0092810   6.2237880  48.9999450  10.3134120   6.9851220
  47.1071220   8.1332100  12.3380900  47.5240010   7.9192210  11.5034360
  47.8311040   8.3904890  12.9089520  44.5451480   5.5783800   5.4550950
  43.6180760   5.5121180   5.6839420  44.6976300   6.5163930   5.3406190
  44.5320560   1.8500800   2.4518110  43.5924230   2.0114760   2.5370570
  44.8503820   2.5686480   1.9054100  51.0533320   6.5319320  12.4297140
  50.2251950   6.6012410  11.9547270  51.6483800   7.1173630  11.9612970
  48.5748770   7.1404100   5.9586200  47.9561190   6.8023650   5.3112500
  48.5573220   6.4963860   6.6665390  48.0175330   3.3188640  13.3752010
  47.6046510   4.1442350  13.6292000  47.2851280   2.7333680  13.1828370
  40.1508120   6.1048540   8.2370680  39.7465120   5.3925790   7.7416580
  40.2371240   5.7601780   9.1258720  40.6189820   9.7916100  10.4009890
  40.3218110   9.1861570   9.7217670  41.5689640   9.8293410  10.2899250
  38.8636740   2.8791750  12.0169720  39.4151330   2.9887090  11.2422970
  39.3780250   3.2529350  12.7324950  48.7075430  13.3647970  14.0632990
  48.2305990  14.1720160  13.8705600  48.0237220  12.7126300  14.2159200
  39.7108250   9.5297790  17.0517690  38.8136780   9.7537760  17.2991090
  39.7361120   9.6532730  16.1029090  46.7513470   6.3790910   2.9658950
  47.1906750   5.5413340   2.8196770  47.4641890   7.0120310   3.0523090
  38.5379470   6.4011110  15.6275060  38.3987240   7.2733910  15.9962460
  37.6560830   6.0583920  15.4823000  44.8608850  11.3186980   6.9340190
  45.3004760  12.0611310   6.5195580  44.7995740  11.5613550   7.8579150
  40.3359820  12.3432810  17.8360210  40.3075250  12.7475760  16.9688640
  40.1724790  11.4143170  17.6731810  36.8512750   4.9993520   5.7377330
  36.7310350   5.7255610   5.1258600  36.5413640   4.2296430   5.2605240
  52.2874640  13.1259910  19.1324380  52.7634360  13.6042800  19.8113460
  52.9081800  13.0577400  18.4069880  34.4898120   8.1708660  11.5445970
  34.5678540   8.3057430  10.6001690  35.1039800   7.4624550  11.7374090
  35.7345750   9.8708850   7.9552150  35.3273830  10.0123440   7.1005750
  36.6258760   9.5869010   7.7523360  51.6907890  10.3172760  16.2924390
  51.8170950  10.0784640  15.3741570  51.7329270   9.4857300  16.7646470
  45.5524630  14.0200760  14.8619200  46.0669300  13.9308770  15.6641630
  44.7093710  14.3660460  15.1547110  47.5279030  14.3056100   4.2903200
  47.3680170  14.0159040   5.1885030  47.3625740  13.5296230   3.7548430
  40.0067410  14.0854630   6.0674820  39.8309890  13.1690170   5.8542620
  39.1523150  14.4441920   6.3072620  47.2305160  11.8143660   2.8501200
  46.5370320  11.8120950   2.1903480  47.9728020  11.3902980   2.4195370
  46.7955090  13.4406370   6.9249690  47.2512040  12.6595750   7.2388310
  47.1347610  14.1513190   7.4690870  34.5457640   9.2122830  14.0840430
  34.7088680   8.7428190  13.2659800  35.0110090   8.7046390  14.7489270
  48.6050730   2.4306060  15.8532980  47.7544320   2.1311810  16.1742050
  48.4452520   2.6748070  14.9416800  45.7000440   3.9307810  17.9531770
  46.0253850   3.0971560  17.6134000  46.4880770   4.4536330  18.1010100
  39.1090630   3.4662160   6.8482250  38.8831550   3.2499330   7.7528870
  38.3283160   3.8990620   6.5028220  46.3388390   3.4725530   5.4472900
  45.7397280   4.1961330   5.2636520  46.8868000   3.4102310   4.6649350
  41.5489840   4.3647740  17.5142520  41.4533440   3.4242470  17.3642920
  42.3921820   4.5862810  17.1190590  45.5308400   4.6994820  11.5726960
  44.7989520   5.2081630  11.9217060  45.1332740   3.8824800  11.2715740
  42.0305940   2.3761100   2.9686210  42.1518760   2.3347580   3.9172030
  41.6454450   3.2385250   2.8132940  41.0427440   4.6862240   2.3669510
  40.4744340   4.2380490   1.7405420  41.7516440   5.0455020   1.8334660
  36.1196620   8.5874260  16.2436240  35.7351410   7.9467930  16.8419200
  36.4308810   9.2910380  16.8130970  42.2693760   5.4350800  11.7244860
  42.6363890   4.9609370  12.4706200  42.0798820   6.3092370  12.0653200
  40.0593130   4.4759440  14.0429070  39.7550200   5.3551420  14.2679430
  41.0139590   4.5359230  14.0786510  38.5874920   8.6820430   4.6395920
  37.8137180   8.1418050   4.4794640  39.3169550   8.1627040   4.3013680
  49.3462900   7.6785790  10.4322310  50.0662020   8.1741080  10.0418420
  49.1444720   7.0003680   9.7876180  44.7281700   7.7494850  16.3191310
  44.6619010   6.8290520  16.0648900  44.0986840   7.8470290  17.0335950
  47.5221230   3.4443400   2.8713860  48.4100850   3.7560630   2.6965200
  47.4926320   2.5715650   2.4794440  38.6312320   8.3500810   8.2774730
  39.1490990   7.5469070   8.2231620  38.1796340   8.2879950   9.1191560
  43.5181820   9.6167090   3.5502030  43.8597520  10.3609320   3.0545350
  42.6894530   9.9298210   3.9126860  36.1156860   5.3162180  15.1900430
  35.7571800   5.9816030  15.7773770  35.8211420   4.4845730  15.5613050
  39.3169980   5.7746420  18.0739980  39.0170120   5.9203600  17.1767800
  40.0881220   5.2151710  17.9813370  44.6598430  10.5715420  16.0695110
  44.6742970   9.6396380  15.8514020  43.9523530  10.6575180  16.7084880
  50.8709640   7.2122760  15.4163690  50.1457830   7.8051540  15.2193080
  51.3985100   7.2046300  14.6177060  50.8222750  11.6097500   5.0675850
  50.1798910  10.9553120   5.3419570  50.4353410  12.0152590   4.2916520
  46.4009230   8.9382930   8.9147540  46.7533050   8.3411060   8.2548910
  45.5171560   8.6127160   9.0855790  42.4872510   9.6980620   6.3217950
  43.1743640  10.2449830   6.7025540  41.7004930  10.2421350   6.3567560
  34.6264910   5.3153440   1.8135030  35.4959760   5.5978240   2.0970950
  34.1355230   6.1289310   1.6983840  41.7899720   6.7026650   5.9343310
  42.2462500   7.5131900   6.1603500  41.4387930   6.3849790   6.7661800
  44.0932330  12.2132990  13.1635610  44.7374550  12.4192370  13.8409030
  44.4561770  11.4521390  12.7106460  45.3664410  10.2165340  11.8813060
  46.0086640   9.5158500  11.9945230  45.8913760  10.9963780  11.7009950
  47.1402030  11.0160240  15.0849120  47.4758270  11.6026930  15.7627040
  46.2202370  10.8852950  15.3146910  34.9936160  14.5280820   2.3796660
  35.3533800  15.1270160   1.7253930  34.8528500  15.0740710   3.1531690
  48.7936380   8.4185900   3.2666360  48.5058080   8.8798590   4.0544240
  49.5888550   7.9583670   3.5350580  34.9778020  12.7935680  16.8539060
  35.0869140  11.8530420  16.7134450  34.3258580  13.0590430  16.2052790
  42.9690610  11.0651570  18.2537180  42.6487480  10.3460810  18.7982870
  42.2948970  11.7406640  18.3273240  41.0104780  11.9112020   3.1970330
  41.0014880  12.6441710   2.5814840  40.0903140  11.6643600   3.2897290
  36.6111420   7.1326910   3.9417090  36.0039370   7.8725810   3.9512390
  37.0860770   7.2226270   3.1155290  41.5190270   2.5320620   5.8419420
  40.8106420   3.0006960   6.2833030  41.8034750   1.8742630   6.4764610
  43.1446200   3.9517320  13.8411950  43.6431450   4.4263140  14.5063800
  43.2869150   3.0280840  14.0481980  42.6382490  14.4926580   6.5543190
  42.8923990  14.4547970   5.6322560  41.6894970  14.3659910   6.5471440
  48.6435070   5.4118460   8.1301700  47.7025210   5.4268690   8.3049390
  48.9579140   4.6254420   8.5762000  37.3163470   4.5263130   2.3738550
  37.3967060   3.5790640   2.4855950  38.2083220   4.8570010   2.4799210
  50.6460650  12.5827310   9.8055960  50.7708070  13.4058480  10.2779770
  51.5126210  12.3718040   9.4580110  38.1178180  14.6758520   9.4773090
  38.8540660  14.1273980   9.7481660  38.5019100  15.5414530   9.3379080
  35.0023660  10.7432090   5.3514600  34.0763440  10.9853230   5.3420010
  35.4680090  11.5706350   5.2299350  37.1236460  13.8604590  18.6658670
  37.9249190  14.1816640  19.0794070  36.6088280  13.5000170  19.3878580
  45.9601090   9.9684460  18.6134080  45.3539250   9.9916060  17.8729830
  45.6555200   9.2367500  19.1501330  47.3901460  13.6964750  17.2243490
  48.3423210  13.6122770  17.1743730  47.2429680  14.3606460  17.8977280
  50.2810660  13.0758960   2.7235400  49.9952170  12.6624100   1.9089580
  50.0830210  14.0046670   2.6035920  34.8434270   6.3478050  17.6094720
  35.3473290   5.7685330  18.1810950  34.1041690   6.6318280  18.1471090
  41.8972210   7.7549040  17.1430240  41.1317880   8.3234040  17.0584910
  42.0788170   7.4625250  16.2498470  44.9860620   8.1312270   1.7683000
  44.4370720   8.5781570   2.4125740  45.6079880   7.6261520   2.2920670
  49.0395560   9.4854370  17.7005260  49.7805030   9.8230130  17.1972720
  48.2768240   9.6546430  17.1475030  36.8757350   4.4907640  18.5044790
  36.9162690   4.1921510  19.4130020  37.7302850   4.8915250  18.3452310
  40.6535740   7.0903190   3.6648300  41.0752160   6.9243060   4.5079690
  40.7786580   6.2803420   3.1703440  38.8163160   3.0699740  16.4719280
  38.2859620   2.5790690  15.8442620  39.4851230   3.4983940  15.9377210
  47.7141220   7.5369200  16.2360470  48.1282240   7.6914280  17.0850890
  46.7792220   7.6624420  16.3986250  48.1863390   4.8765360  18.2399620
  48.7684160   4.1217680  18.1520100  48.3625160   5.4072800  17.4631100
  42.4756450   7.4889680  14.2056400  42.8944560   8.3322410  14.0332640
  41.5565080   7.6261720  13.9763180  44.8120350   5.2205860  15.5894240
  44.9316560   4.6247000  16.3289080  45.6714350   5.2575550  15.1695540
  47.1508250   5.7743050  14.1656750  46.6243470   6.2985670  13.5621890
  47.4939590   6.4070440  14.7966480  40.3263870  13.7942690  15.3214130
  39.7884960  14.5188750  15.0022830  40.5797830  13.3173030  14.5311470
  43.1826080  15.0293900  15.5800780  43.1084780  15.9329040  15.8873150
  42.2804920  14.7105800  15.5522850  43.7311410  14.1952410   3.2027140
  44.6262200  14.5337380   3.2245900  43.7629040  13.4731820   2.5751420
  34.5853370  12.3568490   8.8834400  34.9156380  11.4889550   8.6513040
  35.0144370  12.5627010   9.7139360  39.1815290  10.6877500   6.5436370
  38.8810830  10.5642470   7.4440280  39.0752780   9.8286090   6.1352100
  35.0743580  13.2239080  11.6216030  34.6374570  13.4039880  12.4540180
  35.6421260  13.9813700  11.4797750  50.7105760  12.7256080  15.9093340
  50.1107750  12.7848640  15.1657260  50.8399660  11.7861060  16.0390190
  51.4063670   7.2121380   3.7497250  52.1682580   7.7818030   3.8556940
  51.4218040   6.6448580   4.5205560  34.9068010   5.7359310   7.9804910
  34.2516850   5.4670950   7.3364610  35.7445960   5.6263790   7.5306890
  52.4123640   8.0671480   8.5939180  52.7832470   7.2838800   8.1875150
  53.0525570   8.7560580   8.4156480  49.3957400   9.4508060  14.0069500
  48.5817240   9.8805220  14.2695290  49.8031600  10.0626470  13.3938550
  51.3548180   5.4424740   5.8999200  50.9791780   4.6752670   5.4680490
  50.6251300   5.8247440   6.3874130  35.9443940   6.1211880  12.5208250
  36.3116980   6.0339280  13.4004270  35.3754760   5.3578430  12.4215110
  50.7447800   4.5896260  15.5338720  50.5133890   4.3609010  14.6336670
  51.0052350   5.5095810  15.4883610  35.4959940   3.0320970  16.4266670
  34.6015990   2.9987730  16.7660380  36.0357490   3.2307760  17.1917920
  34.1206090   2.9458240   3.9230240  33.2170170   3.2088440   3.7481900
  34.6046710   3.2169410   3.1430200  50.6299140   3.6682230   9.2006440
  51.1536620   3.1744880   8.5696610  51.2158560   3.8032590   9.9454010
  50.8088860   3.7522100  12.7225990  49.8591570   3.7185640  12.8370980
  50.9901870   4.6622210  12.4875760  50.1199110   2.9255580   5.1398850
  50.6158230   2.6926450   5.9247730  49.9215180   2.0867420   4.7236490
  49.4533450  14.2026660   7.5337770  50.0492520  13.8811230   6.8572190
  49.7111600  13.7298480   8.3251040  37.3596020  10.6344570  17.6828400
  37.3165650  10.2637480  18.5642860  37.4907030  11.5722140  17.8230220
  41.0602050  12.1904160  13.2838120  40.8193410  12.4578720  12.3968640
  42.0004690  12.3609890  13.3388980  52.3206210  14.2098540  14.0848760
  51.8264490  14.6067410  13.3675890  51.7119500  13.5847750  14.4786040
  37.1984050  13.5806820  14.8026180  36.6044370  13.4491520  15.5416220
  37.1907890  12.7444960  14.3368280  50.0045660  14.8521960  11.3635500
  49.5448630  15.6037770  10.9893520  49.3758120  14.1328430  11.3050300
  36.8296280  10.9465200  13.7534220  36.1030340  10.3270490  13.6860170
  36.8905430  11.3405810  12.8832300  40.4341380  13.1610200  10.5383630
  40.9506400  12.5497560  10.0131890  41.0838760  13.6638980  11.0294640
  43.1736880  14.0518690  11.3652610  43.4614690  13.7972990  10.4885620
  43.6860100  13.4996050  11.9558180  35.1126280  14.2639590   6.9630980
  34.9448320  13.6310270   7.6612870  34.2460790  14.4698990   6.6125170
  36.7188980  12.9572820   4.4081120  36.1936600  13.3380850   3.7043080
  36.6433560  13.5823590   5.1290830  43.2409240  14.9734790  18.7320810
  44.1676550  14.7379060  18.7756770  43.2259670  15.8006790  18.2506840
  51.4754300  14.5160360   5.7295060  51.6506490  13.8298100   5.0855980
  50.7775870  15.0407410   5.3371730  39.3181950  14.9055200   3.2830370
  40.0500770  14.6214480   2.7354260  39.5775620  14.6668480   4.1729750
  38.4796740  11.0219930   3.2876700  37.8505620  11.4905030   3.8362530
  38.5944570  10.1769150   3.7222890  49.8086800  14.2004650  18.5561850
  50.6012120  13.7053880  18.3487810  50.1019950  14.8794790  19.1637460
  27.1602970  61.3956060  45.7608370  27.0797020  60.4810670  45.4900080
  26.7467390  61.8923130  45.0548080  25.2921010  63.1735080  47.6417640
  24.5163110  62.6935520  47.9316210  25.9433940  62.4940730  47.4673800
  19.3086840  63.4854890  48.5193400  18.4771720  63.2303600  48.9189910
  19.9167820  63.5565660  49.2551320  17.7178790  58.4456780  42.3035790
  16.8295490  58.7872750  42.2015670  18.0019980  58.2457100  41.4116620
  15.6811800  61.0462430  48.1875490  16.2527910  60.2784630  48.1879130
  15.6813340  61.3451190  47.2782100  24.7330000  65.8492270  47.6487800
  24.6638280  64.9082210  47.4876930  25.4949860  65.9393680  48.2210370
  16.9236670  56.4546790  49.9744420  16.7439510  55.5572540  50.2547180
  16.5216750  57.0018660  50.6491370  25.7635170  58.6562650  47.8756730
  26.1399990  57.7834530  47.7630400  25.6654680  58.9921350  46.9847170
  19.8940180  57.0288280  43.3374170  20.0006930  57.9292010  43.6442930
  18.9832540  56.9806250  43.0468820  29.5459290  56.1513090  44.8085070
  30.3668910  55.6609660  44.8510550  29.5793370  56.7410750  45.5616910
  17.5423340  58.9507290  48.5826760  18.2233450  59.2145660  49.2014160
  17.2271390  58.1108160  48.9164770  21.7347910  59.9974650  47.6699350
  22.2426130  60.4955620  48.3104370  22.2661150  59.2209850  47.4938710
  33.8358840  58.1679840  51.3728700  33.1311010  58.5561550  50.8543810
  34.1016760  58.8630130  51.9749630  20.0184010  54.6373210  51.9362770
  20.0202450  55.1545600  51.1308670  19.1888320  54.1603390  51.9132700
  26.4055100  64.7492520  43.4352670  25.7872370  65.2141970  42.8715390
  26.9178350  65.4420000  43.8522180  21.2686860  64.2768390  50.1136270
  20.9356240  64.9037310  50.7557340  21.4453540  64.8030270  49.3337940
  29.7820770  58.0913470  47.5812610  29.0776340  58.3798360  48.1615720
  30.1432930  58.9013580  47.2212170  19.6999340  56.3483170  49.9433220
  20.0416150  57.1925220  49.6487090  18.7615150  56.4966910  50.0598560
  15.7738300  65.4349050  40.8092300  15.3966280  65.9236150  40.0777200
  16.0311370  66.1074330  41.4398830  32.8507690  57.5368260  47.9721820
  31.9032600  57.5707240  48.1037250  33.1757680  58.3507210  48.3571180
  23.3827230  53.8365440  46.2677810  23.6902210  53.2812330  45.5513310
  22.4527930  53.9709900  46.0850800  28.3327730  64.4562570  49.8867880
  28.7496520  64.2422680  49.0521340  29.0567550  64.7135360  50.4576500
  25.7707990  61.9014270  43.0037930  24.8437270  61.8351650  43.2326400
  25.9232810  62.8394400  42.8893170  25.7577070  58.1731270  40.0005090
  24.8180740  58.3345230  40.0857550  26.0760330  58.8916950  39.4541080
  32.2789830  62.8549790  49.9784120  31.4508460  62.9242880  49.5034250
  32.8740310  63.4404100  49.5099950  29.8005280  63.4634570  43.5073180
  29.1817700  63.1254120  42.8599480  29.7829730  62.8194330  44.2152370
  29.2431840  59.6419110  50.9238990  28.8303020  60.4672820  51.1778980
  28.5107790  59.0564150  50.7315350  21.3764630  62.4279010  45.7857660
  20.9721630  61.7156260  45.2903560  21.4627750  62.0832250  46.6745700
  21.8446330  66.1146570  47.9496870  21.5474620  65.5092040  47.2704650
  22.7946150  66.1523880  47.8386230  20.0893250  59.2022220  49.5656700
  20.6407840  59.3117560  48.7909950  20.6036760  59.5759820  50.2811930
  20.9364760  65.8528260  54.6004670  20.0393290  66.0768230  54.8478070
  20.9617630  65.9763200  53.6516070  27.9769980  62.7021380  40.5145930
  28.4163260  61.8643810  40.3683750  28.6898400  63.3350780  40.6010070
  19.7635980  62.7241580  53.1762040  19.6243750  63.5964380  53.5449440
  18.8817340  62.3814390  53.0309980  31.5587120  53.9564190  38.8286970
  31.2459780  54.0491020  39.7286040  32.3199590  54.5345220  38.7784400
  18.0769260  61.3223990  43.2864310  17.9566860  62.0486080  42.6745580
  17.7670150  60.5526900  42.8092220  15.7154630  64.4939130  49.0932950
  15.7935050  64.6287900  48.1488670  16.3296310  63.7855020  49.2861070
  16.9602260  66.1939320  45.5039130  16.5530340  66.3353910  44.6492730
  17.8515270  65.9099480  45.3010340  32.7688410  58.6935690  54.8061110
  32.1532680  59.2015360  54.2776570  32.4484830  57.7934020  54.7487050
  15.7714150  65.5353300  51.6327410  15.9345190  65.0658660  50.8146780
  16.2366600  65.0276860  52.2976250  20.5432920  54.6659060  46.6687980
  20.1001070  55.4468600  46.3372500  21.1017910  54.9888950  47.3758920
  24.8302730  57.5327580  52.2723300  24.3682100  57.7410600  53.0843240
  24.4280840  56.7186930  51.9693970  29.8307240  58.7536530  53.4019960
  28.9800830  58.4542280  53.7229030  29.6709030  58.9978540  52.4903780
  26.9256950  60.2538280  55.5018750  27.2510360  59.4202030  55.1620980
  27.7137280  60.7766800  55.6497080  23.6591740  54.2869760  41.5493810
  23.0345920  54.2829630  42.2747120  23.5721860  53.4200720  41.1529780
  22.5808820  55.2106390  48.5277580  22.8781150  56.1169220  48.4469600
  23.1294380  54.7225170  47.9137150  20.3347140  59.7892630  44.3969230
  20.1088060  59.5729800  45.3015850  19.5539670  60.2221090  44.0515200
  27.5644900  59.7956000  42.9959880  26.9653790  60.5191800  42.8123500
  28.1124510  59.7332780  42.2136330  22.7746350  60.6878210  55.0629500
  22.6789950  59.7472940  54.9129900  23.6178330  60.9093280  54.6677570
  26.1709770  58.4319540  45.0263160  26.5639340  58.7491740  44.2131850
  26.5326620  57.5531420  45.1407680  17.9056890  57.0991880  53.2163280
  17.5120280  57.9467090  53.4236060  17.2175290  56.4618250  53.4071920
  15.2073940  55.0220340  47.2493360  14.9186990  55.5923200  47.9618340
  15.9519700  54.5424790  47.6124590  15.3944170  58.9640460  38.4596080
  15.3118840  59.9071220  38.6011070  15.0427230  58.8215370  37.5808430
  26.7564910  61.0225290  49.1213940  26.0246030  61.5312100  49.4704040
  26.3589250  60.2055270  48.8202720  23.1942300  57.6979490  47.5266430
  23.1978360  57.2569440  46.6770970  24.0893420  58.0196820  47.6338250
  19.0444680  57.5805980  46.4860640  18.7044730  58.0581210  47.2427690
  18.2822000  57.1271100  46.1261740  23.2562450  58.6991570  40.5173190
  23.3775270  58.6578050  41.4659010  22.8710960  59.5615720  40.3619920
  27.2190820  56.4758970  48.5336880  27.2363560  56.9267620  49.3778730
  26.9706400  55.5764610  48.7470320  22.2683950  61.0092710  39.9156490
  21.7000850  60.5610960  39.2892400  22.9772950  61.3685490  39.3821640
  30.6461570  53.8891150  54.3723260  30.9707340  53.1580810  54.8981240
  30.6818080  53.5704790  53.4704250  17.3453130  64.9104730  53.7923220
  16.9607920  64.2698400  54.3906180  17.6565320  65.6140850  54.3617950
  23.4950270  61.7581270  49.2731840  23.8620400  61.2839840  50.0193180
  23.3055330  62.6322840  49.6140180  16.3590760  56.5024960  45.4025310
  16.0737680  56.1380630  46.2403930  16.2969620  55.7705420  44.7888450
  21.2849640  60.7989910  51.5916050  20.9806710  61.6781890  51.8166410
  22.2396100  60.8589700  51.6273490  19.8131430  65.0050900  42.1882900
  19.0393690  64.4648520  42.0281620  20.5426060  64.4857510  41.8500660
  30.5719410  64.0016260  47.9809290  31.2918530  64.4971550  47.5905400
  30.3701230  63.3234150  47.3363160  26.0329350  55.3954220  42.1238680
  25.2193960  54.8967390  42.0483990  25.8391300  56.2352470  41.7075030
  25.9538210  64.0725320  53.8678290  25.8875520  63.1520990  53.6135880
  25.3243350  64.1700760  54.5822930  28.7477740  59.7673870  40.4200840
  29.6357360  60.0791100  40.2452180  28.7182830  58.8946120  40.0281420
  19.8568830  64.6731280  45.8261710  20.3747500  63.8699540  45.7718600
  19.4052850  64.6110420  46.6678540  17.3413370  61.6392650  52.7387410
  16.9828310  62.3046500  53.3260750  17.0467930  60.8076200  53.1100030
  20.5426490  62.0976890  55.6226960  20.2426630  62.2434070  54.7254780
  21.3137730  61.5382180  55.5300350  31.0192010  61.0785710  39.8880700
  30.9355730  61.5099930  39.0377140  31.7386200  61.5384060  40.3207520
  32.0966150  63.5353230  52.9650670  31.3714340  64.1282010  52.7680060
  32.6241610  63.5276770  52.1664040  27.6265740  65.2613400  46.4634520
  27.9789560  64.6641530  45.8035890  26.7428070  64.9357630  46.6342770
  15.8521420  61.6383910  39.3622010  16.7216270  61.9208710  39.6457930
  15.3611740  62.4519780  39.2470820  23.0156230  63.0257120  43.4830290
  23.4719010  63.8362370  43.7090480  22.6644440  62.7080260  44.3148780
  18.9168010  53.3694770  43.9552810  18.7882640  53.3612670  44.9037730
  18.0930030  53.7077860  43.6043820  15.9161940  55.1285890  53.4159510
  15.2020460  55.3282810  54.0212120  16.3356980  54.3525460  53.7874310
  30.0192890  64.7416370  40.8153340  29.7314590  65.2029060  41.6031220
  30.8145060  64.2814140  41.0837560  17.8367930  63.4557380  41.4904070
  17.2295880  64.1956280  41.4999370  18.3117280  63.5456740  40.6642270
  27.4100720  57.6208200  51.1660960  27.7781540  56.8003410  51.4940530
  26.5498920  57.6810090  51.5816610  30.7762750  56.5765140  41.9748520
  30.1475910  56.6810810  41.2606750  30.2814670  56.7961920  42.7642400
  22.7446780  58.8551090  43.3906400  22.0362930  59.3237430  43.8320010
  23.0291260  58.1973100  44.0251590  24.3702710  60.2747790  51.3898930
  24.8687960  60.7493610  52.0550780  24.5125660  59.3511310  51.5968960
  26.7762210  55.5801750  44.8302190  26.6529990  55.5987880  43.8811700
  27.7246770  55.6280690  44.9500590  20.9481800  57.1636170  40.7657110
  21.7972330  57.6006320  40.6997300  20.5813070  57.4756430  41.5929170
  31.5769570  56.4915750  52.2327320  31.0743170  57.2321150  52.5721130
  32.3926230  56.8799750  51.9164110  29.8691580  61.7348930  45.6788680
  28.9281720  61.7499160  45.8536370  30.1835650  60.9484890  46.1248980
  19.8473220  63.4168530  39.2392640  20.6136490  63.3049890  39.8018070
  19.9247910  62.7206500  38.5869410  18.5419980  60.8493600  39.9225530
  18.6223570  59.9021110  40.0342930  19.4339730  61.1800480  40.0286190
  22.9714400  65.3922710  38.7127990  22.8665040  64.7775060  39.4389370
  22.8038620  64.8688600  37.9291000  23.1228720  64.0779510  54.6917220
  22.3574390  64.6464510  54.6071890  23.3044680  63.7855720  53.7985450
  26.2117130  64.4542740  39.3169980  25.6627230  64.9012040  39.9612720
  26.8336390  63.9491990  39.8407650  30.2652070  65.8084840  55.2492240
  31.0061540  66.1460600  54.7459700  29.5024750  65.9776900  54.6962010
  21.8792250  63.4133660  41.2135280  22.3008670  63.2473530  42.0566670
  22.0043090  62.6033890  40.7190420  20.0419670  59.3930210  54.0206260
  19.5116130  58.9021160  53.3929600  20.7107740  59.8214410  53.4864190
  24.3919890  62.4371270  38.4612380  24.9125550  61.7220290  38.0953530
  25.0388290  63.0757140  38.7612890  28.9397730  63.8599670  53.7847450
  29.3538750  64.0144750  54.6337870  28.0048730  63.9854890  53.9473230
  20.5291970  56.3592580  54.1003550  20.4348840  55.7413330  53.3754420
  19.9489360  57.0858870  53.8733460  23.2953410  54.9165820  51.1330940
  22.8470710  54.9390080  50.2876490  22.6618610  54.5184840  51.7301240
  23.7012960  63.8120150  51.7543380  24.1201070  64.6552880  51.5819620
  22.7821590  63.9492190  51.5250160  26.0376860  61.5436330  53.1381220
  26.1573070  60.9477470  53.8776060  26.8970860  61.5806020  52.7182520
  28.3764760  62.0973520  51.7143730  27.8499980  62.6216140  51.1108870
  28.7196100  62.7300910  52.3453460  20.7751150  59.4866890  38.1593440
  20.5740210  58.6234250  38.5206780  20.6043200  59.4000250  37.2215040
  22.8045630  58.0857680  54.3957040  23.3945320  57.7773530  55.0834860
  21.9865870  57.6137430  54.5516940  27.6239060  57.7023490  54.6290060
  26.9354580  57.0405030  54.5640050  28.3445080  57.2561760  55.0738520
  28.2539460  54.2975120  40.6880320  28.5341750  53.4543020  41.0439740
  27.4805190  54.5298230  41.2019070  19.5733950  56.5867510  38.1471320
  19.8759850  56.5934940  37.2390470  20.3128540  56.2365370  38.6438980
  22.7918880  55.5302130  39.1327520  22.4440880  54.8526120  38.5529970
  22.9931650  55.0691640  39.9470910  18.5964080  65.8909930  38.9801120
  19.0338950  66.4339600  39.6358700  19.0811810  65.0656880  38.9897460
  32.6320180  63.5351850  41.2984230  33.3939090  64.1048500  41.4043920
  32.6474550  62.9679050  42.0692540  16.1324520  62.0589780  45.5291890
  15.4773360  61.7901420  44.8851590  16.9702470  61.9494260  45.0793870
  33.6380150  64.3901950  46.1426160  34.0088980  63.6069270  45.7362130
  34.2782080  65.0791050  45.9643460  30.6213910  65.7738530  51.5556480
  29.8073750  66.2035690  51.8182270  31.0288110  66.3856940  50.9425530
  32.6839350  63.8286220  38.4556750  32.9588190  64.7365100  38.3275970
  32.4950090  63.7648750  39.3918740  29.0814960  56.8531070  39.7510380
  29.4999840  56.6662050  38.9107040  28.7751020  56.0010120  40.0613310
  32.5804690  61.7655210  43.4486180  32.2048290  60.9983140  43.0167470
  31.8507810  62.1477910  43.9361110  17.1700450  62.4442350  50.0695230
  17.5373490  62.3569750  50.9491250  16.6011270  61.6808900  49.9702090
  31.9704310  60.9126730  53.0825700  31.7390400  60.6839480  52.1823650
  32.2308860  61.8326280  53.0370590  16.7216450  59.3551440  53.9753650
  15.8272500  59.3218200  54.3147360  17.2614000  59.5538230  54.7404900
  15.3462600  59.2688710  41.4717220  14.4426680  59.5318910  41.2968880
  15.8303220  59.5399880  40.6917180  31.8555650  59.9912700  46.7493420
  32.3793130  59.4975350  46.1183590  32.4415070  60.1263060  47.4940990
  32.0345370  60.0752570  50.2712970  31.0848080  60.0416110  50.3857960
  32.2158380  60.9852680  50.0362740  17.8889810  58.3254250  39.3811600
  18.5981510  57.9037470  38.8958880  17.1729750  58.3929480  38.7494950
  17.5363970  54.3793580  38.4214250  18.2592100  54.9202520  38.7395470
  17.8088490  54.1057000  37.5455790  31.3455620  59.2486050  42.6885830
  31.8414740  59.0156920  43.4734710  31.1471690  58.4097890  42.2723470
  17.2256160  53.6299770  48.3236870  17.8732350  53.0797150  47.8832030
  17.6458000  53.8842920  49.1452680  32.7742780  57.8847000  45.2223510
  32.6642060  57.7303040  46.1605780  33.5350370  57.3567940  44.9798920
  31.1208500  53.8241130  51.6806510  31.7580720  54.4375270  52.0465700
  31.2683390  53.8601790  50.7355740  33.6633050  55.7154920  38.4629650
  34.5882360  55.5836100  38.2547940  33.6408840  55.7947740  39.4166100
  33.7371540  56.4865580  41.0886360  32.9423040  56.4210700  41.6179270
  33.9414820  57.4216220  41.0771710  16.9788160  53.7855440  51.0662190
  16.6302980  54.2419260  51.8320370  16.6475860  52.8912570  51.1484620
  24.4912980  54.9767320  54.5881610  24.4301870  55.5689150  55.3377020
  25.4313360  54.8693280  54.4431870  27.1287540  54.6337380  54.2273900
  27.7427950  54.9516670  53.5654980  27.6737100  54.1485970  54.8469760
  17.6508800  53.3131640  54.3412960  18.1991790  53.1319690  53.5779070
  17.7164110  52.5225750  54.8769270  27.8695580  53.1969520  50.5543190
  26.9955420  53.5304630  50.3516120  27.7606330  52.7242700  51.3795060
  28.7767560  55.4040390  51.9384910  28.4480920  54.5892150  51.5586640
  29.7249860  55.3610200  51.8150600  25.6170400  54.1139360  49.4936100
  24.8342190  54.5884860  49.7732860  25.3233330  53.2094190  49.3849280
  30.1691470  54.8162460  47.5385190  30.6099560  54.7607560  46.6906790
  29.8999060  55.7320470  47.6095370  32.0330040  54.4477700  45.5494010
  31.9718440  53.5038920  45.4025030  32.8122070  54.5557790  46.0947470
  16.9610810  54.4186840  42.0149820  17.7190170  54.5315720  41.4413850
  16.4987980  55.2556040  41.9693250  23.5024620  56.5326110  45.0052130
  22.6899130  56.1583000  44.6648010  24.0066260  55.7771190  45.3073320
  28.0049600  53.1968560  46.2435200  28.6078970  53.7688770  46.7183720
  27.2642590  53.7608000  46.0209100  31.1484200  53.5990120  41.5175480
  31.3434830  54.4973570  41.7842910  30.3614070  53.3677200  42.0108430
  19.3335960  54.9450890  40.5551790  19.8628720  54.1580690  40.4259740
  19.9664280  55.6242080  40.7887320  21.5273800  54.6826030  43.6097180
  20.8976540  53.9813340  43.7767310  20.9878940  55.4430160  43.3930340
  27.1602970  61.3956060  26.9864880  27.0797020  60.4810670  26.7156590
  26.7467390  61.8923130  26.2804590  25.2921010  63.1735080  28.8674150
  24.5163110  62.6935520  29.1572720  25.9433940  62.4940730  28.6930310
  19.3086840  63.4854890  29.7449910  18.4771720  63.2303600  30.1446420
  19.9167820  63.5565660  30.4807830  17.7178790  58.4456780  23.5292300
  16.8295490  58.7872750  23.4272180  18.0019980  58.2457100  22.6373130
  15.6811800  61.0462430  29.4132000  16.2527910  60.2784630  29.4135640
  15.6813340  61.3451190  28.5038610  24.7330000  65.8492270  28.8744310
  24.6638280  64.9082210  28.7133440  25.4949860  65.9393680  29.4466880
  16.9236670  56.4546790  31.2000930  16.7439510  55.5572540  31.4803690
  16.5216750  57.0018660  31.8747880  25.7635170  58.6562650  29.1013240
  26.1399990  57.7834530  28.9886910  25.6654680  58.9921350  28.2103680
  19.8940180  57.0288280  24.5630680  20.0006930  57.9292010  24.8699440
  18.9832540  56.9806250  24.2725330  29.5459290  56.1513090  26.0341580
  30.3668910  55.6609660  26.0767060  29.5793370  56.7410750  26.7873420
  17.5423340  58.9507290  29.8083270  18.2233450  59.2145660  30.4270670
  17.2271390  58.1108160  30.1421280  21.7347910  59.9974650  28.8955860
  22.2426130  60.4955620  29.5360880  22.2661150  59.2209850  28.7195220
  33.8358840  58.1679840  32.5985210  33.1311010  58.5561550  32.0800320
  34.1016760  58.8630130  33.2006140  20.0184010  54.6373210  33.1619280
  20.0202450  55.1545600  32.3565180  19.1888320  54.1603390  33.1389210
  26.4055100  64.7492520  24.6609180  25.7872370  65.2141970  24.0971900
  26.9178350  65.4420000  25.0778690  21.2686860  64.2768390  31.3392780
  20.9356240  64.9037310  31.9813850  21.4453540  64.8030270  30.5594450
  29.7820770  58.0913470  28.8069120  29.0776340  58.3798360  29.3872230
  30.1432930  58.9013580  28.4468680  19.6999340  56.3483170  31.1689730
  20.0416150  57.1925220  30.8743600  18.7615150  56.4966910  31.2855070
  15.7738300  65.4349050  22.0348810  15.3966280  65.9236150  21.3033710
  16.0311370  66.1074330  22.6655340  32.8507690  57.5368260  29.1978330
  31.9032600  57.5707240  29.3293760  33.1757680  58.3507210  29.5827690
  23.3827230  53.8365440  27.4934320  23.6902210  53.2812330  26.7769820
  22.4527930  53.9709900  27.3107310  28.3327730  64.4562570  31.1124390
  28.7496520  64.2422680  30.2777850  29.0567550  64.7135360  31.6833010
  25.7707990  61.9014270  24.2294440  24.8437270  61.8351650  24.4582910
  25.9232810  62.8394400  24.1149680  25.7577070  58.1731270  21.2261600
  24.8180740  58.3345230  21.3114060  26.0760330  58.8916950  20.6797590
  32.2789830  62.8549790  31.2040630  31.4508460  62.9242880  30.7290760
  32.8740310  63.4404100  30.7356460  29.8005280  63.4634570  24.7329690
  29.1817700  63.1254120  24.0855990  29.7829730  62.8194330  25.4408880
  29.2431840  59.6419110  32.1495500  28.8303020  60.4672820  32.4035490
  28.5107790  59.0564150  31.9571860  21.3764630  62.4279010  27.0114170
  20.9721630  61.7156260  26.5160070  21.4627750  62.0832250  27.9002210
  21.8446330  66.1146570  29.1753380  21.5474620  65.5092040  28.4961160
  22.7946150  66.1523880  29.0642740  20.0893250  59.2022220  30.7913210
  20.6407840  59.3117560  30.0166460  20.6036760  59.5759820  31.5068440
  20.9364760  65.8528260  35.8261180  20.0393290  66.0768230  36.0734580
  20.9617630  65.9763200  34.8772580  27.9769980  62.7021380  21.7402440
  28.4163260  61.8643810  21.5940260  28.6898400  63.3350780  21.8266580
  19.7635980  62.7241580  34.4018550  19.6243750  63.5964380  34.7705950
  18.8817340  62.3814390  34.2566490  31.5587120  53.9564190  20.0543480
  31.2459780  54.0491020  20.9542550  32.3199590  54.5345220  20.0040910
  18.0769260  61.3223990  24.5120820  17.9566860  62.0486080  23.9002090
  17.7670150  60.5526900  24.0348730  15.7154630  64.4939130  30.3189460
  15.7935050  64.6287900  29.3745180  16.3296310  63.7855020  30.5117580
  16.9602260  66.1939320  26.7295640  16.5530340  66.3353910  25.8749240
  17.8515270  65.9099480  26.5266850  32.7688410  58.6935690  36.0317620
  32.1532680  59.2015360  35.5033080  32.4484830  57.7934020  35.9743560
  15.7714150  65.5353300  32.8583920  15.9345190  65.0658660  32.0403290
  16.2366600  65.0276860  33.5232760  20.5432920  54.6659060  27.8944490
  20.1001070  55.4468600  27.5629010  21.1017910  54.9888950  28.6015430
  24.8302730  57.5327580  33.4979810  24.3682100  57.7410600  34.3099750
  24.4280840  56.7186930  33.1950480  29.8307240  58.7536530  34.6276470
  28.9800830  58.4542280  34.9485540  29.6709030  58.9978540  33.7160290
  26.9256950  60.2538280  36.7275260  27.2510360  59.4202030  36.3877490
  27.7137280  60.7766800  36.8753590  23.6591740  54.2869760  22.7750320
  23.0345920  54.2829630  23.5003630  23.5721860  53.4200720  22.3786290
  22.5808820  55.2106390  29.7534090  22.8781150  56.1169220  29.6726110
  23.1294380  54.7225170  29.1393660  20.3347140  59.7892630  25.6225740
  20.1088060  59.5729800  26.5272360  19.5539670  60.2221090  25.2771710
  27.5644900  59.7956000  24.2216390  26.9653790  60.5191800  24.0380010
  28.1124510  59.7332780  23.4392840  22.7746350  60.6878210  36.2886010
  22.6789950  59.7472940  36.1386410  23.6178330  60.9093280  35.8934080
  26.1709770  58.4319540  26.2519670  26.5639340  58.7491740  25.4388360
  26.5326620  57.5531420  26.3664190  17.9056890  57.0991880  34.4419790
  17.5120280  57.9467090  34.6492570  17.2175290  56.4618250  34.6328430
  24.4801940  57.1826850  37.5116530  23.7900260  56.9899050  38.1462620
  25.2234240  57.4661490  38.0440830  15.2073940  55.0220340  28.4749870
  14.9186990  55.5923200  29.1874850  15.9519700  54.5424790  28.8381100
  15.3944170  58.9640460  19.6852590  15.3118840  59.9071220  19.8267580
  15.0427230  58.8215370  18.8064940  26.7564910  61.0225290  30.3470450
  26.0246030  61.5312100  30.6960550  26.3589250  60.2055270  30.0459230
  23.1942300  57.6979490  28.7522940  23.1978360  57.2569440  27.9027480
  24.0893420  58.0196820  28.8594760  19.0444680  57.5805980  27.7117150
  18.7044730  58.0581210  28.4684200  18.2822000  57.1271100  27.3518250
  23.2562450  58.6991570  21.7429700  23.3775270  58.6578050  22.6915520
  22.8710960  59.5615720  21.5876430  27.2190820  56.4758970  29.7593390
  27.2363560  56.9267620  30.6035240  26.9706400  55.5764610  29.9726830
  22.2683950  61.0092710  21.1413000  21.7000850  60.5610960  20.5148910
  22.9772950  61.3685490  20.6078150  30.6461570  53.8891150  35.5979770
  30.9707340  53.1580810  36.1237750  30.6818080  53.5704790  34.6960760
  17.3453130  64.9104730  35.0179730  16.9607920  64.2698400  35.6162690
  17.6565320  65.6140850  35.5874460  23.4950270  61.7581270  30.4988350
  23.8620400  61.2839840  31.2449690  23.3055330  62.6322840  30.8396690
  16.3590760  56.5024960  26.6281820  16.0737680  56.1380630  27.4660440
  16.2969620  55.7705420  26.0144960  21.2849640  60.7989910  32.8172560
  20.9806710  61.6781890  33.0422920  22.2396100  60.8589700  32.8530000
  19.8131430  65.0050900  23.4139410  19.0393690  64.4648520  23.2538130
  20.5426060  64.4857510  23.0757170  30.5719410  64.0016260  29.2065800
  31.2918530  64.4971550  28.8161910  30.3701230  63.3234150  28.5619670
  26.0329350  55.3954220  23.3495190  25.2193960  54.8967390  23.2740500
  25.8391300  56.2352470  22.9331540  25.9538210  64.0725320  35.0934800
  25.8875520  63.1520990  34.8392390  25.3243350  64.1700760  35.8079440
  28.7477740  59.7673870  21.6457350  29.6357360  60.0791100  21.4708690
  28.7182830  58.8946120  21.2537930  19.8568830  64.6731280  27.0518220
  20.3747500  63.8699540  26.9975110  19.4052850  64.6110420  27.8935050
  17.3413370  61.6392650  33.9643920  16.9828310  62.3046500  34.5517260
  17.0467930  60.8076200  34.3356540  20.5426490  62.0976890  36.8483470
  20.2426630  62.2434070  35.9511290  21.3137730  61.5382180  36.7556860
  31.0192010  61.0785710  21.1137210  30.9355730  61.5099930  20.2633650
  31.7386200  61.5384060  21.5464030  32.0966150  63.5353230  34.1907180
  31.3714340  64.1282010  33.9936570  32.6241610  63.5276770  33.3920550
  27.6265740  65.2613400  27.6891030  27.9789560  64.6641530  27.0292400
  26.7428070  64.9357630  27.8599280  15.8521420  61.6383910  20.5878520
  16.7216270  61.9208710  20.8714440  15.3611740  62.4519780  20.4727330
  23.0156230  63.0257120  24.7086800  23.4719010  63.8362370  24.9346990
  22.6644440  62.7080260  25.5405290  18.9168010  53.3694770  25.1809320
  18.7882640  53.3612670  26.1294240  18.0930030  53.7077860  24.8300330
  15.9161940  55.1285890  34.6416020  15.2020460  55.3282810  35.2468630
  16.3356980  54.3525460  35.0130820  30.0192890  64.7416370  22.0409850
  29.7314590  65.2029060  22.8287730  30.8145060  64.2814140  22.3094070
  17.8367930  63.4557380  22.7160580  17.2295880  64.1956280  22.7255880
  18.3117280  63.5456740  21.8898780  27.4100720  57.6208200  32.3917470
  27.7781540  56.8003410  32.7197040  26.5498920  57.6810090  32.8073120
  30.7762750  56.5765140  23.2005030  30.1475910  56.6810810  22.4863260
  30.2814670  56.7961920  23.9898910  22.7446780  58.8551090  24.6162910
  22.0362930  59.3237430  25.0576520  23.0291260  58.1973100  25.2508100
  24.3702710  60.2747790  32.6155440  24.8687960  60.7493610  33.2807290
  24.5125660  59.3511310  32.8225470  26.7762210  55.5801750  26.0558700
  26.6529990  55.5987880  25.1068210  27.7246770  55.6280690  26.1757100
  20.9481800  57.1636170  21.9913620  21.7972330  57.6006320  21.9253810
  20.5813070  57.4756430  22.8185680  31.5769570  56.4915750  33.4583830
  31.0743170  57.2321150  33.7977640  32.3926230  56.8799750  33.1420620
  29.8691580  61.7348930  26.9045190  28.9281720  61.7499160  27.0792880
  30.1835650  60.9484890  27.3505490  19.8473220  63.4168530  20.4649150
  20.6136490  63.3049890  21.0274580  19.9247910  62.7206500  19.8125920
  18.5419980  60.8493600  21.1482040  18.6223570  59.9021110  21.2599440
  19.4339730  61.1800480  21.2542700  27.1857600  66.2914930  37.3877570
  26.5795760  66.3146530  36.6473320  26.8811710  65.5597970  37.9244820
  16.0690780  62.6708520  36.3838210  16.5729800  62.0915800  36.9554440
  15.3298200  62.9548750  36.9214580  22.9714400  65.3922710  19.9384500
  22.8665040  64.7775060  20.6645880  22.8038620  64.8688600  19.1547510
  23.1228720  64.0779510  35.9173730  22.3574390  64.6464510  35.8328400
  23.3044680  63.7855720  35.0241960  26.2117130  64.4542740  20.5426490
  25.6627230  64.9012040  21.1869230  26.8336390  63.9491990  21.0664160
  30.2652070  65.8084840  36.4748750  31.0061540  66.1460600  35.9716210
  29.5024750  65.9776900  35.9218520  18.1013860  60.8138110  37.2788280
  18.1419200  60.5151980  38.1873510  18.9559360  61.2145720  37.1195800
  21.8792250  63.4133660  22.4391790  22.3008670  63.2473530  23.2823180
  22.0043090  62.6033890  21.9446930  20.0419670  59.3930210  35.2462770
  19.5116130  58.9021160  34.6186110  20.7107740  59.8214410  34.7120700
  24.3919890  62.4371270  19.6868890  24.9125550  61.7220290  19.3210040
  25.0388290  63.0757140  19.9869400  28.9397730  63.8599670  35.0103960
  29.3538750  64.0144750  35.8594380  28.0048730  63.9854890  35.1729740
  29.4119900  61.1995830  37.0143110  29.9940670  60.4448150  36.9263590
  29.5881670  61.7303270  36.2374590  20.5291970  56.3592580  35.3260060
  20.4348840  55.7413330  34.6010930  19.9489360  57.0858870  35.0989970
  23.2953410  54.9165820  32.3587450  22.8470710  54.9390080  31.5133000
  22.6618610  54.5184840  32.9557750  23.7012960  63.8120150  32.9799890
  24.1201070  64.6552880  32.8076130  22.7821590  63.9492190  32.7506670
  26.0376860  61.5436330  34.3637730  26.1573070  60.9477470  35.1032570
  26.8970860  61.5806020  33.9439030  28.3764760  62.0973520  32.9400240
  27.8499980  62.6216140  32.3365380  28.7196100  62.7300910  33.5709970
  20.7751150  59.4866890  19.3849950  20.5740210  58.6234250  19.7463290
  20.6043200  59.4000250  18.4471550  22.8045630  58.0857680  35.6213550
  23.3945320  57.7773530  36.3091370  21.9865870  57.6137430  35.7773450
  27.6239060  57.7023490  35.8546570  26.9354580  57.0405030  35.7896560
  28.3445080  57.2561760  36.2995030  28.2539460  54.2975120  21.9136830
  28.5341750  53.4543020  22.2696250  27.4805190  54.5298230  22.4275580
  19.5733950  56.5867510  19.3727830  19.8759850  56.5934940  18.4646980
  20.3128540  56.2365370  19.8695490  22.7918880  55.5302130  20.3584030
  22.4440880  54.8526120  19.7786480  22.9931650  55.0691640  21.1727420
  18.5964080  65.8909930  20.2057630  19.0338950  66.4339600  20.8615210
  19.0811810  65.0656880  20.2153970  32.6320180  63.5351850  22.5240740
  33.3939090  64.1048500  22.6300430  32.6474550  62.9679050  23.2949050
  16.1324520  62.0589780  26.7548400  15.4773360  61.7901420  26.1108100
  16.9702470  61.9494260  26.3050380  33.6380150  64.3901950  27.3682670
  34.0088980  63.6069270  26.9618640  34.2782080  65.0791050  27.1899970
  30.6213910  65.7738530  32.7812990  29.8073750  66.2035690  33.0438780
  31.0288110  66.3856940  32.1682040  32.6839350  63.8286220  19.6813260
  32.9588190  64.7365100  19.5532480  32.4950090  63.7648750  20.6175250
  29.0814960  56.8531070  20.9766890  29.4999840  56.6662050  20.1363550
  28.7751020  56.0010120  21.2869820  32.5804690  61.7655210  24.6742690
  32.2048290  60.9983140  24.2423980  31.8507810  62.1477910  25.1617620
  17.1700450  62.4442350  31.2951740  17.5373490  62.3569750  32.1747760
  16.6011270  61.6808900  31.1958600  31.9704310  60.9126730  34.3082210
  31.7390400  60.6839480  33.4080160  32.2308860  61.8326280  34.2627100
  16.7216450  59.3551440  35.2010160  15.8272500  59.3218200  35.5403870
  17.2614000  59.5538230  35.9661410  30.4092380  56.1383160  37.0861910
  31.2862560  56.1466560  37.4695910  30.4213220  55.4014000  36.4754260
  15.3462600  59.2688710  22.6973730  14.4426680  59.5318910  22.5225390
  15.8303220  59.5399880  21.9173690  31.8555650  59.9912700  27.9749930
  32.3793130  59.4975350  27.3440100  32.4415070  60.1263060  28.7197500
  32.0345370  60.0752570  31.4969480  31.0848080  60.0416110  31.6114470
  32.2158380  60.9852680  31.2619250  17.8889810  58.3254250  20.6068110
  18.5981510  57.9037470  20.1215390  17.1729750  58.3929480  19.9751460
  17.5363970  54.3793580  19.6470760  18.2592100  54.9202520  19.9651980
  17.8088490  54.1057000  18.7712300  31.3455620  59.2486050  23.9142340
  31.8414740  59.0156920  24.6991220  31.1471690  58.4097890  23.4979980
  17.2256160  53.6299770  29.5493380  17.8732350  53.0797150  29.1088540
  17.6458000  53.8842920  30.3709190  32.7742780  57.8847000  26.4480020
  32.6642060  57.7303040  27.3862290  33.5350370  57.3567940  26.2055430
  31.1208500  53.8241130  32.9063020  31.7580720  54.4375270  33.2722210
  31.2683390  53.8601790  31.9612250  33.6633050  55.7154920  19.6886160
  34.5882360  55.5836100  19.4804450  33.6408840  55.7947740  20.6422610
  33.7371540  56.4865580  22.3142870  32.9423040  56.4210700  22.8435780
  33.9414820  57.4216220  22.3028220  16.9788160  53.7855440  32.2918700
  16.6302980  54.2419260  33.0576880  16.6475860  52.8912570  32.3741130
  24.4912980  54.9767320  35.8138120  24.4301870  55.5689150  36.5633530
  25.4313360  54.8693280  35.6688380  27.1287540  54.6337380  35.4530410
  27.7427950  54.9516670  34.7911490  27.6737100  54.1485970  36.0726270
  17.6508800  53.3131640  35.5669470  18.1991790  53.1319690  34.8035580
  17.7164110  52.5225750  36.1025780  27.8695580  53.1969520  31.7799700
  26.9955420  53.5304630  31.5772630  27.7606330  52.7242700  32.6051570
  28.7767560  55.4040390  33.1641420  28.4480920  54.5892150  32.7843150
  29.7249860  55.3610200  33.0407110  25.6170400  54.1139360  30.7192610
  24.8342190  54.5884860  30.9989370  25.3233330  53.2094190  30.6105790
  30.1691470  54.8162460  28.7641700  30.6099560  54.7607560  27.9163300
  29.8999060  55.7320470  28.8351880  32.0330040  54.4477700  26.7750520
  31.9718440  53.5038920  26.6281540  32.8122070  54.5557790  27.3203980
  16.9610810  54.4186840  23.2406330  17.7190170  54.5315720  22.6670360
  16.4987980  55.2556040  23.1949760  23.5024620  56.5326110  26.2308640
  22.6899130  56.1583000  25.8904520  24.0066260  55.7771190  26.5329830
  28.0049600  53.1968560  27.4691710  28.6078970  53.7688770  27.9440230
  27.2642590  53.7608000  27.2465610  31.1484200  53.5990120  22.7431990
  31.3434830  54.4973570  23.0099420  30.3614070  53.3677200  23.2364940
  19.3335960  54.9450890  21.7808300  19.8628720  54.1580690  21.6516250
  19.9664280  55.6242080  22.0143830  21.5273800  54.6826030  24.8353690
  20.8976540  53.9813340  25.0023820  20.9878940  55.4430160  24.6186850
  21.6529360  53.9610010  37.2706180  21.3713630  54.4643610  36.5067000
  22.0349060  53.1631760  36.9048310  28.2544820  53.3763590  37.8486650
  28.1410270  53.6958200  38.7438170  29.0714560  53.7776100  37.5523930
  27.1602970  61.3956060   8.2121390  27.0797020  60.4810670   7.9413100
  26.7467390  61.8923130   7.5061100  25.2921010  63.1735080  10.0930660
  24.5163110  62.6935520  10.3829230  25.9433940  62.4940730   9.9186820
  19.3086840  63.4854890  10.9706420  18.4771720  63.2303600  11.3702930
  19.9167820  63.5565660  11.7064340  17.7178790  58.4456780   4.7548810
  16.8295490  58.7872750   4.6528690  18.0019980  58.2457100   3.8629640
  15.6811800  61.0462430  10.6388510  16.2527910  60.2784630  10.6392150
  15.6813340  61.3451190   9.7295120  24.7330000  65.8492270  10.1000820
  24.6638280  64.9082210   9.9389950  25.4949860  65.9393680  10.6723390
  16.9236670  56.4546790  12.4257440  16.7439510  55.5572540  12.7060200
  16.5216750  57.0018660  13.1004390  25.7635170  58.6562650  10.3269750
  26.1399990  57.7834530  10.2143420  25.6654680  58.9921350   9.4360190
  19.8940180  57.0288280   5.7887190  20.0006930  57.9292010   6.0955950
  18.9832540  56.9806250   5.4981840  29.5459290  56.1513090   7.2598090
  30.3668910  55.6609660   7.3023570  29.5793370  56.7410750   8.0129930
  17.5423340  58.9507290  11.0339780  18.2233450  59.2145660  11.6527180
  17.2271390  58.1108160  11.3677790  21.7347910  59.9974650  10.1212370
  22.2426130  60.4955620  10.7617390  22.2661150  59.2209850   9.9451730
  33.8358840  58.1679840  13.8241720  33.1311010  58.5561550  13.3056830
  34.1016760  58.8630130  14.4262650  20.0184010  54.6373210  14.3875790
  20.0202450  55.1545600  13.5821690  19.1888320  54.1603390  14.3645720
  26.4055100  64.7492520   5.8865690  25.7872370  65.2141970   5.3228410
  26.9178350  65.4420000   6.3035200  21.2686860  64.2768390  12.5649290
  20.9356240  64.9037310  13.2070360  21.4453540  64.8030270  11.7850960
  29.7820770  58.0913470  10.0325630  29.0776340  58.3798360  10.6128740
  30.1432930  58.9013580   9.6725190  19.6999340  56.3483170  12.3946240
  20.0416150  57.1925220  12.1000110  18.7615150  56.4966910  12.5111580
  15.7738300  65.4349050   3.2605320  15.3966280  65.9236150   2.5290220
  16.0311370  66.1074330   3.8911850  32.8507690  57.5368260  10.4234840
  31.9032600  57.5707240  10.5550270  33.1757680  58.3507210  10.8084200
  23.3827230  53.8365440   8.7190830  23.6902210  53.2812330   8.0026330
  22.4527930  53.9709900   8.5363820  28.3327730  64.4562570  12.3380900
  28.7496520  64.2422680  11.5034360  29.0567550  64.7135360  12.9089520
  25.7707990  61.9014270   5.4550950  24.8437270  61.8351650   5.6839420
  25.9232810  62.8394400   5.3406190  25.7577070  58.1731270   2.4518110
  24.8180740  58.3345230   2.5370570  26.0760330  58.8916950   1.9054100
  32.2789830  62.8549790  12.4297140  31.4508460  62.9242880  11.9547270
  32.8740310  63.4404100  11.9612970  29.8005280  63.4634570   5.9586200
  29.1817700  63.1254120   5.3112500  29.7829730  62.8194330   6.6665390
  29.2431840  59.6419110  13.3752010  28.8303020  60.4672820  13.6292000
  28.5107790  59.0564150  13.1828370  21.3764630  62.4279010   8.2370680
  20.9721630  61.7156260   7.7416580  21.4627750  62.0832250   9.1258720
  21.8446330  66.1146570  10.4009890  21.5474620  65.5092040   9.7217670
  22.7946150  66.1523880  10.2899250  20.0893250  59.2022220  12.0169720
  20.6407840  59.3117560  11.2422970  20.6036760  59.5759820  12.7324950
  20.9364760  65.8528260  17.0517690  20.0393290  66.0768230  17.2991090
  20.9617630  65.9763200  16.1029090  27.9769980  62.7021380   2.9658950
  28.4163260  61.8643810   2.8196770  28.6898400  63.3350780   3.0523090
  19.7635980  62.7241580  15.6275060  19.6243750  63.5964380  15.9962460
  18.8817340  62.3814390  15.4823000  18.0769260  61.3223990   5.7377330
  17.9566860  62.0486080   5.1258600  17.7670150  60.5526900   5.2605240
  15.7154630  64.4939130  11.5445970  15.7935050  64.6287900  10.6001690
  16.3296310  63.7855020  11.7374090  16.9602260  66.1939320   7.9552150
  16.5530340  66.3353910   7.1005750  17.8515270  65.9099480   7.7523360
  32.7688410  58.6935690  17.2574130  32.1532680  59.2015360  16.7289590
  32.4484830  57.7934020  17.2000070  15.7714150  65.5353300  14.0840430
  15.9345190  65.0658660  13.2659800  16.2366600  65.0276860  14.7489270
  20.5432920  54.6659060   9.1201000  20.1001070  55.4468600   8.7885520
  21.1017910  54.9888950   9.8271940  24.8302730  57.5327580  14.7236320
  24.3682100  57.7410600  15.5356260  24.4280840  56.7186930  14.4206990
  29.8307240  58.7536530  15.8532980  28.9800830  58.4542280  16.1742050
  29.6709030  58.9978540  14.9416800  26.9256950  60.2538280  17.9531770
  27.2510360  59.4202030  17.6134000  27.7137280  60.7766800  18.1010100
  23.6591740  54.2869760   4.0006830  23.0345920  54.2829630   4.7260140
  23.5721860  53.4200720   3.6042800  22.5808820  55.2106390  10.9790600
  22.8781150  56.1169220  10.8982620  23.1294380  54.7225170  10.3650170
  20.3347140  59.7892630   6.8482250  20.1088060  59.5729800   7.7528870
  19.5539670  60.2221090   6.5028220  27.5644900  59.7956000   5.4472900
  26.9653790  60.5191800   5.2636520  28.1124510  59.7332780   4.6649350
  22.7746350  60.6878210  17.5142520  22.6789950  59.7472940  17.3642920
  23.6178330  60.9093280  17.1190590  26.1709770  58.4319540   7.4776180
  26.5639340  58.7491740   6.6644870  26.5326620  57.5531420   7.5920700
  17.9056890  57.0991880  15.6676300  17.5120280  57.9467090  15.8749080
  17.2175290  56.4618250  15.8584940  24.4801940  57.1826850  18.7373040
  23.7900260  56.9899050  19.3719130  25.2234240  57.4661490  19.2697340
  15.2073940  55.0220340   9.7006380  14.9186990  55.5923200  10.4131360
  15.9519700  54.5424790  10.0637610  26.7564910  61.0225290  11.5726960
  26.0246030  61.5312100  11.9217060  26.3589250  60.2055270  11.2715740
  23.1942300  57.6979490   9.9779450  23.1978360  57.2569440   9.1283990
  24.0893420  58.0196820  10.0851270  19.0444680  57.5805980   8.9373660
  18.7044730  58.0581210   9.6940710  18.2822000  57.1271100   8.5774760
  23.2562450  58.6991570   2.9686210  23.3775270  58.6578050   3.9172030
  22.8710960  59.5615720   2.8132940  27.2190820  56.4758970  10.9849900
  27.2363560  56.9267620  11.8291750  26.9706400  55.5764610  11.1983340
  22.2683950  61.0092710   2.3669510  21.7000850  60.5610960   1.7405420
  22.9772950  61.3685490   1.8334660  30.6461570  53.8891150  16.8236280
  30.9707340  53.1580810  17.3494260  30.6818080  53.5704790  15.9217270
  17.3453130  64.9104730  16.2436240  16.9607920  64.2698400  16.8419200
  17.6565320  65.6140850  16.8130970  23.4950270  61.7581270  11.7244860
  23.8620400  61.2839840  12.4706200  23.3055330  62.6322840  12.0653200
  16.3590760  56.5024960   7.8538330  16.0737680  56.1380630   8.6916950
  16.2969620  55.7705420   7.2401470  21.2849640  60.7989910  14.0429070
  20.9806710  61.6781890  14.2679430  22.2396100  60.8589700  14.0786510
  19.8131430  65.0050900   4.6395920  19.0393690  64.4648520   4.4794640
  20.5426060  64.4857510   4.3013680  30.5719410  64.0016260  10.4322310
  31.2918530  64.4971550  10.0418420  30.3701230  63.3234150   9.7876180
  26.0329350  55.3954220   4.5751700  25.2193960  54.8967390   4.4997010
  25.8391300  56.2352470   4.1588050  25.9538210  64.0725320  16.3191310
  25.8875520  63.1520990  16.0648900  25.3243350  64.1700760  17.0335950
  28.7477740  59.7673870   2.8713860  29.6357360  60.0791100   2.6965200
  28.7182830  58.8946120   2.4794440  19.8568830  64.6731280   8.2774730
  20.3747500  63.8699540   8.2231620  19.4052850  64.6110420   9.1191560
  17.3413370  61.6392650  15.1900430  16.9828310  62.3046500  15.7773770
  17.0467930  60.8076200  15.5613050  20.5426490  62.0976890  18.0739980
  20.2426630  62.2434070  17.1767800  21.3137730  61.5382180  17.9813370
  32.0966150  63.5353230  15.4163690  31.3714340  64.1282010  15.2193080
  32.6241610  63.5276770  14.6177060  27.6265740  65.2613400   8.9147540
  27.9789560  64.6641530   8.2548910  26.7428070  64.9357630   9.0855790
  15.8521420  61.6383910   1.8135030  16.7216270  61.9208710   2.0970950
  15.3611740  62.4519780   1.6983840  23.0156230  63.0257120   5.9343310
  23.4719010  63.8362370   6.1603500  22.6644440  62.7080260   6.7661800
  18.9168010  53.3694770   6.4065830  18.7882640  53.3612670   7.3550750
  18.0930030  53.7077860   6.0556840  15.9161940  55.1285890  15.8672530
  15.2020460  55.3282810  16.4725140  16.3356980  54.3525460  16.2387330
  30.0192890  64.7416370   3.2666360  29.7314590  65.2029060   4.0544240
  30.8145060  64.2814140   3.5350580  17.8367930  63.4557380   3.9417090
  17.2295880  64.1956280   3.9512390  18.3117280  63.5456740   3.1155290
  27.4100720  57.6208200  13.6173980  27.7781540  56.8003410  13.9453550
  26.5498920  57.6810090  14.0329630  30.7762750  56.5765140   4.4261540
  30.1475910  56.6810810   3.7119770  30.2814670  56.7961920   5.2155420
  22.7446780  58.8551090   5.8419420  22.0362930  59.3237430   6.2833030
  23.0291260  58.1973100   6.4764610  24.3702710  60.2747790  13.8411950
  24.8687960  60.7493610  14.5063800  24.5125660  59.3511310  14.0481980
  26.7762210  55.5801750   7.2815210  26.6529990  55.5987880   6.3324720
  27.7246770  55.6280690   7.4013610  20.9481800  57.1636170   3.2170130
  21.7972330  57.6006320   3.1510320  20.5813070  57.4756430   4.0442190
  31.5769570  56.4915750  14.6840340  31.0743170  57.2321150  15.0234150
  32.3926230  56.8799750  14.3677130  29.8691580  61.7348930   8.1301700
  28.9281720  61.7499160   8.3049390  30.1835650  60.9484890   8.5762000
  18.5419980  60.8493600   2.3738550  18.6223570  59.9021110   2.4855950
  19.4339730  61.1800480   2.4799210  27.1857600  66.2914930  18.6134080
  26.5795760  66.3146530  17.8729830  26.8811710  65.5597970  19.1501330
  16.0690780  62.6708520  17.6094720  16.5729800  62.0915800  18.1810950
  15.3298200  62.9548750  18.1471090  23.1228720  64.0779510  17.1430240
  22.3574390  64.6464510  17.0584910  23.3044680  63.7855720  16.2498470
  26.2117130  64.4542740   1.7683000  25.6627230  64.9012040   2.4125740
  26.8336390  63.9491990   2.2920670  30.2652070  65.8084840  17.7005260
  31.0061540  66.1460600  17.1972720  29.5024750  65.9776900  17.1475030
  18.1013860  60.8138110  18.5044790  18.1419200  60.5151980  19.4130020
  18.9559360  61.2145720  18.3452310  21.8792250  63.4133660   3.6648300
  22.3008670  63.2473530   4.5079690  22.0043090  62.6033890   3.1703440
  20.0419670  59.3930210  16.4719280  19.5116130  58.9021160  15.8442620
  20.7107740  59.8214410  15.9377210  28.9397730  63.8599670  16.2360470
  29.3538750  64.0144750  17.0850890  28.0048730  63.9854890  16.3986250
  29.4119900  61.1995830  18.2399620  29.9940670  60.4448150  18.1520100
  29.5881670  61.7303270  17.4631100  20.5291970  56.3592580  16.5516570
  20.4348840  55.7413330  15.8267440  19.9489360  57.0858870  16.3246480
  23.2953410  54.9165820  13.5843960  22.8470710  54.9390080  12.7389510
  22.6618610  54.5184840  14.1814260  23.7012960  63.8120150  14.2056400
  24.1201070  64.6552880  14.0332640  22.7821590  63.9492190  13.9763180
  26.0376860  61.5436330  15.5894240  26.1573070  60.9477470  16.3289080
  26.8970860  61.5806020  15.1695540  28.3764760  62.0973520  14.1656750
  27.8499980  62.6216140  13.5621890  28.7196100  62.7300910  14.7966480
  22.8045630  58.0857680  16.8470060  23.3945320  57.7773530  17.5347880
  21.9865870  57.6137430  17.0029960  27.6239060  57.7023490  17.0803080
  26.9354580  57.0405030  17.0153070  28.3445080  57.2561760  17.5251540
  28.2539460  54.2975120   3.1393340  28.5341750  53.4543020   3.4952760
  27.4805190  54.5298230   3.6532090  32.6320180  63.5351850   3.7497250
  33.3939090  64.1048500   3.8556940  32.6474550  62.9679050   4.5205560
  16.1324520  62.0589780   7.9804910  15.4773360  61.7901420   7.3364610
  16.9702470  61.9494260   7.5306890  33.6380150  64.3901950   8.5939180
  34.0088980  63.6069270   8.1875150  34.2782080  65.0791050   8.4156480
  30.6213910  65.7738530  14.0069500  29.8073750  66.2035690  14.2695290
  31.0288110  66.3856940  13.3938550  32.5804690  61.7655210   5.8999200
  32.2048290  60.9983140   5.4680490  31.8507810  62.1477910   6.3874130
  17.1700450  62.4442350  12.5208250  17.5373490  62.3569750  13.4004270
  16.6011270  61.6808900  12.4215110  31.9704310  60.9126730  15.5338720
  31.7390400  60.6839480  14.6336670  32.2308860  61.8326280  15.4883610
  16.7216450  59.3551440  16.4266670  15.8272500  59.3218200  16.7660380
  17.2614000  59.5538230  17.1917920  30.4092380  56.1383160  18.3118420
  31.2862560  56.1466560  18.6952420  30.4213220  55.4014000  17.7010770
  15.3462600  59.2688710   3.9230240  14.4426680  59.5318910   3.7481900
  15.8303220  59.5399880   3.1430200  31.8555650  59.9912700   9.2006440
  32.3793130  59.4975350   8.5696610  32.4415070  60.1263060   9.9454010
  32.0345370  60.0752570  12.7225990  31.0848080  60.0416110  12.8370980
  32.2158380  60.9852680  12.4875760  31.3455620  59.2486050   5.1398850
  31.8414740  59.0156920   5.9247730  31.1471690  58.4097890   4.7236490
  17.2256160  53.6299770  10.7749890  17.8732350  53.0797150  10.3345050
  17.6458000  53.8842920  11.5965700  32.7742780  57.8847000   7.6736530
  32.6642060  57.7303040   8.6118800  33.5350370  57.3567940   7.4311940
  31.1208500  53.8241130  14.1319530  31.7580720  54.4375270  14.4978720
  31.2683390  53.8601790  13.1868760  33.7371540  56.4865580   3.5399380
  32.9423040  56.4210700   4.0692290  33.9414820  57.4216220   3.5284730
  16.9788160  53.7855440  13.5175210  16.6302980  54.2419260  14.2833390
  16.6475860  52.8912570  13.5997640  24.4912980  54.9767320  17.0394630
  24.4301870  55.5689150  17.7890040  25.4313360  54.8693280  16.8944890
  27.1287540  54.6337380  16.6786920  27.7427950  54.9516670  16.0168000
  27.6737100  54.1485970  17.2982780  17.6508800  53.3131640  16.7925980
  18.1991790  53.1319690  16.0292090  17.7164110  52.5225750  17.3282290
  27.8695580  53.1969520  13.0056210  26.9955420  53.5304630  12.8029140
  27.7606330  52.7242700  13.8308080  28.7767560  55.4040390  14.3897930
  28.4480920  54.5892150  14.0099660  29.7249860  55.3610200  14.2663620
  25.6170400  54.1139360  11.9449120  24.8342190  54.5884860  12.2245880
  25.3233330  53.2094190  11.8362300  30.1691470  54.8162460   9.9898210
  30.6099560  54.7607560   9.1419810  29.8999060  55.7320470  10.0608390
  32.0330040  54.4477700   8.0007030  31.9718440  53.5038920   7.8538050
  32.8122070  54.5557790   8.5460490  16.9610810  54.4186840   4.4662840
  17.7190170  54.5315720   3.8926870  16.4987980  55.2556040   4.4206270
  23.5024620  56.5326110   7.4565150  22.6899130  56.1583000   7.1161030
  24.0066260  55.7771190   7.7586340  28.0049600  53.1968560   8.6948220
  28.6078970  53.7688770   9.1696740  27.2642590  53.7608000   8.4722120
  31.1484200  53.5990120   3.9688500  31.3434830  54.4973570   4.2355930
  30.3614070  53.3677200   4.4621450  19.3335960  54.9450890   3.0064810
  19.8628720  54.1580690   2.8772760  19.9664280  55.6242080   3.2400340
  21.5273800  54.6826030   6.0610200  20.8976540  53.9813340   6.2280330
  20.9878940  55.4430160   5.8443360  21.6529360  53.9610010  18.4962690
  21.3713630  54.4643610  17.7323510  22.0349060  53.1631760  18.1304820
  28.2544820  53.3763590  19.0743160  28.1410270  53.6958200  19.9694680
  29.0714560  53.7776100  18.7780440  27.1602970  42.6212570  45.7608370
  27.0797020  41.7067180  45.4900080  26.7467390  43.1179640  45.0548080
  25.2921010  44.3991590  47.6417640  24.5163110  43.9192030  47.9316210
  25.9433940  43.7197240  47.4673800  19.3086840  44.7111400  48.5193400
  18.4771720  44.4560110  48.9189910  19.9167820  44.7822170  49.2551320
  29.3128440  48.8051780  46.4216770  28.8509970  48.0339020  46.7503940
  30.1253990  48.8317850  46.9269220  19.2888100  48.7451490  48.7151420
  19.5916140  47.8549230  48.5361640  20.0331690  49.3021710  48.4873670
  17.7178790  39.6713290  42.3035790  16.8295490  40.0129260  42.2015670
  18.0019980  39.4713610  41.4116620  15.6811800  42.2718940  48.1875490
  16.2527910  41.5041140  48.1879130  15.6813340  42.5707700  47.2782100
  25.5391750  51.0909790  46.0420760  24.9203190  51.5467290  45.4715200
  26.3943530  51.2461250  45.6410460  24.7330000  47.0748780  47.6487800
  24.6638280  46.1338720  47.4876930  25.4949860  47.1650190  48.2210370
  16.9236670  37.6803300  49.9744420  16.7439510  36.7829050  50.2547180
  16.5216750  38.2275170  50.6491370  25.7635170  39.8819160  47.8756730
  26.1399990  39.0091040  47.7630400  25.6654680  40.2177860  46.9847170
  19.8940180  38.2544790  43.3374170  20.0006930  39.1548520  43.6442930
  18.9832540  38.2062760  43.0468820  29.5459290  37.3769600  44.8085070
  30.3668910  36.8866170  44.8510550  29.5793370  37.9667260  45.5616910
  17.5423340  40.1763800  48.5826760  18.2233450  40.4402170  49.2014160
  17.2271390  39.3364670  48.9164770  21.7347910  41.2231160  47.6699350
  22.2426130  41.7212130  48.3104370  22.2661150  40.4466360  47.4938710
  33.8358840  39.3936350  51.3728700  33.1311010  39.7818060  50.8543810
  34.1016760  40.0886640  51.9749630  20.0184010  35.8629720  51.9362770
  20.0202450  36.3802110  51.1308670  19.1888320  35.3859900  51.9132700
  26.4055100  45.9749030  43.4352670  25.7872370  46.4398480  42.8715390
  26.9178350  46.6676510  43.8522180  21.2686860  45.5024900  50.1136270
  20.9356240  46.1293820  50.7557340  21.4453540  46.0286780  49.3337940
  29.7820770  39.3169980  47.5812610  29.0776340  39.6054870  48.1615720
  30.1432930  40.1270090  47.2212170  19.6999340  37.5739680  49.9433220
  20.0416150  38.4181730  49.6487090  18.7615150  37.7223420  50.0598560
  20.4805960  47.4705700  51.9285450  21.0979960  48.1456780  51.6469900
  19.6199080  47.8793680  51.8372950  15.7738300  46.6605560  40.8092300
  15.3966280  47.1492660  40.0777200  16.0311370  47.3330840  41.4398830
  31.3983550  48.9345110  49.8440090  30.7147070  49.6044220  49.8356760
  31.9377840  49.1325760  49.0784950  32.8507690  38.7624770  47.9721820
  31.9032600  38.7963750  48.1037250  33.1757680  39.5763720  48.3571180
  23.3827230  35.0621950  46.2677810  23.6902210  34.5068840  45.5513310
  22.4527930  35.1966410  46.0850800  28.9342290  50.7789240  48.5585270
  28.9469450  50.3751530  47.6907530  28.3817510  51.5536530  48.4546700
  30.2287710  47.5005460  43.6475440  30.1184040  46.5579790  43.7724860
  30.2255960  47.8621100  44.5338200  28.3327730  45.6819080  49.8867880
  28.7496520  45.4679190  49.0521340  29.0567550  45.9391870  50.4576500
  25.7707990  43.1270780  43.0037930  24.8437270  43.0608160  43.2326400
  25.9232810  44.0650910  42.8893170  32.2789830  44.0806300  49.9784120
  31.4508460  44.1499390  49.5034250  32.8740310  44.6660610  49.5099950
  29.8005280  44.6891080  43.5073180  29.1817700  44.3510630  42.8599480
  29.7829730  44.0450840  44.2152370  29.2431840  40.8675620  50.9238990
  28.8303020  41.6929330  51.1778980  28.5107790  40.2820660  50.7315350
  21.3764630  43.6535520  45.7857660  20.9721630  42.9412770  45.2903560
  21.4627750  43.3088760  46.6745700  21.8446330  47.3403080  47.9496870
  21.5474620  46.7348550  47.2704650  22.7946150  47.3780390  47.8386230
  20.0893250  40.4278730  49.5656700  20.6407840  40.5374070  48.7909950
  20.6036760  40.8016330  50.2811930  29.9331940  50.9134950  51.6119970
  29.4562500  51.7207140  51.4192580  29.2493730  50.2613280  51.7646180
  20.9364760  47.0784770  54.6004670  20.0393290  47.3024740  54.8478070
  20.9617630  47.2019710  53.6516070  19.7635980  43.9498090  53.1762040
  19.6243750  44.8220890  53.5449440  18.8817340  43.6070900  53.0309980
  26.0865360  48.8673960  44.4827170  26.5261270  49.6098290  44.0682560
  26.0252250  49.1100530  45.4066130  21.5616330  49.8919790  55.3847190
  21.5331760  50.2962740  54.5175620  21.3981300  48.9630150  55.2218790
  18.0769260  42.5480500  43.2864310  17.9566860  43.2742590  42.6745580
  17.7670150  41.7783410  42.8092220  15.7154630  45.7195640  49.0932950
  15.7935050  45.8544410  48.1488670  16.3296310  45.0111530  49.2861070
  16.9602260  47.4195830  45.5039130  16.5530340  47.5610420  44.6492730
  17.8515270  47.1355990  45.3010340  32.9164400  47.8659740  53.8411370
  33.0427460  47.6271620  52.9228550  32.9585780  47.0344280  54.3133450
  26.7781140  51.5687740  52.4106180  27.2925810  51.4795750  53.2128610
  25.9350220  51.9147440  52.7034090  28.7535540  51.8543080  41.8390180
  28.5936680  51.5646020  42.7372010  28.5882250  51.0783210  41.3035410
  21.2323920  51.6341610  43.6161800  21.0566400  50.7177150  43.4029600
  20.3779660  51.9928900  43.8559600  28.4561670  49.3630640  40.3988180
  27.7626830  49.3607930  39.7390460  29.1984530  48.9389960  39.9682350
  28.0211600  50.9893350  44.4736670  28.4768550  50.2082730  44.7875290
  28.3604120  51.7000170  45.0177850  32.7688410  39.9192200  54.8061110
  32.1532680  40.4271870  54.2776570  32.4484830  39.0190530  54.7487050
  15.7714150  46.7609810  51.6327410  15.9345190  46.2915170  50.8146780
  16.2366600  46.2533370  52.2976250  20.5432920  35.8915570  46.6687980
  20.1001070  36.6725110  46.3372500  21.1017910  36.2145460  47.3758920
  24.8302730  38.7584090  52.2723300  24.3682100  38.9667110  53.0843240
  24.4280840  37.9443440  51.9693970  29.8307240  39.9793040  53.4019960
  28.9800830  39.6798790  53.7229030  29.6709030  40.2235050  52.4903780
  26.9256950  41.4794790  55.5018750  27.2510360  40.6458540  55.1620980
  27.7137280  42.0023310  55.6497080  23.6591740  35.5126270  41.5493810
  23.0345920  35.5086140  42.2747120  23.5721860  34.6457230  41.1529780
  22.5808820  36.4362900  48.5277580  22.8781150  37.3425730  48.4469600
  23.1294380  35.9481680  47.9137150  20.3347140  41.0149140  44.3969230
  20.1088060  40.7986310  45.3015850  19.5539670  41.4477600  44.0515200
  27.5644900  41.0212510  42.9959880  26.9653790  41.7448310  42.8123500
  28.1124510  40.9589290  42.2136330  22.7746350  41.9134720  55.0629500
  22.6789950  40.9729450  54.9129900  23.6178330  42.1349790  54.6677570
  26.1709770  39.6576050  45.0263160  26.5639340  39.9748250  44.2131850
  26.5326620  38.7787930  45.1407680  17.9056890  38.3248390  53.2163280
  17.5120280  39.1723600  53.4236060  17.2175290  37.6874760  53.4071920
  15.2073940  36.2476850  47.2493360  14.9186990  36.8179710  47.9618340
  15.9519700  35.7681300  47.6124590  15.3944170  40.1896970  38.4596080
  15.3118840  41.1327730  38.6011070  15.0427230  40.0471880  37.5808430
  26.7564910  42.2481800  49.1213940  26.0246030  42.7568610  49.4704040
  26.3589250  41.4311780  48.8202720  23.1942300  38.9236000  47.5266430
  23.1978360  38.4825950  46.6770970  24.0893420  39.2453330  47.6338250
  19.0444680  38.8062490  46.4860640  18.7044730  39.2837720  47.2427690
  18.2822000  38.3527610  46.1261740  27.2190820  37.7015480  48.5336880
  27.2363560  38.1524130  49.3778730  26.9706400  36.8021120  48.7470320
  30.6461570  35.1147660  54.3723260  30.9707340  34.3837320  54.8981240
  30.6818080  34.7961300  53.4704250  17.3453130  46.1361240  53.7923220
  16.9607920  45.4954910  54.3906180  17.6565320  46.8397360  54.3617950
  23.4950270  42.9837780  49.2731840  23.8620400  42.5096350  50.0193180
  23.3055330  43.8579350  49.6140180  16.3590760  37.7281470  45.4025310
  16.0737680  37.3637140  46.2403930  16.2969620  36.9961930  44.7888450
  21.2849640  42.0246420  51.5916050  20.9806710  42.9038400  51.8166410
  22.2396100  42.0846210  51.6273490  19.8131430  46.2307410  42.1882900
  19.0393690  45.6905030  42.0281620  20.5426060  45.7114020  41.8500660
  30.5719410  45.2272770  47.9809290  31.2918530  45.7228060  47.5905400
  30.3701230  44.5490660  47.3363160  26.0329350  36.6210730  42.1238680
  25.2193960  36.1223900  42.0483990  25.8391300  37.4608980  41.7075030
  25.9538210  45.2981830  53.8678290  25.8875520  44.3777500  53.6135880
  25.3243350  45.3957270  54.5822930  19.8568830  45.8987790  45.8261710
  20.3747500  45.0956050  45.7718600  19.4052850  45.8366930  46.6678540
  24.7438330  47.1654070  41.0989010  25.0854030  47.9096300  40.6032330
  23.9151040  47.4785190  41.4613840  17.3413370  42.8649160  52.7387410
  16.9828310  43.5303010  53.3260750  17.0467930  42.0332710  53.1100030
  20.5426490  43.3233400  55.6226960  20.2426630  43.4690580  54.7254780
  21.3137730  42.7638690  55.5300350  25.8854940  48.1202400  53.6182090
  25.8999480  47.1883360  53.4001000  25.1780040  48.2062160  54.2571860
  32.0966150  44.7609740  52.9650670  31.3714340  45.3538520  52.7680060
  32.6241610  44.7533280  52.1664040  32.0479260  49.1584480  42.6162830
  31.4055420  48.5040100  42.8906550  31.6609920  49.5639570  41.8403500
  27.6265740  46.4869910  46.4634520  27.9789560  45.8898040  45.8035890
  26.7428070  46.1614140  46.6342770  23.7129020  47.2467600  43.8704930
  24.4000150  47.7936810  44.2512520  22.9261440  47.7908330  43.9054540
  15.8521420  42.8640420  39.3622010  16.7216270  43.1465220  39.6457930
  15.3611740  43.6776290  39.2470820  23.0156230  44.2513630  43.4830290
  23.4719010  45.0618880  43.7090480  22.6644440  43.9336770  44.3148780
  25.3188840  49.7619970  50.7122590  25.9631060  49.9679350  51.3896010
  25.6818280  49.0008370  50.2593440  18.9168010  34.5951280  43.9552810
  18.7882640  34.5869180  44.9037730  18.0930030  34.9334370  43.6043820
  26.5920920  47.7652320  49.4300040  27.2343150  47.0645480  49.5432210
  27.1170270  48.5450760  49.2496930  30.4376640  48.0500940  39.1539180
  30.2114220  47.3331380  39.7463820  30.0472840  47.8013380  38.3160930
  28.3658540  48.5647220  52.6336100  28.7014780  49.1513910  53.3114020
  27.4458880  48.4339930  52.8633890  16.2192670  52.0767800  39.9283640
  16.5790310  52.6757140  39.2740910  16.0785010  52.6227690  40.7018670
  15.9161940  36.3542400  53.4159510  15.2020460  36.5539320  54.0212120
  16.3356980  35.5781970  53.7874310  30.0192890  45.9672880  40.8153340
  29.7314590  46.4285570  41.6031220  30.8145060  45.5070650  41.0837560
  16.2034530  50.3422660  54.4026040  16.3125650  49.4017400  54.2621430
  15.5515090  50.6077410  53.7539770  22.2361290  49.4599000  40.7457310
  22.2271390  50.1928690  40.1301820  21.3159650  49.2130580  40.8384270
  17.8367930  44.6813890  41.4904070  17.2295880  45.4212790  41.4999370
  18.3117280  44.7713250  40.6642270  27.4100720  38.8464710  51.1660960
  27.7781540  38.0259920  51.4940530  26.5498920  38.9066600  51.5816610
  30.7762750  37.8021650  41.9748520  30.1475910  37.9067320  41.2606750
  30.2814670  38.0218430  42.7642400  25.2220890  49.5227240  39.4082500
  25.3232870  49.3191230  38.4784480  24.3222630  49.2685520  39.6130280
  22.7446780  40.0807600  43.3906400  22.0362930  40.5493940  43.8320010
  23.0291260  39.4229610  44.0251590  24.3702710  41.5004300  51.3898930
  24.8687960  41.9750120  52.0550780  24.5125660  40.5767820  51.5968960
  26.7762210  36.8058260  44.8302190  26.6529990  36.8244390  43.8811700
  27.7246770  36.8537200  44.9500590  23.8639000  52.0413560  44.1030170
  24.1180500  52.0034950  43.1809540  22.9151480  51.9146890  44.0958420
  20.9481800  38.3892680  40.7657110  21.7972330  38.8262830  40.6997300
  20.5813070  38.7012940  41.5929170  31.5769570  37.7172260  52.2327320
  31.0743170  38.4577660  52.5721130  32.3926230  38.1056260  51.9164110
  29.8691580  42.9605440  45.6788680  28.9281720  42.9755670  45.8536370
  30.1835650  42.1741400  46.1248980  19.8473220  44.6425040  39.2392640
  20.6136490  44.5306400  39.8018070  19.9247910  43.9463010  38.5869410
  18.5419980  42.0750110  39.9225530  18.6223570  41.1277620  40.0342930
  19.4339730  42.4056990  40.0286190  31.8717160  50.1314290  47.3542940
  31.9964580  50.9545460  47.8266750  32.7382720  49.9205020  47.0067090
  19.3434690  52.2245500  47.0260070  20.0797170  51.6760960  47.2968640
  19.7275610  53.0901510  46.8866060  16.2280170  48.2919070  42.9001580
  15.3019950  48.5340210  42.8906990  16.6936600  49.1193330  42.7786330
  22.4537000  51.3975810  38.8485640  23.2465610  51.6864640  38.3967430
  21.9341350  50.9667980  38.1698120  28.6157970  51.2451730  54.7730470
  29.5679720  51.1609750  54.7230710  28.4686190  51.9093440  55.4464260
  31.5067170  50.6245940  40.2722380  31.2208680  50.2111080  39.4576560
  31.3086720  51.5533650  40.1522900  22.9714400  46.6179220  38.7127990
  22.8665040  46.0031570  39.4389370  22.8038620  46.0945110  37.9291000
  23.1228720  45.3036020  54.6917220  22.3574390  45.8721020  54.6071890
  23.3044680  45.0112230  53.7985450  30.2652070  47.0341350  55.2492240
  31.0061540  47.3717110  54.7459700  29.5024750  47.2033410  54.6962010
  21.8792250  44.6390170  41.2135280  22.3008670  44.4730040  42.0566670
  22.0043090  43.8290400  40.7190420  20.0419670  40.6186720  54.0206260
  19.5116130  40.1277670  53.3929600  20.7107740  41.0470920  53.4864190
  28.9397730  45.0856180  53.7847450  29.3538750  45.2401260  54.6337870
  28.0048730  45.2111400  53.9473230  20.5291970  37.5849090  54.1003550
  20.4348840  36.9669840  53.3754420  19.9489360  38.3115380  53.8733460
  23.2953410  36.1422330  51.1330940  22.8470710  36.1646590  50.2876490
  22.6618610  35.7441350  51.7301240  23.7012960  45.0376660  51.7543380
  24.1201070  45.8809390  51.5819620  22.7821590  45.1748700  51.5250160
  26.0376860  42.7692840  53.1381220  26.1573070  42.1733980  53.8776060
  26.8970860  42.8062530  52.7182520  28.3764760  43.3230030  51.7143730
  27.8499980  43.8472650  51.1108870  28.7196100  43.9557420  52.3453460
  20.7751150  40.7123400  38.1593440  20.5740210  39.8490760  38.5206780
  20.6043200  40.6256760  37.2215040  21.5520380  51.3429670  52.8701110
  21.0141470  52.0675730  52.5509810  21.8054340  50.8660010  52.0798450
  22.8045630  39.3114190  54.3957040  23.3945320  39.0030040  55.0834860
  21.9865870  38.8393940  54.5516940  27.6239060  38.9280000  54.6290060
  26.9354580  38.2661540  54.5640050  28.3445080  38.4818270  55.0738520
  28.2539460  35.5231630  40.6880320  28.5341750  34.6799530  41.0439740
  27.4805190  35.7554740  41.2019070  19.5733950  37.8124020  38.1471320
  19.8759850  37.8191450  37.2390470  20.3128540  37.4621880  38.6438980
  24.4082590  52.5780880  53.1287760  24.3341290  53.4816020  53.4360130
  23.5061430  52.2592780  53.1009830  22.7918880  36.7558640  39.1327520
  22.4440880  36.0782630  38.5529970  22.9931650  36.2948150  39.9470910
  24.9567920  51.7439390  40.7514120  25.8518710  52.0824360  40.7732880
  24.9885550  51.0218800  40.1238400  18.5964080  47.1166440  38.9801120
  19.0338950  47.6596110  39.6358700  19.0811810  46.2913390  38.9897460
  15.8109880  49.9055470  46.4321380  16.1412890  49.0376530  46.2000020
  16.2400880  50.1113990  47.2626340  20.4071800  48.2364480  44.0923350
  20.1067340  48.1129450  44.9927260  20.3009290  47.3773070  43.6839080
  16.3000090  50.7726060  49.1703010  15.8631080  50.9526860  50.0027160
  16.8677770  51.5300680  49.0284730  31.9362270  50.2743060  53.4580320
  31.3364260  50.3335620  52.7144240  32.0656170  49.3348040  53.5877170
  33.1763720  48.0160880  38.7950030  32.3456680  48.0837530  39.2657260
  33.3535550  48.9065000  38.4916890  32.6320180  44.7608360  41.2984230
  33.3939090  45.3305010  41.4043920  32.6474550  44.1935560  42.0692540
  16.1324520  43.2846290  45.5291890  15.4773360  43.0157930  44.8851590
  16.9702470  43.1750770  45.0793870  33.6380150  45.6158460  46.1426160
  34.0088980  44.8325780  45.7362130  34.2782080  46.3047560  45.9643460
  30.6213910  46.9995040  51.5556480  29.8073750  47.4292200  51.8182270
  31.0288110  47.6113450  50.9425530  29.0814960  38.0787580  39.7510380
  29.4999840  37.8918560  38.9107040  28.7751020  37.2266630  40.0613310
  32.5804690  42.9911720  43.4486180  32.2048290  42.2239650  43.0167470
  31.8507810  43.3734420  43.9361110  17.1700450  43.6698860  50.0695230
  17.5373490  43.5826260  50.9491250  16.6011270  42.9065410  49.9702090
  31.9704310  42.1383240  53.0825700  31.7390400  41.9095990  52.1823650
  32.2308860  43.0582790  53.0370590  16.7216450  40.5807950  53.9753650
  15.8272500  40.5474710  54.3147360  17.2614000  40.7794740  54.7404900
  15.3462600  40.4945220  41.4717220  14.4426680  40.7575420  41.2968880
  15.8303220  40.7656390  40.6917180  31.8555650  41.2169210  46.7493420
  32.3793130  40.7231860  46.1183590  32.4415070  41.3519570  47.4940990
  32.0345370  41.3009080  50.2712970  31.0848080  41.2672620  50.3857960
  32.2158380  42.2109190  50.0362740  17.8889810  39.5510760  39.3811600
  18.5981510  39.1293980  38.8958880  17.1729750  39.6185990  38.7494950
  17.5363970  35.6050090  38.4214250  18.2592100  36.1459030  38.7395470
  17.8088490  35.3313510  37.5455790  31.3455620  40.4742560  42.6885830
  31.8414740  40.2413430  43.4734710  31.1471690  39.6354400  42.2723470
  17.2256160  34.8556280  48.3236870  17.8732350  34.3053660  47.8832030
  17.6458000  35.1099430  49.1452680  32.7742780  39.1103510  45.2223510
  32.6642060  38.9559550  46.1605780  33.5350370  38.5824450  44.9798920
  31.1208500  35.0497640  51.6806510  31.7580720  35.6631780  52.0465700
  31.2683390  35.0858300  50.7355740  30.6789960  51.7513640  45.0824750
  31.2749030  51.4298210  44.4059170  30.9368110  51.2785460  45.8738020
  16.9788160  35.0111950  51.0662190  16.6302980  35.4675770  51.8320370
  16.6475860  34.1169080  51.1484620  22.2858560  49.7391140  50.8325100
  22.0449920  50.0065700  49.9455620  23.2261200  49.9096870  50.8875960
  24.4912980  36.2023830  54.5881610  24.4301870  36.7945660  55.3377020
  25.4313360  36.0949790  54.4431870  27.1287540  35.8593890  54.2273900
  27.7427950  36.1773180  53.5654980  27.6737100  35.3742480  54.8469760
  33.5462720  51.7585520  51.6335740  33.0521000  52.1554390  50.9162870
  32.9376010  51.1334730  52.0273020  17.6508800  34.5388150  54.3412960
  18.1991790  34.3576200  53.5779070  17.7164110  33.7482260  54.8769270
  18.4240560  51.1293800  52.3513160  17.8300880  50.9978500  53.0903200
  18.4164400  50.2931940  51.8855260  27.8695580  34.4226030  50.5543190
  26.9955420  34.7561140  50.3516120  27.7606330  33.9499210  51.3795060
  28.7767560  36.6296900  51.9384910  28.4480920  35.8148660  51.5586640
  29.7249860  36.5866710  51.8150600  31.2302170  52.4008940  48.9122480
  30.7705140  53.1524750  48.5380500  30.6014630  51.6815410  48.8537280
  18.0552790  48.4952180  51.3021200  17.3286850  47.8757470  51.2347150
  18.1161940  48.8892790  50.4319280  21.6597890  50.7097180  48.0870610
  22.1762910  50.0984540  47.5618870  22.3095270  51.2125960  48.5781620
  24.3993390  51.6005670  48.9139590  24.6871200  51.3459970  48.0372600
  24.9116610  51.0483030  49.5045160  25.6170400  35.3395870  49.4936100
  24.8342190  35.8141370  49.7732860  25.3233330  34.4350700  49.3849280
  30.1691470  36.0418970  47.5385190  30.6099560  35.9864070  46.6906790
  29.8999060  36.9576980  47.6095370  32.0330040  35.6734210  45.5494010
  31.9718440  34.7295430  45.4025030  32.8122070  35.7814300  46.0947470
  16.3382790  51.8126570  44.5117960  16.1704830  51.1797250  45.2099850
  15.4717300  52.0185970  44.1612150  16.9610810  35.6443350  42.0149820
  17.7190170  35.7572230  41.4413850  16.4987980  36.4812550  41.9693250
  23.5024620  37.7582620  45.0052130  22.6899130  37.3839510  44.6648010
  24.0066260  37.0027700  45.3073320  28.0049600  34.4225070  46.2435200
  28.6078970  34.9945280  46.7183720  27.2642590  34.9864510  46.0209100
  31.1484200  34.8246630  41.5175480  31.3434830  35.7230080  41.7842910
  30.3614070  34.5933710  42.0108430  17.9445490  50.5059800  41.9568100
  17.4193110  50.8867830  41.2530060  17.8690070  51.1310570  42.6777810
  19.3335960  36.1707400  40.5551790  19.8628720  35.3837200  40.4259740
  19.9664280  36.8498590  40.7887320  21.5273800  35.9082540  43.6097180
  20.8976540  35.2069850  43.7767310  20.9878940  36.6686670  43.3930340
  32.7010810  52.0647340  43.2782040  32.8763000  51.3785080  42.6342960
  32.0032380  52.5894390  42.8858710  20.5438460  52.4542180  40.8317350
  21.2757280  52.1701460  40.2841240  20.8032130  52.2155460  41.7216730
  19.7053250  48.5706910  40.8363680  19.0762130  49.0392010  41.3849510
  19.8201080  47.7256130  41.2709870  27.1602970  42.6212570  26.9864880
  27.0797020  41.7067180  26.7156590  26.7467390  43.1179640  26.2804590
  25.2921010  44.3991590  28.8674150  24.5163110  43.9192030  29.1572720
  25.9433940  43.7197240  28.6930310  19.3086840  44.7111400  29.7449910
  18.4771720  44.4560110  30.1446420  19.9167820  44.7822170  30.4807830
  29.3128440  48.8051780  27.6473280  28.8509970  48.0339020  27.9760450
  30.1253990  48.8317850  28.1525730  19.2888100  48.7451490  29.9407930
  19.5916140  47.8549230  29.7618150  20.0331690  49.3021710  29.7130180
  17.7178790  39.6713290  23.5292300  16.8295490  40.0129260  23.4272180
  18.0019980  39.4713610  22.6373130  15.6811800  42.2718940  29.4132000
  16.2527910  41.5041140  29.4135640  15.6813340  42.5707700  28.5038610
  25.5391750  51.0909790  27.2677270  24.9203190  51.5467290  26.6971710
  26.3943530  51.2461250  26.8666970  24.7330000  47.0748780  28.8744310
  24.6638280  46.1338720  28.7133440  25.4949860  47.1650190  29.4466880
  16.9236670  37.6803300  31.2000930  16.7439510  36.7829050  31.4803690
  16.5216750  38.2275170  31.8747880  19.8940180  38.2544790  24.5630680
  20.0006930  39.1548520  24.8699440  18.9832540  38.2062760  24.2725330
  17.5423340  40.1763800  29.8083270  18.2233450  40.4402170  30.4270670
  17.2271390  39.3364670  30.1421280  21.7347910  41.2231160  28.8955860
  22.2426130  41.7212130  29.5360880  22.2661150  40.4466360  28.7195220
  20.0184010  35.8629720  33.1619280  20.0202450  36.3802110  32.3565180
  19.1888320  35.3859900  33.1389210  26.4055100  45.9749030  24.6609180
  25.7872370  46.4398480  24.0971900  26.9178350  46.6676510  25.0778690
  21.2686860  45.5024900  31.3392780  20.9356240  46.1293820  31.9813850
  21.4453540  46.0286780  30.5594450  19.6999340  37.5739680  31.1689730
  20.0416150  38.4181730  30.8743600  18.7615150  37.7223420  31.2855070
  20.4805960  47.4705700  33.1541960  21.0979960  48.1456780  32.8726410
  19.6199080  47.8793680  33.0629460  15.7738300  46.6605560  22.0348810
  15.3966280  47.1492660  21.3033710  16.0311370  47.3330840  22.6655340
  28.9342290  50.7789240  29.7841780  28.9469450  50.3751530  28.9164040
  28.3817510  51.5536530  29.6803210  30.2287710  47.5005460  24.8731950
  30.1184040  46.5579790  24.9981370  30.2255960  47.8621100  25.7594710
  25.7707990  43.1270780  24.2294440  24.8437270  43.0608160  24.4582910
  25.9232810  44.0650910  24.1149680  29.8005280  44.6891080  24.7329690
  29.1817700  44.3510630  24.0855990  29.7829730  44.0450840  25.4408880
  21.3764630  43.6535520  27.0114170  20.9721630  42.9412770  26.5160070
  21.4627750  43.3088760  27.9002210  21.8446330  47.3403080  29.1753380
  21.5474620  46.7348550  28.4961160  22.7946150  47.3780390  29.0642740
  20.0893250  40.4278730  30.7913210  20.6407840  40.5374070  30.0166460
  20.6036760  40.8016330  31.5068440  20.9364760  47.0784770  35.8261180
  20.0393290  47.3024740  36.0734580  20.9617630  47.2019710  34.8772580
  27.9769980  43.9277890  21.7402440  28.4163260  43.0900320  21.5940260
  28.6898400  44.5607290  21.8266580  19.7635980  43.9498090  34.4018550
  19.6243750  44.8220890  34.7705950  18.8817340  43.6070900  34.2566490
  26.0865360  48.8673960  25.7083680  26.5261270  49.6098290  25.2939070
  26.0252250  49.1100530  26.6322640  21.5616330  49.8919790  36.6103700
  21.5331760  50.2962740  35.7432130  21.3981300  48.9630150  36.4475300
  31.5587120  35.1820700  20.0543480  31.2459780  35.2747530  20.9542550
  32.3199590  35.7601730  20.0040910  18.0769260  42.5480500  24.5120820
  17.9566860  43.2742590  23.9002090  17.7670150  41.7783410  24.0348730
  33.5131150  50.6746890  37.9067870  33.9890870  51.1529780  38.5856950
  34.1338310  50.6064380  37.1813370  15.7154630  45.7195640  30.3189460
  15.7935050  45.8544410  29.3745180  16.3296310  45.0111530  30.5117580
  16.9602260  47.4195830  26.7295640  16.5530340  47.5610420  25.8749240
  17.8515270  47.1355990  26.5266850  26.7781140  51.5687740  33.6362690
  27.2925810  51.4795750  34.4385120  25.9350220  51.9147440  33.9290600
  28.7535540  51.8543080  23.0646690  28.5936680  51.5646020  23.9628520
  28.5882250  51.0783210  22.5291920  21.2323920  51.6341610  24.8418310
  21.0566400  50.7177150  24.6286110  20.3779660  51.9928900  25.0816110
  28.4561670  49.3630640  21.6244690  27.7626830  49.3607930  20.9646970
  29.1984530  48.9389960  21.1938860  28.0211600  50.9893350  25.6993180
  28.4768550  50.2082730  26.0131800  28.3604120  51.7000170  26.2434360
  15.7714150  46.7609810  32.8583920  15.9345190  46.2915170  32.0403290
  16.2366600  46.2533370  33.5232760  20.3347140  41.0149140  25.6225740
  20.1088060  40.7986310  26.5272360  19.5539670  41.4477600  25.2771710
  17.9056890  38.3248390  34.4419790  17.5120280  39.1723600  34.6492570
  17.2175290  37.6874760  34.6328430  15.2073940  36.2476850  28.4749870
  14.9186990  36.8179710  29.1874850  15.9519700  35.7681300  28.8381100
  15.3944170  40.1896970  19.6852590  15.3118840  41.1327730  19.8267580
  15.0427230  40.0471880  18.8064940  26.7564910  42.2481800  30.3470450
  26.0246030  42.7568610  30.6960550  26.3589250  41.4311780  30.0459230
  19.0444680  38.8062490  27.7117150  18.7044730  39.2837720  28.4684200
  18.2822000  38.3527610  27.3518250  22.2683950  42.2349220  21.1413000
  21.7000850  41.7867470  20.5148910  22.9772950  42.5942000  20.6078150
  17.3453130  46.1361240  35.0179730  16.9607920  45.4954910  35.6162690
  17.6565320  46.8397360  35.5874460  23.4950270  42.9837780  30.4988350
  23.8620400  42.5096350  31.2449690  23.3055330  43.8579350  30.8396690
  16.3590760  37.7281470  26.6281820  16.0737680  37.3637140  27.4660440
  16.2969620  36.9961930  26.0144960  21.2849640  42.0246420  32.8172560
  20.9806710  42.9038400  33.0422920  22.2396100  42.0846210  32.8530000
  19.8131430  46.2307410  23.4139410  19.0393690  45.6905030  23.2538130
  20.5426060  45.7114020  23.0757170  28.7477740  40.9930380  21.6457350
  29.6357360  41.3047610  21.4708690  28.7182830  40.1202630  21.2537930
  19.8568830  45.8987790  27.0518220  20.3747500  45.0956050  26.9975110
  19.4052850  45.8366930  27.8935050  24.7438330  47.1654070  22.3245520
  25.0854030  47.9096300  21.8288840  23.9151040  47.4785190  22.6870350
  17.3413370  42.8649160  33.9643920  16.9828310  43.5303010  34.5517260
  17.0467930  42.0332710  34.3356540  20.5426490  43.3233400  36.8483470
  20.2426630  43.4690580  35.9511290  21.3137730  42.7638690  36.7556860
  31.0192010  42.3042220  21.1137210  30.9355730  42.7356440  20.2633650
  31.7386200  42.7640570  21.5464030  32.0479260  49.1584480  23.8419340
  31.4055420  48.5040100  24.1163060  31.6609920  49.5639570  23.0660010
  27.6265740  46.4869910  27.6891030  27.9789560  45.8898040  27.0292400
  26.7428070  46.1614140  27.8599280  23.7129020  47.2467600  25.0961440
  24.4000150  47.7936810  25.4769030  22.9261440  47.7908330  25.1311050
  15.8521420  42.8640420  20.5878520  16.7216270  43.1465220  20.8714440
  15.3611740  43.6776290  20.4727330  23.0156230  44.2513630  24.7086800
  23.4719010  45.0618880  24.9346990  22.6644440  43.9336770  25.5405290
  25.3188840  49.7619970  31.9379100  25.9631060  49.9679350  32.6152520
  25.6818280  49.0008370  31.4849950  18.9168010  34.5951280  25.1809320
  18.7882640  34.5869180  26.1294240  18.0930030  34.9334370  24.8300330
  30.4376640  48.0500940  20.3795690  30.2114220  47.3331380  20.9720330
  30.0472840  47.8013380  19.5417440  16.2192670  52.0767800  21.1540150
  16.5790310  52.6757140  20.4997420  16.0785010  52.6227690  21.9275180
  15.9161940  36.3542400  34.6416020  15.2020460  36.5539320  35.2468630
  16.3356980  35.5781970  35.0130820  30.0192890  45.9672880  22.0409850
  29.7314590  46.4285570  22.8287730  30.8145060  45.5070650  22.3094070
  16.2034530  50.3422660  35.6282550  16.3125650  49.4017400  35.4877940
  15.5515090  50.6077410  34.9796280  24.1947120  48.6138550  37.0280670
  23.8743990  47.8947790  37.5726360  23.5205480  49.2893620  37.1016730
  22.2361290  49.4599000  21.9713820  22.2271390  50.1928690  21.3558330
  21.3159650  49.2130580  22.0640780  17.8367930  44.6813890  22.7160580
  17.2295880  45.4212790  22.7255880  18.3117280  44.7713250  21.8898780
  25.2220890  49.5227240  20.6339010  25.3232870  49.3191230  19.7040990
  24.3222630  49.2685520  20.8386790  22.7446780  40.0807600  24.6162910
  22.0362930  40.5493940  25.0576520  23.0291260  39.4229610  25.2508100
  24.3702710  41.5004300  32.6155440  24.8687960  41.9750120  33.2807290
  24.5125660  40.5767820  32.8225470  23.8639000  52.0413560  25.3286680
  24.1180500  52.0034950  24.4066050  22.9151480  51.9146890  25.3214930
  29.8691580  42.9605440  26.9045190  28.9281720  42.9755670  27.0792880
  30.1835650  42.1741400  27.3505490  19.8473220  44.6425040  20.4649150
  20.6136490  44.5306400  21.0274580  19.9247910  43.9463010  19.8125920
  18.5419980  42.0750110  21.1482040  18.6223570  41.1277620  21.2599440
  19.4339730  42.4056990  21.2542700  19.3434690  52.2245500  28.2516580
  20.0797170  51.6760960  28.5225150  19.7275610  53.0901510  28.1122570
  16.2280170  48.2919070  24.1258090  15.3019950  48.5340210  24.1163500
  16.6936600  49.1193330  24.0042840  18.3492970  51.4091570  37.4402160
  19.1505700  51.7303620  37.8537560  17.8344790  51.0487150  38.1622070
  22.4537000  51.3975810  20.0742150  23.2465610  51.6864640  19.6223940
  21.9341350  50.9667980  19.3954630  28.6157970  51.2451730  35.9986980
  29.5679720  51.1609750  35.9487220  28.4686190  51.9093440  36.6720770
  31.5067170  50.6245940  21.4978890  31.2208680  50.2111080  20.6833070
  31.3086720  51.5533650  21.3779410  16.0690780  43.8965030  36.3838210
  16.5729800  43.3172310  36.9554440  15.3298200  44.1805260  36.9214580
  22.9714400  46.6179220  19.9384500  22.8665040  46.0031570  20.6645880
  22.8038620  46.0945110  19.1547510  23.1228720  45.3036020  35.9173730
  22.3574390  45.8721020  35.8328400  23.3044680  45.0112230  35.0241960
  26.2117130  45.6799250  20.5426490  25.6627230  46.1268550  21.1869230
  26.8336390  45.1748500  21.0664160  18.1013860  42.0394620  37.2788280
  18.1419200  41.7408490  38.1873510  18.9559360  42.4402230  37.1195800
  21.8792250  44.6390170  22.4391790  22.3008670  44.4730040  23.2823180
  22.0043090  43.8290400  21.9446930  20.0419670  40.6186720  35.2462770
  19.5116130  40.1277670  34.6186110  20.7107740  41.0470920  34.7120700
  24.3919890  43.6627780  19.6868890  24.9125550  42.9476800  19.3210040
  25.0388290  44.3013650  19.9869400  20.5291970  37.5849090  35.3260060
  20.4348840  36.9669840  34.6010930  19.9489360  38.3115380  35.0989970
  23.2953410  36.1422330  32.3587450  22.8470710  36.1646590  31.5133000
  22.6618610  35.7441350  32.9557750  23.7012960  45.0376660  32.9799890
  24.1201070  45.8809390  32.8076130  22.7821590  45.1748700  32.7506670
  20.7751150  40.7123400  19.3849950  20.5740210  39.8490760  19.7463290
  20.6043200  40.6256760  18.4471550  21.5520380  51.3429670  34.0957620
  21.0141470  52.0675730  33.7766320  21.8054340  50.8660010  33.3054960
  22.8045630  39.3114190  35.6213550  23.3945320  39.0030040  36.3091370
  21.9865870  38.8393940  35.7773450  24.4082590  52.5780880  34.3544270
  24.3341290  53.4816020  34.6616640  23.5061430  52.2592780  34.3266340
  24.9567920  51.7439390  21.9770630  25.8518710  52.0824360  21.9989390
  24.9885550  51.0218800  21.3494910  18.5964080  47.1166440  20.2057630
  19.0338950  47.6596110  20.8615210  19.0811810  46.2913390  20.2153970
  15.8109880  49.9055470  27.6577890  16.1412890  49.0376530  27.4256530
  16.2400880  50.1113990  28.4882850  20.4071800  48.2364480  25.3179860
  20.1067340  48.1129450  26.2183770  20.3009290  47.3773070  24.9095590
  16.3000090  50.7726060  30.3959520  15.8631080  50.9526860  31.2283670
  16.8677770  51.5300680  30.2541240  33.1763720  48.0160880  20.0206540
  32.3456680  48.0837530  20.4913770  33.3535550  48.9065000  19.7173400
  32.6320180  44.7608360  22.5240740  33.3939090  45.3305010  22.6300430
  32.6474550  44.1935560  23.2949050  16.1324520  43.2846290  26.7548400
  15.4773360  43.0157930  26.1108100  16.9702470  43.1750770  26.3050380
  33.6380150  45.6158460  27.3682670  34.0088980  44.8325780  26.9618640
  34.2782080  46.3047560  27.1899970  32.6839350  45.0542730  19.6813260
  32.9588190  45.9621610  19.5532480  32.4950090  44.9905260  20.6175250
  29.0814960  38.0787580  20.9766890  29.4999840  37.8918560  20.1363550
  28.7751020  37.2266630  21.2869820  32.5804690  42.9911720  24.6742690
  32.2048290  42.2239650  24.2423980  31.8507810  43.3734420  25.1617620
  17.1700450  43.6698860  31.2951740  17.5373490  43.5826260  32.1747760
  16.6011270  42.9065410  31.1958600  16.7216450  40.5807950  35.2010160
  15.8272500  40.5474710  35.5403870  17.2614000  40.7794740  35.9661410
  15.3462600  40.4945220  22.6973730  14.4426680  40.7575420  22.5225390
  15.8303220  40.7656390  21.9173690  31.8555650  41.2169210  27.9749930
  32.3793130  40.7231860  27.3440100  32.4415070  41.3519570  28.7197500
  17.8889810  39.5510760  20.6068110  18.5981510  39.1293980  20.1215390
  17.1729750  39.6185990  19.9751460  17.5363970  35.6050090  19.6470760
  18.2592100  36.1459030  19.9651980  17.8088490  35.3313510  18.7712300
  31.3455620  40.4742560  23.9142340  31.8414740  40.2413430  24.6991220
  31.1471690  39.6354400  23.4979980  17.2256160  34.8556280  29.5493380
  17.8732350  34.3053660  29.1088540  17.6458000  35.1099430  30.3709190
  33.6633050  36.9411430  19.6886160  34.5882360  36.8092610  19.4804450
  33.6408840  37.0204250  20.6422610  33.7371540  37.7122090  22.3142870
  32.9423040  37.6467210  22.8435780  33.9414820  38.6472730  22.3028220
  30.6789960  51.7513640  26.3081260  31.2749030  51.4298210  25.6315680
  30.9368110  51.2785460  27.0994530  16.9788160  35.0111950  32.2918700
  16.6302980  35.4675770  33.0576880  16.6475860  34.1169080  32.3741130
  18.5852530  48.1831550  36.4571890  18.5422160  47.8124460  37.3386350
  18.7163540  49.1209120  36.5973710  22.2858560  49.7391140  32.0581610
  22.0449920  50.0065700  31.1712130  23.2261200  49.9096870  32.1132470
  24.4912980  36.2023830  35.8138120  24.4301870  36.7945660  36.5633530
  25.4313360  36.0949790  35.6688380  17.6508800  34.5388150  35.5669470
  18.1991790  34.3576200  34.8035580  17.7164110  33.7482260  36.1025780
  18.4240560  51.1293800  33.5769670  17.8300880  50.9978500  34.3159710
  18.4164400  50.2931940  33.1111770  18.0552790  48.4952180  32.5277710
  17.3286850  47.8757470  32.4603660  18.1161940  48.8892790  31.6575790
  21.6597890  50.7097180  29.3127120  22.1762910  50.0984540  28.7875380
  22.3095270  51.2125960  29.8038130  24.3993390  51.6005670  30.1396100
  24.6871200  51.3459970  29.2629110  24.9116610  51.0483030  30.7301670
  16.3382790  51.8126570  25.7374470  16.1704830  51.1797250  26.4356360
  15.4717300  52.0185970  25.3868660  16.9610810  35.6443350  23.2406330
  17.7190170  35.7572230  22.6670360  16.4987980  36.4812550  23.1949760
  17.9445490  50.5059800  23.1824610  17.4193110  50.8867830  22.4786570
  17.8690070  51.1310570  23.9034320  24.4665750  52.5221770  37.5064300
  25.3933060  52.2866040  37.5500260  24.4516180  53.3493770  37.0250330
  32.7010810  52.0647340  24.5038550  32.8763000  51.3785080  23.8599470
  32.0032380  52.5894390  24.1115220  21.6529360  35.1866520  37.2706180
  21.3713630  35.6900120  36.5067000  22.0349060  34.3888270  36.9048310
  20.5438460  52.4542180  22.0573860  21.2757280  52.1701460  21.5097750
  20.8032130  52.2155460  22.9473240  19.7053250  48.5706910  22.0620190
  19.0762130  49.0392010  22.6106020  19.8201080  47.7256130  22.4966380
  31.0343310  51.7491630  37.3305340  31.8268630  51.2540860  37.1231300
  31.3276460  52.4281770  37.9380950  27.1602970  42.6212570   8.2121390
  27.0797020  41.7067180   7.9413100  26.7467390  43.1179640   7.5061100
  25.2921010  44.3991590  10.0930660  24.5163110  43.9192030  10.3829230
  25.9433940  43.7197240   9.9186820  19.3086840  44.7111400  10.9706420
  18.4771720  44.4560110  11.3702930  19.9167820  44.7822170  11.7064340
  29.3128440  48.8051780   8.8729790  28.8509970  48.0339020   9.2016960
  30.1253990  48.8317850   9.3782240  19.2888100  48.7451490  11.1664440
  19.5916140  47.8549230  10.9874660  20.0331690  49.3021710  10.9386690
  17.7178790  39.6713290   4.7548810  16.8295490  40.0129260   4.6528690
  18.0019980  39.4713610   3.8629640  15.6811800  42.2718940  10.6388510
  16.2527910  41.5041140  10.6392150  15.6813340  42.5707700   9.7295120
  25.5391750  51.0909790   8.4933780  24.9203190  51.5467290   7.9228220
  26.3943530  51.2461250   8.0923480  24.7330000  47.0748780  10.1000820
  24.6638280  46.1338720   9.9389950  25.4949860  47.1650190  10.6723390
  16.9236670  37.6803300  12.4257440  16.7439510  36.7829050  12.7060200
  16.5216750  38.2275170  13.1004390  25.7635170  39.8819160  10.3269750
  26.1399990  39.0091040  10.2143420  25.6654680  40.2177860   9.4360190
  19.8940180  38.2544790   5.7887190  20.0006930  39.1548520   6.0955950
  18.9832540  38.2062760   5.4981840  29.5459290  37.3769600   7.2598090
  30.3668910  36.8866170   7.3023570  29.5793370  37.9667260   8.0129930
  17.5423340  40.1763800  11.0339780  18.2233450  40.4402170  11.6527180
  17.2271390  39.3364670  11.3677790  21.7347910  41.2231160  10.1212370
  22.2426130  41.7212130  10.7617390  22.2661150  40.4466360   9.9451730
  33.8358840  39.3936350  13.8241720  33.1311010  39.7818060  13.3056830
  34.1016760  40.0886640  14.4262650  20.0184010  35.8629720  14.3875790
  20.0202450  36.3802110  13.5821690  19.1888320  35.3859900  14.3645720
  26.4055100  45.9749030   5.8865690  25.7872370  46.4398480   5.3228410
  26.9178350  46.6676510   6.3035200  21.2686860  45.5024900  12.5649290
  20.9356240  46.1293820  13.2070360  21.4453540  46.0286780  11.7850960
  29.7820770  39.3169980  10.0325630  29.0776340  39.6054870  10.6128740
  30.1432930  40.1270090   9.6725190  19.6999340  37.5739680  12.3946240
  20.0416150  38.4181730  12.1000110  18.7615150  37.7223420  12.5111580
  20.4805960  47.4705700  14.3798470  21.0979960  48.1456780  14.0982920
  19.6199080  47.8793680  14.2885970  15.7738300  46.6605560   3.2605320
  15.3966280  47.1492660   2.5290220  16.0311370  47.3330840   3.8911850
  31.3983550  48.9345110  12.2953110  30.7147070  49.6044220  12.2869780
  31.9377840  49.1325760  11.5297970  32.8507690  38.7624770  10.4234840
  31.9032600  38.7963750  10.5550270  33.1757680  39.5763720  10.8084200
  23.3827230  35.0621950   8.7190830  23.6902210  34.5068840   8.0026330
  22.4527930  35.1966410   8.5363820  28.9342290  50.7789240  11.0098290
  28.9469450  50.3751530  10.1420550  28.3817510  51.5536530  10.9059720
  30.2287710  47.5005460   6.0988460  30.1184040  46.5579790   6.2237880
  30.2255960  47.8621100   6.9851220  28.3327730  45.6819080  12.3380900
  28.7496520  45.4679190  11.5034360  29.0567550  45.9391870  12.9089520
  25.7707990  43.1270780   5.4550950  24.8437270  43.0608160   5.6839420
  25.9232810  44.0650910   5.3406190  25.7577070  39.3987780   2.4518110
  24.8180740  39.5601740   2.5370570  26.0760330  40.1173460   1.9054100
  32.2789830  44.0806300  12.4297140  31.4508460  44.1499390  11.9547270
  32.8740310  44.6660610  11.9612970  29.8005280  44.6891080   5.9586200
  29.1817700  44.3510630   5.3112500  29.7829730  44.0450840   6.6665390
  29.2431840  40.8675620  13.3752010  28.8303020  41.6929330  13.6292000
  28.5107790  40.2820660  13.1828370  21.3764630  43.6535520   8.2370680
  20.9721630  42.9412770   7.7416580  21.4627750  43.3088760   9.1258720
  21.8446330  47.3403080  10.4009890  21.5474620  46.7348550   9.7217670
  22.7946150  47.3780390  10.2899250  20.0893250  40.4278730  12.0169720
  20.6407840  40.5374070  11.2422970  20.6036760  40.8016330  12.7324950
  29.9331940  50.9134950  14.0632990  29.4562500  51.7207140  13.8705600
  29.2493730  50.2613280  14.2159200  20.9364760  47.0784770  17.0517690
  20.0393290  47.3024740  17.2991090  20.9617630  47.2019710  16.1029090
  27.9769980  43.9277890   2.9658950  28.4163260  43.0900320   2.8196770
  28.6898400  44.5607290   3.0523090  19.7635980  43.9498090  15.6275060
  19.6243750  44.8220890  15.9962460  18.8817340  43.6070900  15.4823000
  26.0865360  48.8673960   6.9340190  26.5261270  49.6098290   6.5195580
  26.0252250  49.1100530   7.8579150  21.5616330  49.8919790  17.8360210
  21.5331760  50.2962740  16.9688640  21.3981300  48.9630150  17.6731810
  18.0769260  42.5480500   5.7377330  17.9566860  43.2742590   5.1258600
  17.7670150  41.7783410   5.2605240  33.5131150  50.6746890  19.1324380
  33.9890870  51.1529780  19.8113460  34.1338310  50.6064380  18.4069880
  15.7154630  45.7195640  11.5445970  15.7935050  45.8544410  10.6001690
  16.3296310  45.0111530  11.7374090  16.9602260  47.4195830   7.9552150
  16.5530340  47.5610420   7.1005750  17.8515270  47.1355990   7.7523360
  32.9164400  47.8659740  16.2924390  33.0427460  47.6271620  15.3741570
  32.9585780  47.0344280  16.7646470  26.7781140  51.5687740  14.8619200
  27.2925810  51.4795750  15.6641630  25.9350220  51.9147440  15.1547110
  28.7535540  51.8543080   4.2903200  28.5936680  51.5646020   5.1885030
  28.5882250  51.0783210   3.7548430  21.2323920  51.6341610   6.0674820
  21.0566400  50.7177150   5.8542620  20.3779660  51.9928900   6.3072620
  28.4561670  49.3630640   2.8501200  27.7626830  49.3607930   2.1903480
  29.1984530  48.9389960   2.4195370  28.0211600  50.9893350   6.9249690
  28.4768550  50.2082730   7.2388310  28.3604120  51.7000170   7.4690870
  32.7688410  39.9192200  17.2574130  32.1532680  40.4271870  16.7289590
  32.4484830  39.0190530  17.2000070  15.7714150  46.7609810  14.0840430
  15.9345190  46.2915170  13.2659800  16.2366600  46.2533370  14.7489270
  20.5432920  35.8915570   9.1201000  20.1001070  36.6725110   8.7885520
  21.1017910  36.2145460   9.8271940  24.8302730  38.7584090  14.7236320
  24.3682100  38.9667110  15.5356260  24.4280840  37.9443440  14.4206990
  29.8307240  39.9793040  15.8532980  28.9800830  39.6798790  16.1742050
  29.6709030  40.2235050  14.9416800  26.9256950  41.4794790  17.9531770
  27.2510360  40.6458540  17.6134000  27.7137280  42.0023310  18.1010100
  23.6591740  35.5126270   4.0006830  23.0345920  35.5086140   4.7260140
  23.5721860  34.6457230   3.6042800  22.5808820  36.4362900  10.9790600
  22.8781150  37.3425730  10.8982620  23.1294380  35.9481680  10.3650170
  20.3347140  41.0149140   6.8482250  20.1088060  40.7986310   7.7528870
  19.5539670  41.4477600   6.5028220  27.5644900  41.0212510   5.4472900
  26.9653790  41.7448310   5.2636520  28.1124510  40.9589290   4.6649350
  22.7746350  41.9134720  17.5142520  22.6789950  40.9729450  17.3642920
  23.6178330  42.1349790  17.1190590  26.1709770  39.6576050   7.4776180
  26.5639340  39.9748250   6.6644870  26.5326620  38.7787930   7.5920700
  17.9056890  38.3248390  15.6676300  17.5120280  39.1723600  15.8749080
  17.2175290  37.6874760  15.8584940  15.2073940  36.2476850   9.7006380
  14.9186990  36.8179710  10.4131360  15.9519700  35.7681300  10.0637610
  26.7564910  42.2481800  11.5726960  26.0246030  42.7568610  11.9217060
  26.3589250  41.4311780  11.2715740  23.1942300  38.9236000   9.9779450
  23.1978360  38.4825950   9.1283990  24.0893420  39.2453330  10.0851270
  19.0444680  38.8062490   8.9373660  18.7044730  39.2837720   9.6940710
  18.2822000  38.3527610   8.5774760  23.2562450  39.9248080   2.9686210
  23.3775270  39.8834560   3.9172030  22.8710960  40.7872230   2.8132940
  27.2190820  37.7015480  10.9849900  27.2363560  38.1524130  11.8291750
  26.9706400  36.8021120  11.1983340  22.2683950  42.2349220   2.3669510
  21.7000850  41.7867470   1.7405420  22.9772950  42.5942000   1.8334660
  30.6461570  35.1147660  16.8236280  30.9707340  34.3837320  17.3494260
  30.6818080  34.7961300  15.9217270  17.3453130  46.1361240  16.2436240
  16.9607920  45.4954910  16.8419200  17.6565320  46.8397360  16.8130970
  23.4950270  42.9837780  11.7244860  23.8620400  42.5096350  12.4706200
  23.3055330  43.8579350  12.0653200  16.3590760  37.7281470   7.8538330
  16.0737680  37.3637140   8.6916950  16.2969620  36.9961930   7.2401470
  21.2849640  42.0246420  14.0429070  20.9806710  42.9038400  14.2679430
  22.2396100  42.0846210  14.0786510  19.8131430  46.2307410   4.6395920
  19.0393690  45.6905030   4.4794640  20.5426060  45.7114020   4.3013680
  30.5719410  45.2272770  10.4322310  31.2918530  45.7228060  10.0418420
  30.3701230  44.5490660   9.7876180  26.0329350  36.6210730   4.5751700
  25.2193960  36.1223900   4.4997010  25.8391300  37.4608980   4.1588050
  25.9538210  45.2981830  16.3191310  25.8875520  44.3777500  16.0648900
  25.3243350  45.3957270  17.0335950  28.7477740  40.9930380   2.8713860
  29.6357360  41.3047610   2.6965200  28.7182830  40.1202630   2.4794440
  19.8568830  45.8987790   8.2774730  20.3747500  45.0956050   8.2231620
  19.4052850  45.8366930   9.1191560  24.7438330  47.1654070   3.5502030
  25.0854030  47.9096300   3.0545350  23.9151040  47.4785190   3.9126860
  17.3413370  42.8649160  15.1900430  16.9828310  43.5303010  15.7773770
  17.0467930  42.0332710  15.5613050  20.5426490  43.3233400  18.0739980
  20.2426630  43.4690580  17.1767800  21.3137730  42.7638690  17.9813370
  25.8854940  48.1202400  16.0695110  25.8999480  47.1883360  15.8514020
  25.1780040  48.2062160  16.7084880  32.0966150  44.7609740  15.4163690
  31.3714340  45.3538520  15.2193080  32.6241610  44.7533280  14.6177060
  32.0479260  49.1584480   5.0675850  31.4055420  48.5040100   5.3419570
  31.6609920  49.5639570   4.2916520  27.6265740  46.4869910   8.9147540
  27.9789560  45.8898040   8.2548910  26.7428070  46.1614140   9.0855790
  23.7129020  47.2467600   6.3217950  24.4000150  47.7936810   6.7025540
  22.9261440  47.7908330   6.3567560  15.8521420  42.8640420   1.8135030
  16.7216270  43.1465220   2.0970950  15.3611740  43.6776290   1.6983840
  23.0156230  44.2513630   5.9343310  23.4719010  45.0618880   6.1603500
  22.6644440  43.9336770   6.7661800  25.3188840  49.7619970  13.1635610
  25.9631060  49.9679350  13.8409030  25.6818280  49.0008370  12.7106460
  18.9168010  34.5951280   6.4065830  18.7882640  34.5869180   7.3550750
  18.0930030  34.9334370   6.0556840  26.5920920  47.7652320  11.8813060
  27.2343150  47.0645480  11.9945230  27.1170270  48.5450760  11.7009950
  28.3658540  48.5647220  15.0849120  28.7014780  49.1513910  15.7627040
  27.4458880  48.4339930  15.3146910  16.2192670  52.0767800   2.3796660
  16.5790310  52.6757140   1.7253930  16.0785010  52.6227690   3.1531690
  15.9161940  36.3542400  15.8672530  15.2020460  36.5539320  16.4725140
  16.3356980  35.5781970  16.2387330  30.0192890  45.9672880   3.2666360
  29.7314590  46.4285570   4.0544240  30.8145060  45.5070650   3.5350580
  16.2034530  50.3422660  16.8539060  16.3125650  49.4017400  16.7134450
  15.5515090  50.6077410  16.2052790  24.1947120  48.6138550  18.2537180
  23.8743990  47.8947790  18.7982870  23.5205480  49.2893620  18.3273240
  22.2361290  49.4599000   3.1970330  22.2271390  50.1928690   2.5814840
  21.3159650  49.2130580   3.2897290  17.8367930  44.6813890   3.9417090
  17.2295880  45.4212790   3.9512390  18.3117280  44.7713250   3.1155290
  27.4100720  38.8464710  13.6173980  27.7781540  38.0259920  13.9453550
  26.5498920  38.9066600  14.0329630  30.7762750  37.8021650   4.4261540
  30.1475910  37.9067320   3.7119770  30.2814670  38.0218430   5.2155420
  22.7446780  40.0807600   5.8419420  22.0362930  40.5493940   6.2833030
  23.0291260  39.4229610   6.4764610  24.3702710  41.5004300  13.8411950
  24.8687960  41.9750120  14.5063800  24.5125660  40.5767820  14.0481980
  26.7762210  36.8058260   7.2815210  26.6529990  36.8244390   6.3324720
  27.7246770  36.8537200   7.4013610  23.8639000  52.0413560   6.5543190
  24.1180500  52.0034950   5.6322560  22.9151480  51.9146890   6.5471440
  20.9481800  38.3892680   3.2170130  21.7972330  38.8262830   3.1510320
  20.5813070  38.7012940   4.0442190  31.5769570  37.7172260  14.6840340
  31.0743170  38.4577660  15.0234150  32.3926230  38.1056260  14.3677130
  29.8691580  42.9605440   8.1301700  28.9281720  42.9755670   8.3049390
  30.1835650  42.1741400   8.5762000  18.5419980  42.0750110   2.3738550
  18.6223570  41.1277620   2.4855950  19.4339730  42.4056990   2.4799210
  31.8717160  50.1314290   9.8055960  31.9964580  50.9545460  10.2779770
  32.7382720  49.9205020   9.4580110  19.3434690  52.2245500   9.4773090
  20.0797170  51.6760960   9.7481660  19.7275610  53.0901510   9.3379080
  16.2280170  48.2919070   5.3514600  15.3019950  48.5340210   5.3420010
  16.6936600  49.1193330   5.2299350  18.3492970  51.4091570  18.6658670
  19.1505700  51.7303620  19.0794070  17.8344790  51.0487150  19.3878580
  27.1857600  47.5171440  18.6134080  26.5795760  47.5403040  17.8729830
  26.8811710  46.7854480  19.1501330  28.6157970  51.2451730  17.2243490
  29.5679720  51.1609750  17.1743730  28.4686190  51.9093440  17.8977280
  31.5067170  50.6245940   2.7235400  31.2208680  50.2111080   1.9089580
  31.3086720  51.5533650   2.6035920  16.0690780  43.8965030  17.6094720
  16.5729800  43.3172310  18.1810950  15.3298200  44.1805260  18.1471090
  23.1228720  45.3036020  17.1430240  22.3574390  45.8721020  17.0584910
  23.3044680  45.0112230  16.2498470  26.2117130  45.6799250   1.7683000
  25.6627230  46.1268550   2.4125740  26.8336390  45.1748500   2.2920670
  30.2652070  47.0341350  17.7005260  31.0061540  47.3717110  17.1972720
  29.5024750  47.2033410  17.1475030  18.1013860  42.0394620  18.5044790
  18.1419200  41.7408490  19.4130020  18.9559360  42.4402230  18.3452310
  21.8792250  44.6390170   3.6648300  22.3008670  44.4730040   4.5079690
  22.0043090  43.8290400   3.1703440  20.0419670  40.6186720  16.4719280
  19.5116130  40.1277670  15.8442620  20.7107740  41.0470920  15.9377210
  28.9397730  45.0856180  16.2360470  29.3538750  45.2401260  17.0850890
  28.0048730  45.2111400  16.3986250  29.4119900  42.4252340  18.2399620
  29.9940670  41.6704660  18.1520100  29.5881670  42.9559780  17.4631100
  20.5291970  37.5849090  16.5516570  20.4348840  36.9669840  15.8267440
  19.9489360  38.3115380  16.3246480  23.2953410  36.1422330  13.5843960
  22.8470710  36.1646590  12.7389510  22.6618610  35.7441350  14.1814260
  23.7012960  45.0376660  14.2056400  24.1201070  45.8809390  14.0332640
  22.7821590  45.1748700  13.9763180  26.0376860  42.7692840  15.5894240
  26.1573070  42.1733980  16.3289080  26.8970860  42.8062530  15.1695540
  28.3764760  43.3230030  14.1656750  27.8499980  43.8472650  13.5621890
  28.7196100  43.9557420  14.7966480  21.5520380  51.3429670  15.3214130
  21.0141470  52.0675730  15.0022830  21.8054340  50.8660010  14.5311470
  22.8045630  39.3114190  16.8470060  23.3945320  39.0030040  17.5347880
  21.9865870  38.8393940  17.0029960  27.6239060  38.9280000  17.0803080
  26.9354580  38.2661540  17.0153070  28.3445080  38.4818270  17.5251540
  28.2539460  35.5231630   3.1393340  28.5341750  34.6799530   3.4952760
  27.4805190  35.7554740   3.6532090  24.4082590  52.5780880  15.5800780
  24.3341290  53.4816020  15.8873150  23.5061430  52.2592780  15.5522850
  24.9567920  51.7439390   3.2027140  25.8518710  52.0824360   3.2245900
  24.9885550  51.0218800   2.5751420  15.8109880  49.9055470   8.8834400
  16.1412890  49.0376530   8.6513040  16.2400880  50.1113990   9.7139360
  20.4071800  48.2364480   6.5436370  20.1067340  48.1129450   7.4440280
  20.3009290  47.3773070   6.1352100  16.3000090  50.7726060  11.6216030
  15.8631080  50.9526860  12.4540180  16.8677770  51.5300680  11.4797750
  31.9362270  50.2743060  15.9093340  31.3364260  50.3335620  15.1657260
  32.0656170  49.3348040  16.0390190  32.6320180  44.7608360   3.7497250
  33.3939090  45.3305010   3.8556940  32.6474550  44.1935560   4.5205560
  16.1324520  43.2846290   7.9804910  15.4773360  43.0157930   7.3364610
  16.9702470  43.1750770   7.5306890  33.6380150  45.6158460   8.5939180
  34.0088980  44.8325780   8.1875150  34.2782080  46.3047560   8.4156480
  30.6213910  46.9995040  14.0069500  29.8073750  47.4292200  14.2695290
  31.0288110  47.6113450  13.3938550  32.5804690  42.9911720   5.8999200
  32.2048290  42.2239650   5.4680490  31.8507810  43.3734420   6.3874130
  17.1700450  43.6698860  12.5208250  17.5373490  43.5826260  13.4004270
  16.6011270  42.9065410  12.4215110  31.9704310  42.1383240  15.5338720
  31.7390400  41.9095990  14.6336670  32.2308860  43.0582790  15.4883610
  16.7216450  40.5807950  16.4266670  15.8272500  40.5474710  16.7660380
  17.2614000  40.7794740  17.1917920  30.4092380  37.3639670  18.3118420
  31.2862560  37.3723070  18.6952420  30.4213220  36.6270510  17.7010770
  15.3462600  40.4945220   3.9230240  14.4426680  40.7575420   3.7481900
  15.8303220  40.7656390   3.1430200  31.8555650  41.2169210   9.2006440
  32.3793130  40.7231860   8.5696610  32.4415070  41.3519570   9.9454010
  32.0345370  41.3009080  12.7225990  31.0848080  41.2672620  12.8370980
  32.2158380  42.2109190  12.4875760  31.3455620  40.4742560   5.1398850
  31.8414740  40.2413430   5.9247730  31.1471690  39.6354400   4.7236490
  17.2256160  34.8556280  10.7749890  17.8732350  34.3053660  10.3345050
  17.6458000  35.1099430  11.5965700  32.7742780  39.1103510   7.6736530
  32.6642060  38.9559550   8.6118800  33.5350370  38.5824450   7.4311940
  31.1208500  35.0497640  14.1319530  31.7580720  35.6631780  14.4978720
  31.2683390  35.0858300  13.1868760  33.7371540  37.7122090   3.5399380
  32.9423040  37.6467210   4.0692290  33.9414820  38.6472730   3.5284730
  30.6789960  51.7513640   7.5337770  31.2749030  51.4298210   6.8572190
  30.9368110  51.2785460   8.3251040  16.9788160  35.0111950  13.5175210
  16.6302980  35.4675770  14.2833390  16.6475860  34.1169080  13.5997640
  18.5852530  48.1831550  17.6828400  18.5422160  47.8124460  18.5642860
  18.7163540  49.1209120  17.8230220  22.2858560  49.7391140  13.2838120
  22.0449920  50.0065700  12.3968640  23.2261200  49.9096870  13.3388980
  27.1287540  35.8593890  16.6786920  27.7427950  36.1773180  16.0168000
  27.6737100  35.3742480  17.2982780  33.5462720  51.7585520  14.0848760
  33.0521000  52.1554390  13.3675890  32.9376010  51.1334730  14.4786040
  17.6508800  34.5388150  16.7925980  18.1991790  34.3576200  16.0292090
  17.7164110  33.7482260  17.3282290  18.4240560  51.1293800  14.8026180
  17.8300880  50.9978500  15.5416220  18.4164400  50.2931940  14.3368280
  27.8695580  34.4226030  13.0056210  26.9955420  34.7561140  12.8029140
  27.7606330  33.9499210  13.8308080  28.7767560  36.6296900  14.3897930
  28.4480920  35.8148660  14.0099660  29.7249860  36.5866710  14.2663620
  31.2302170  52.4008940  11.3635500  30.7705140  53.1524750  10.9893520
  30.6014630  51.6815410  11.3050300  18.0552790  48.4952180  13.7534220
  17.3286850  47.8757470  13.6860170  18.1161940  48.8892790  12.8832300
  21.6597890  50.7097180  10.5383630  22.1762910  50.0984540  10.0131890
  22.3095270  51.2125960  11.0294640  24.3993390  51.6005670  11.3652610
  24.6871200  51.3459970  10.4885620  24.9116610  51.0483030  11.9558180
  25.6170400  35.3395870  11.9449120  24.8342190  35.8141370  12.2245880
  25.3233330  34.4350700  11.8362300  30.1691470  36.0418970   9.9898210
  30.6099560  35.9864070   9.1419810  29.8999060  36.9576980  10.0608390
  32.0330040  35.6734210   8.0007030  31.9718440  34.7295430   7.8538050
  32.8122070  35.7814300   8.5460490  16.3382790  51.8126570   6.9630980
  16.1704830  51.1797250   7.6612870  15.4717300  52.0185970   6.6125170
  16.9610810  35.6443350   4.4662840  17.7190170  35.7572230   3.8926870
  16.4987980  36.4812550   4.4206270  23.5024620  37.7582620   7.4565150
  22.6899130  37.3839510   7.1161030  24.0066260  37.0027700   7.7586340
  28.0049600  34.4225070   8.6948220  28.6078970  34.9945280   9.1696740
  27.2642590  34.9864510   8.4722120  31.1484200  34.8246630   3.9688500
  31.3434830  35.7230080   4.2355930  30.3614070  34.5933710   4.4621450
  17.9445490  50.5059800   4.4081120  17.4193110  50.8867830   3.7043080
  17.8690070  51.1310570   5.1290830  19.3335960  36.1707400   3.0064810
  19.8628720  35.3837200   2.8772760  19.9664280  36.8498590   3.2400340
  21.5273800  35.9082540   6.0610200  20.8976540  35.2069850   6.2280330
  20.9878940  36.6686670   5.8443360  24.4665750  52.5221770  18.7320810
  25.3933060  52.2866040  18.7756770  24.4516180  53.3493770  18.2506840
  32.7010810  52.0647340   5.7295060  32.8763000  51.3785080   5.0855980
  32.0032380  52.5894390   5.3371730  20.5438460  52.4542180   3.2830370
  21.2757280  52.1701460   2.7354260  20.8032130  52.2155460   4.1729750
  19.7053250  48.5706910   3.2876700  19.0762130  49.0392010   3.8362530
  19.8201080  47.7256130   3.7222890  28.2544820  34.6020100  19.0743160
  28.1410270  34.9214710  19.9694680  29.0714560  35.0032610  18.7780440
  31.0343310  51.7491630  18.5561850  31.8268630  51.2540860  18.3487810
  31.3276460  52.4281770  19.1637460  27.1602970  23.8469080  45.7608370
  27.0797020  22.9323690  45.4900080  26.7467390  24.3436150  45.0548080
  25.2921010  25.6248100  47.6417640  24.5163110  25.1448540  47.9316210
  25.9433940  24.9453750  47.4673800  19.3086840  25.9367910  48.5193400
  18.4771720  25.6816620  48.9189910  19.9167820  26.0078680  49.2551320
  29.3128440  30.0308290  46.4216770  28.8509970  29.2595530  46.7503940
  30.1253990  30.0574360  46.9269220  19.2888100  29.9708000  48.7151420
  19.5916140  29.0805740  48.5361640  20.0331690  30.5278220  48.4873670
  17.7178790  20.8969800  42.3035790  16.8295490  21.2385770  42.2015670
  18.0019980  20.6970120  41.4116620  15.6811800  23.4975450  48.1875490
  16.2527910  22.7297650  48.1879130  15.6813340  23.7964210  47.2782100
  25.5391750  32.3166300  46.0420760  24.9203190  32.7723800  45.4715200
  26.3943530  32.4717760  45.6410460  24.7330000  28.3005290  47.6487800
  24.6638280  27.3595230  47.4876930  25.4949860  28.3906700  48.2210370
  16.9236670  18.9059810  49.9744420  16.7439510  18.0085560  50.2547180
  16.5216750  19.4531680  50.6491370  25.7635170  21.1075670  47.8756730
  26.1399990  20.2347550  47.7630400  25.6654680  21.4434370  46.9847170
  19.8940180  19.4801300  43.3374170  20.0006930  20.3805030  43.6442930
  18.9832540  19.4319270  43.0468820  29.5459290  18.6026110  44.8085070
  30.3668910  18.1122680  44.8510550  29.5793370  19.1923770  45.5616910
  17.5423340  21.4020310  48.5826760  18.2233450  21.6658680  49.2014160
  17.2271390  20.5621180  48.9164770  21.7347910  22.4487670  47.6699350
  22.2426130  22.9468640  48.3104370  22.2661150  21.6722870  47.4938710
  33.8358840  20.6192860  51.3728700  33.1311010  21.0074570  50.8543810
  34.1016760  21.3143150  51.9749630  20.0184010  17.0886230  51.9362770
  20.0202450  17.6058620  51.1308670  19.1888320  16.6116410  51.9132700
  26.4055100  27.2005540  43.4352670  25.7872370  27.6654990  42.8715390
  26.9178350  27.8933020  43.8522180  21.2686860  26.7281410  50.1136270
  20.9356240  27.3550330  50.7557340  21.4453540  27.2543290  49.3337940
  29.7820770  20.5426490  47.5812610  29.0776340  20.8311380  48.1615720
  30.1432930  21.3526600  47.2212170  19.6999340  18.7996190  49.9433220
  20.0416150  19.6438240  49.6487090  18.7615150  18.9479930  50.0598560
  20.4805960  28.6962210  51.9285450  21.0979960  29.3713290  51.6469900
  19.6199080  29.1050190  51.8372950  15.7738300  27.8862070  40.8092300
  15.3966280  28.3749170  40.0777200  16.0311370  28.5587350  41.4398830
  31.3983550  30.1601620  49.8440090  30.7147070  30.8300730  49.8356760
  31.9377840  30.3582270  49.0784950  32.8507690  19.9881280  47.9721820
  31.9032600  20.0220260  48.1037250  33.1757680  20.8020230  48.3571180
  23.3827230  16.2878460  46.2677810  23.6902210  15.7325350  45.5513310
  22.4527930  16.4222920  46.0850800  28.9342290  32.0045750  48.5585270
  28.9469450  31.6008040  47.6907530  28.3817510  32.7793040  48.4546700
  30.2287710  28.7261970  43.6475440  30.1184040  27.7836300  43.7724860
  30.2255960  29.0877610  44.5338200  28.3327730  26.9075590  49.8867880
  28.7496520  26.6935700  49.0521340  29.0567550  27.1648380  50.4576500
  25.7707990  24.3527290  43.0037930  24.8437270  24.2864670  43.2326400
  25.9232810  25.2907420  42.8893170  32.2789830  25.3062810  49.9784120
  31.4508460  25.3755900  49.5034250  32.8740310  25.8917120  49.5099950
  29.8005280  25.9147590  43.5073180  29.1817700  25.5767140  42.8599480
  29.7829730  25.2707350  44.2152370  29.2431840  22.0932130  50.9238990
  28.8303020  22.9185840  51.1778980  28.5107790  21.5077170  50.7315350
  21.3764630  24.8792030  45.7857660  20.9721630  24.1669280  45.2903560
  21.4627750  24.5345270  46.6745700  21.8446330  28.5659590  47.9496870
  21.5474620  27.9605060  47.2704650  22.7946150  28.6036900  47.8386230
  20.0893250  21.6535240  49.5656700  20.6407840  21.7630580  48.7909950
  20.6036760  22.0272840  50.2811930  29.9331940  32.1391460  51.6119970
  29.4562500  32.9463650  51.4192580  29.2493730  31.4869790  51.7646180
  20.9364760  28.3041280  54.6004670  20.0393290  28.5281250  54.8478070
  20.9617630  28.4276220  53.6516070  27.9769980  25.1534400  40.5145930
  28.4163260  24.3156830  40.3683750  28.6898400  25.7863800  40.6010070
  19.7635980  25.1754600  53.1762040  19.6243750  26.0477400  53.5449440
  18.8817340  24.8327410  53.0309980  26.0865360  30.0930470  44.4827170
  26.5261270  30.8354800  44.0682560  26.0252250  30.3357040  45.4066130
  21.5616330  31.1176300  55.3847190  21.5331760  31.5219250  54.5175620
  21.3981300  30.1886660  55.2218790  31.5587120  16.4077210  38.8286970
  31.2459780  16.5004040  39.7286040  32.3199590  16.9858240  38.7784400
  18.0769260  23.7737010  43.2864310  17.9566860  24.4999100  42.6745580
  17.7670150  23.0039920  42.8092220  15.7154630  26.9452150  49.0932950
  15.7935050  27.0800920  48.1488670  16.3296310  26.2368040  49.2861070
  16.9602260  28.6452340  45.5039130  16.5530340  28.7866930  44.6492730
  17.8515270  28.3612500  45.3010340  32.9164400  29.0916250  53.8411370
  33.0427460  28.8528130  52.9228550  32.9585780  28.2600790  54.3133450
  26.7781140  32.7944250  52.4106180  27.2925810  32.7052260  53.2128610
  25.9350220  33.1403950  52.7034090  28.7535540  33.0799590  41.8390180
  28.5936680  32.7902530  42.7372010  28.5882250  32.3039720  41.3035410
  21.2323920  32.8598120  43.6161800  21.0566400  31.9433660  43.4029600
  20.3779660  33.2185410  43.8559600  28.4561670  30.5887150  40.3988180
  27.7626830  30.5864440  39.7390460  29.1984530  30.1646470  39.9682350
  28.0211600  32.2149860  44.4736670  28.4768550  31.4339240  44.7875290
  28.3604120  32.9256680  45.0177850  32.7688410  21.1448710  54.8061110
  32.1532680  21.6528380  54.2776570  32.4484830  20.2447040  54.7487050
  15.7714150  27.9866320  51.6327410  15.9345190  27.5171680  50.8146780
  16.2366600  27.4789880  52.2976250  20.5432920  17.1172080  46.6687980
  20.1001070  17.8981620  46.3372500  21.1017910  17.4401970  47.3758920
  24.8302730  19.9840600  52.2723300  24.3682100  20.1923620  53.0843240
  24.4280840  19.1699950  51.9693970  29.8307240  21.2049550  53.4019960
  28.9800830  20.9055300  53.7229030  29.6709030  21.4491560  52.4903780
  26.9256950  22.7051300  55.5018750  27.2510360  21.8715050  55.1620980
  27.7137280  23.2279820  55.6497080  23.6591740  16.7382780  41.5493810
  23.0345920  16.7342650  42.2747120  23.5721860  15.8713740  41.1529780
  22.5808820  17.6619410  48.5277580  22.8781150  18.5682240  48.4469600
  23.1294380  17.1738190  47.9137150  20.3347140  22.2405650  44.3969230
  20.1088060  22.0242820  45.3015850  19.5539670  22.6734110  44.0515200
  27.5644900  22.2469020  42.9959880  26.9653790  22.9704820  42.8123500
  28.1124510  22.1845800  42.2136330  22.7746350  23.1391230  55.0629500
  22.6789950  22.1985960  54.9129900  23.6178330  23.3606300  54.6677570
  26.1709770  20.8832560  45.0263160  26.5639340  21.2004760  44.2131850
  26.5326620  20.0044440  45.1407680  17.9056890  19.5504900  53.2163280
  17.5120280  20.3980110  53.4236060  17.2175290  18.9131270  53.4071920
  15.2073940  17.4733360  47.2493360  14.9186990  18.0436220  47.9618340
  15.9519700  16.9937810  47.6124590  15.3944170  21.4153480  38.4596080
  15.3118840  22.3584240  38.6011070  15.0427230  21.2728390  37.5808430
  26.7564910  23.4738310  49.1213940  26.0246030  23.9825120  49.4704040
  26.3589250  22.6568290  48.8202720  23.1942300  20.1492510  47.5266430
  23.1978360  19.7082460  46.6770970  24.0893420  20.4709840  47.6338250
  19.0444680  20.0319000  46.4860640  18.7044730  20.5094230  47.2427690
  18.2822000  19.5784120  46.1261740  23.2562450  21.1504590  40.5173190
  23.3775270  21.1091070  41.4659010  22.8710960  22.0128740  40.3619920
  27.2190820  18.9271990  48.5336880  27.2363560  19.3780640  49.3778730
  26.9706400  18.0277630  48.7470320  22.2683950  23.4605730  39.9156490
  21.7000850  23.0123980  39.2892400  22.9772950  23.8198510  39.3821640
  30.6461570  16.3404170  54.3723260  30.9707340  15.6093830  54.8981240
  30.6818080  16.0217810  53.4704250  17.3453130  27.3617750  53.7923220
  16.9607920  26.7211420  54.3906180  17.6565320  28.0653870  54.3617950
  23.4950270  24.2094290  49.2731840  23.8620400  23.7352860  50.0193180
  23.3055330  25.0835860  49.6140180  16.3590760  18.9537980  45.4025310
  16.0737680  18.5893650  46.2403930  16.2969620  18.2218440  44.7888450
  21.2849640  23.2502930  51.5916050  20.9806710  24.1294910  51.8166410
  22.2396100  23.3102720  51.6273490  19.8131430  27.4563920  42.1882900
  19.0393690  26.9161540  42.0281620  20.5426060  26.9370530  41.8500660
  30.5719410  26.4529280  47.9809290  31.2918530  26.9484570  47.5905400
  30.3701230  25.7747170  47.3363160  26.0329350  17.8467240  42.1238680
  25.2193960  17.3480410  42.0483990  25.8391300  18.6865490  41.7075030
  25.9538210  26.5238340  53.8678290  25.8875520  25.6034010  53.6135880
  25.3243350  26.6213780  54.5822930  28.7477740  22.2186890  40.4200840
  29.6357360  22.5304120  40.2452180  28.7182830  21.3459140  40.0281420
  19.8568830  27.1244300  45.8261710  20.3747500  26.3212560  45.7718600
  19.4052850  27.0623440  46.6678540  24.7438330  28.3910580  41.0989010
  25.0854030  29.1352810  40.6032330  23.9151040  28.7041700  41.4613840
  17.3413370  24.0905670  52.7387410  16.9828310  24.7559520  53.3260750
  17.0467930  23.2589220  53.1100030  20.5426490  24.5489910  55.6226960
  20.2426630  24.6947090  54.7254780  21.3137730  23.9895200  55.5300350
  25.8854940  29.3458910  53.6182090  25.8999480  28.4139870  53.4001000
  25.1780040  29.4318670  54.2571860  31.0192010  23.5298730  39.8880700
  30.9355730  23.9612950  39.0377140  31.7386200  23.9897080  40.3207520
  32.0966150  25.9866250  52.9650670  31.3714340  26.5795030  52.7680060
  32.6241610  25.9789790  52.1664040  32.0479260  30.3840990  42.6162830
  31.4055420  29.7296610  42.8906550  31.6609920  30.7896080  41.8403500
  27.6265740  27.7126420  46.4634520  27.9789560  27.1154550  45.8035890
  26.7428070  27.3870650  46.6342770  23.7129020  28.4724110  43.8704930
  24.4000150  29.0193320  44.2512520  22.9261440  29.0164840  43.9054540
  15.8521420  24.0896930  39.3622010  16.7216270  24.3721730  39.6457930
  15.3611740  24.9032800  39.2470820  23.0156230  25.4770140  43.4830290
  23.4719010  26.2875390  43.7090480  22.6644440  25.1593280  44.3148780
  25.3188840  30.9876480  50.7122590  25.9631060  31.1935860  51.3896010
  25.6818280  30.2264880  50.2593440  18.9168010  15.8207790  43.9552810
  18.7882640  15.8125690  44.9037730  18.0930030  16.1590880  43.6043820
  26.5920920  28.9908830  49.4300040  27.2343150  28.2901990  49.5432210
  27.1170270  29.7707270  49.2496930  30.4376640  29.2757450  39.1539180
  30.2114220  28.5587890  39.7463820  30.0472840  29.0269890  38.3160930
  28.3658540  29.7903730  52.6336100  28.7014780  30.3770420  53.3114020
  27.4458880  29.6596440  52.8633890  16.2192670  33.3024310  39.9283640
  16.5790310  33.9013650  39.2740910  16.0785010  33.8484200  40.7018670
  15.9161940  17.5798910  53.4159510  15.2020460  17.7795830  54.0212120
  16.3356980  16.8038480  53.7874310  30.0192890  27.1929390  40.8153340
  29.7314590  27.6542080  41.6031220  30.8145060  26.7327160  41.0837560
  16.2034530  31.5679170  54.4026040  16.3125650  30.6273910  54.2621430
  15.5515090  31.8333920  53.7539770  22.2361290  30.6855510  40.7457310
  22.2271390  31.4185200  40.1301820  21.3159650  30.4387090  40.8384270
  17.8367930  25.9070400  41.4904070  17.2295880  26.6469300  41.4999370
  18.3117280  25.9969760  40.6642270  27.4100720  20.0721220  51.1660960
  27.7781540  19.2516430  51.4940530  26.5498920  20.1323110  51.5816610
  30.7762750  19.0278160  41.9748520  30.1475910  19.1323830  41.2606750
  30.2814670  19.2474940  42.7642400  25.2220890  30.7483750  39.4082500
  25.3232870  30.5447740  38.4784480  24.3222630  30.4942030  39.6130280
  22.7446780  21.3064110  43.3906400  22.0362930  21.7750450  43.8320010
  23.0291260  20.6486120  44.0251590  24.3702710  22.7260810  51.3898930
  24.8687960  23.2006630  52.0550780  24.5125660  21.8024330  51.5968960
  26.7762210  18.0314770  44.8302190  26.6529990  18.0500900  43.8811700
  27.7246770  18.0793710  44.9500590  23.8639000  33.2670070  44.1030170
  24.1180500  33.2291460  43.1809540  22.9151480  33.1403400  44.0958420
  20.9481800  19.6149190  40.7657110  21.7972330  20.0519340  40.6997300
  20.5813070  19.9269450  41.5929170  31.5769570  18.9428770  52.2327320
  31.0743170  19.6834170  52.5721130  32.3926230  19.3312770  51.9164110
  29.8691580  24.1861950  45.6788680  28.9281720  24.2012180  45.8536370
  30.1835650  23.3997910  46.1248980  19.8473220  25.8681550  39.2392640
  20.6136490  25.7562910  39.8018070  19.9247910  25.1719520  38.5869410
  18.5419980  23.3006620  39.9225530  18.6223570  22.3534130  40.0342930
  19.4339730  23.6313500  40.0286190  31.8717160  31.3570800  47.3542940
  31.9964580  32.1801970  47.8266750  32.7382720  31.1461530  47.0067090
  19.3434690  33.4502010  47.0260070  20.0797170  32.9017470  47.2968640
  19.7275610  34.3158020  46.8866060  16.2280170  29.5175580  42.9001580
  15.3019950  29.7596720  42.8906990  16.6936600  30.3449840  42.7786330
  22.4537000  32.6232320  38.8485640  23.2465610  32.9121150  38.3967430
  21.9341350  32.1924490  38.1698120  28.6157970  32.4708240  54.7730470
  29.5679720  32.3866260  54.7230710  28.4686190  33.1349950  55.4464260
  22.9714400  27.8435730  38.7127990  22.8665040  27.2288080  39.4389370
  22.8038620  27.3201620  37.9291000  23.1228720  26.5292530  54.6917220
  22.3574390  27.0977530  54.6071890  23.3044680  26.2368740  53.7985450
  26.2117130  26.9055760  39.3169980  25.6627230  27.3525060  39.9612720
  26.8336390  26.4005010  39.8407650  30.2652070  28.2597860  55.2492240
  31.0061540  28.5973620  54.7459700  29.5024750  28.4289920  54.6962010
  21.8792250  25.8646680  41.2135280  22.3008670  25.6986550  42.0566670
  22.0043090  25.0546910  40.7190420  20.0419670  21.8443230  54.0206260
  19.5116130  21.3534180  53.3929600  20.7107740  22.2727430  53.4864190
  24.3919890  24.8884290  38.4612380  24.9125550  24.1733310  38.0953530
  25.0388290  25.5270160  38.7612890  28.9397730  26.3112690  53.7847450
  29.3538750  26.4657770  54.6337870  28.0048730  26.4367910  53.9473230
  20.5291970  18.8105600  54.1003550  20.4348840  18.1926350  53.3754420
  19.9489360  19.5371890  53.8733460  23.2953410  17.3678840  51.1330940
  22.8470710  17.3903100  50.2876490  22.6618610  16.9697860  51.7301240
  23.7012960  26.2633170  51.7543380  24.1201070  27.1065900  51.5819620
  22.7821590  26.4005210  51.5250160  26.0376860  23.9949350  53.1381220
  26.1573070  23.3990490  53.8776060  26.8970860  24.0319040  52.7182520
  28.3764760  24.5486540  51.7143730  27.8499980  25.0729160  51.1108870
  28.7196100  25.1813930  52.3453460  20.7751150  21.9379910  38.1593440
  20.5740210  21.0747270  38.5206780  20.6043200  21.8513270  37.2215040
  21.5520380  32.5686180  52.8701110  21.0141470  33.2932240  52.5509810
  21.8054340  32.0916520  52.0798450  22.8045630  20.5370700  54.3957040
  23.3945320  20.2286550  55.0834860  21.9865870  20.0650450  54.5516940
  27.6239060  20.1536510  54.6290060  26.9354580  19.4918050  54.5640050
  28.3445080  19.7074780  55.0738520  28.2539460  16.7488140  40.6880320
  28.5341750  15.9056040  41.0439740  27.4805190  16.9811250  41.2019070
  19.5733950  19.0380530  38.1471320  19.8759850  19.0447960  37.2390470
  20.3128540  18.6878390  38.6438980  24.4082590  33.8037390  53.1287760
  24.3341290  34.7072530  53.4360130  23.5061430  33.4849290  53.1009830
  22.7918880  17.9815150  39.1327520  22.4440880  17.3039140  38.5529970
  22.9931650  17.5204660  39.9470910  24.9567920  32.9695900  40.7514120
  25.8518710  33.3080870  40.7732880  24.9885550  32.2475310  40.1238400
  18.5964080  28.3422950  38.9801120  19.0338950  28.8852620  39.6358700
  19.0811810  27.5169900  38.9897460  15.8109880  31.1311980  46.4321380
  16.1412890  30.2633040  46.2000020  16.2400880  31.3370500  47.2626340
  20.4071800  29.4620990  44.0923350  20.1067340  29.3385960  44.9927260
  20.3009290  28.6029580  43.6839080  16.3000090  31.9982570  49.1703010
  15.8631080  32.1783370  50.0027160  16.8677770  32.7557190  49.0284730
  31.9362270  31.4999570  53.4580320  31.3364260  31.5592130  52.7144240
  32.0656170  30.5604550  53.5877170  33.1763720  29.2417390  38.7950030
  32.3456680  29.3094040  39.2657260  33.3535550  30.1321510  38.4916890
  32.6320180  25.9864870  41.2984230  33.3939090  26.5561520  41.4043920
  32.6474550  25.4192070  42.0692540  16.1324520  24.5102800  45.5291890
  15.4773360  24.2414440  44.8851590  16.9702470  24.4007280  45.0793870
  33.6380150  26.8414970  46.1426160  34.0088980  26.0582290  45.7362130
  34.2782080  27.5304070  45.9643460  30.6213910  28.2251550  51.5556480
  29.8073750  28.6548710  51.8182270  31.0288110  28.8369960  50.9425530
  32.6839350  26.2799240  38.4556750  32.9588190  27.1878120  38.3275970
  32.4950090  26.2161770  39.3918740  32.5804690  24.2168230  43.4486180
  32.2048290  23.4496160  43.0167470  31.8507810  24.5990930  43.9361110
  17.1700450  24.8955370  50.0695230  17.5373490  24.8082770  50.9491250
  16.6011270  24.1321920  49.9702090  31.9704310  23.3639750  53.0825700
  31.7390400  23.1352500  52.1823650  32.2308860  24.2839300  53.0370590
  16.7216450  21.8064460  53.9753650  15.8272500  21.7731220  54.3147360
  17.2614000  22.0051250  54.7404900  15.3462600  21.7201730  41.4717220
  14.4426680  21.9831930  41.2968880  15.8303220  21.9912900  40.6917180
  31.8555650  22.4425720  46.7493420  32.3793130  21.9488370  46.1183590
  32.4415070  22.5776080  47.4940990  32.0345370  22.5265590  50.2712970
  31.0848080  22.4929130  50.3857960  32.2158380  23.4365700  50.0362740
  17.8889810  20.7767270  39.3811600  18.5981510  20.3550490  38.8958880
  17.1729750  20.8442500  38.7494950  17.5363970  16.8306600  38.4214250
  18.2592100  17.3715540  38.7395470  17.8088490  16.5570020  37.5455790
  31.3455620  21.6999070  42.6885830  31.8414740  21.4669940  43.4734710
  31.1471690  20.8610910  42.2723470  17.2256160  16.0812790  48.3236870
  17.8732350  15.5310170  47.8832030  17.6458000  16.3355940  49.1452680
  32.7742780  20.3360020  45.2223510  32.6642060  20.1816060  46.1605780
  33.5350370  19.8080960  44.9798920  31.1208500  16.2754150  51.6806510
  31.7580720  16.8888290  52.0465700  31.2683390  16.3114810  50.7355740
  33.6633050  18.1667940  38.4629650  34.5882360  18.0349120  38.2547940
  33.6408840  18.2460760  39.4166100  33.7371540  18.9378600  41.0886360
  32.9423040  18.8723720  41.6179270  33.9414820  19.8729240  41.0771710
  30.6789960  32.9770150  45.0824750  31.2749030  32.6554720  44.4059170
  30.9368110  32.5041970  45.8738020  16.9788160  16.2368460  51.0662190
  16.6302980  16.6932280  51.8320370  16.6475860  15.3425590  51.1484620
  22.2858560  30.9647650  50.8325100  22.0449920  31.2322210  49.9455620
  23.2261200  31.1353380  50.8875960  24.4912980  17.4280340  54.5881610
  24.4301870  18.0202170  55.3377020  25.4313360  17.3206300  54.4431870
  27.1287540  17.0850400  54.2273900  27.7427950  17.4029690  53.5654980
  27.6737100  16.5998990  54.8469760  33.5462720  32.9842030  51.6335740
  33.0521000  33.3810900  50.9162870  32.9376010  32.3591240  52.0273020
  17.6508800  15.7644660  54.3412960  18.1991790  15.5832710  53.5779070
  17.7164110  14.9738770  54.8769270  18.4240560  32.3550310  52.3513160
  17.8300880  32.2235010  53.0903200  18.4164400  31.5188450  51.8855260
  27.8695580  15.6482540  50.5543190  26.9955420  15.9817650  50.3516120
  27.7606330  15.1755720  51.3795060  28.7767560  17.8553410  51.9384910
  28.4480920  17.0405170  51.5586640  29.7249860  17.8123220  51.8150600
  31.2302170  33.6265450  48.9122480  30.7705140  34.3781260  48.5380500
  30.6014630  32.9071920  48.8537280  18.0552790  29.7208690  51.3021200
  17.3286850  29.1013980  51.2347150  18.1161940  30.1149300  50.4319280
  21.6597890  31.9353690  48.0870610  22.1762910  31.3241050  47.5618870
  22.3095270  32.4382470  48.5781620  24.3993390  32.8262180  48.9139590
  24.6871200  32.5716480  48.0372600  24.9116610  32.2739540  49.5045160
  25.6170400  16.5652380  49.4936100  24.8342190  17.0397880  49.7732860
  25.3233330  15.6607210  49.3849280  30.1691470  17.2675480  47.5385190
  30.6099560  17.2120580  46.6906790  29.8999060  18.1833490  47.6095370
  32.0330040  16.8990720  45.5494010  31.9718440  15.9551940  45.4025030
  32.8122070  17.0070810  46.0947470  16.3382790  33.0383080  44.5117960
  16.1704830  32.4053760  45.2099850  15.4717300  33.2442480  44.1612150
  16.9610810  16.8699860  42.0149820  17.7190170  16.9828740  41.4413850
  16.4987980  17.7069060  41.9693250  23.5024620  18.9839130  45.0052130
  22.6899130  18.6096020  44.6648010  24.0066260  18.2284210  45.3073320
  28.0049600  15.6481580  46.2435200  28.6078970  16.2201790  46.7183720
  27.2642590  16.2121020  46.0209100  31.1484200  16.0503140  41.5175480
  31.3434830  16.9486590  41.7842910  30.3614070  15.8190220  42.0108430
  17.9445490  31.7316310  41.9568100  17.4193110  32.1124340  41.2530060
  17.8690070  32.3567080  42.6777810  19.3335960  17.3963910  40.5551790
  19.8628720  16.6093710  40.4259740  19.9664280  18.0755100  40.7887320
  21.5273800  17.1339050  43.6097180  20.8976540  16.4326360  43.7767310
  20.9878940  17.8943180  43.3930340  32.7010810  33.2903850  43.2782040
  32.8763000  32.6041590  42.6342960  32.0032380  33.8150900  42.8858710
  20.5438460  33.6798690  40.8317350  21.2757280  33.3957970  40.2841240
  20.8032130  33.4411970  41.7216730  19.7053250  29.7963420  40.8363680
  19.0762130  30.2648520  41.3849510  19.8201080  28.9512640  41.2709870
  19.3086840  25.9367910  29.7449910  18.4771720  25.6816620  30.1446420
  19.9167820  26.0078680  30.4807830  19.2888100  29.9708000  29.9407930
  19.5916140  29.0805740  29.7618150  20.0331690  30.5278220  29.7130180
  16.9236670  18.9059810  31.2000930  16.7439510  18.0085560  31.4803690
  16.5216750  19.4531680  31.8747880  29.5459290  18.6026110  26.0341580
  30.3668910  18.1122680  26.0767060  29.5793370  19.1923770  26.7873420
  20.0184010  17.0886230  33.1619280  20.0202450  17.6058620  32.3565180
  19.1888320  16.6116410  33.1389210  20.4805960  28.6962210  33.1541960
  21.0979960  29.3713290  32.8726410  19.6199080  29.1050190  33.0629460
  15.7738300  27.8862070  22.0348810  15.3966280  28.3749170  21.3033710
  16.0311370  28.5587350  22.6655340  25.7577070  20.6244290  21.2261600
  24.8180740  20.7858250  21.3114060  26.0760330  21.3429970  20.6797590
  20.9364760  28.3041280  35.8261180  20.0393290  28.5281250  36.0734580
  20.9617630  28.4276220  34.8772580  19.7635980  25.1754600  34.4018550
  19.6243750  26.0477400  34.7705950  18.8817340  24.8327410  34.2566490
  21.5616330  31.1176300  36.6103700  21.5331760  31.5219250  35.7432130
  21.3981300  30.1886660  36.4475300  31.5587120  16.4077210  20.0543480
  31.2459780  16.5004040  20.9542550  32.3199590  16.9858240  20.0040910
  15.7154630  26.9452150  30.3189460  15.7935050  27.0800920  29.3745180
  16.3296310  26.2368040  30.5117580  16.9602260  28.6452340  26.7295640
  16.5530340  28.7866930  25.8749240  17.8515270  28.3612500  26.5266850
  32.9164400  29.0916250  35.0667880  33.0427460  28.8528130  34.1485060
  32.9585780  28.2600790  35.5389960  15.7714150  27.9866320  32.8583920
  15.9345190  27.5171680  32.0403290  16.2366600  27.4789880  33.5232760
  23.6591740  16.7382780  22.7750320  23.0345920  16.7342650  23.5003630
  23.5721860  15.8713740  22.3786290  17.9056890  19.5504900  34.4419790
  17.5120280  20.3980110  34.6492570  17.2175290  18.9131270  34.6328430
  15.2073940  17.4733360  28.4749870  14.9186990  18.0436220  29.1874850
  15.9519700  16.9937810  28.8381100  15.3944170  21.4153480  19.6852590
  15.3118840  22.3584240  19.8267580  15.0427230  21.2728390  18.8064940
  17.3453130  27.3617750  35.0179730  16.9607920  26.7211420  35.6162690
  17.6565320  28.0653870  35.5874460  16.3590760  18.9537980  26.6281820
  16.0737680  18.5893650  27.4660440  16.2969620  18.2218440  26.0144960
  26.0329350  17.8467240  23.3495190  25.2193960  17.3480410  23.2740500
  25.8391300  18.6865490  22.9331540  17.3413370  24.0905670  33.9643920
  16.9828310  24.7559520  34.5517260  17.0467930  23.2589220  34.3356540
  20.5426490  24.5489910  36.8483470  20.2426630  24.6947090  35.9511290
  21.3137730  23.9895200  36.7556860  15.8521420  24.0896930  20.5878520
  16.7216270  24.3721730  20.8714440  15.3611740  24.9032800  20.4727330
  18.9168010  15.8207790  25.1809320  18.7882640  15.8125690  26.1294240
  18.0930030  16.1590880  24.8300330  16.2192670  33.3024310  21.1540150
  16.5790310  33.9013650  20.4997420  16.0785010  33.8484200  21.9275180
  15.9161940  17.5798910  34.6416020  15.2020460  17.7795830  35.2468630
  16.3356980  16.8038480  35.0130820  16.2034530  31.5679170  35.6282550
  16.3125650  30.6273910  35.4877940  15.5515090  31.8333920  34.9796280
  24.1947120  29.8395060  37.0280670  23.8743990  29.1204300  37.5726360
  23.5205480  30.5150130  37.1016730  17.8367930  25.9070400  22.7160580
  17.2295880  26.6469300  22.7255880  18.3117280  25.9969760  21.8898780
  26.7762210  18.0314770  26.0558700  26.6529990  18.0500900  25.1068210
  27.7246770  18.0793710  26.1757100  20.9481800  19.6149190  21.9913620
  21.7972330  20.0519340  21.9253810  20.5813070  19.9269450  22.8185680
  18.5419980  23.3006620  21.1482040  18.6223570  22.3534130  21.2599440
  19.4339730  23.6313500  21.2542700  19.3434690  33.4502010  28.2516580
  20.0797170  32.9017470  28.5225150  19.7275610  34.3158020  28.1122570
  16.2280170  29.5175580  24.1258090  15.3019950  29.7596720  24.1163500
  16.6936600  30.3449840  24.0042840  18.3492970  32.6348080  37.4402160
  19.1505700  32.9560130  37.8537560  17.8344790  32.2743660  38.1622070
  27.1857600  28.7427950  37.3877570  26.5795760  28.7659550  36.6473320
  26.8811710  28.0110990  37.9244820  16.0690780  25.1221540  36.3838210
  16.5729800  24.5428820  36.9554440  15.3298200  25.4061770  36.9214580
  23.1228720  26.5292530  35.9173730  22.3574390  27.0977530  35.8328400
  23.3044680  26.2368740  35.0241960  30.2652070  28.2597860  36.4748750
  31.0061540  28.5973620  35.9716210  29.5024750  28.4289920  35.9218520
  18.1013860  23.2651130  37.2788280  18.1419200  22.9665000  38.1873510
  18.9559360  23.6658740  37.1195800  20.0419670  21.8443230  35.2462770
  19.5116130  21.3534180  34.6186110  20.7107740  22.2727430  34.7120700
  20.5291970  18.8105600  35.3260060  20.4348840  18.1926350  34.6010930
  19.9489360  19.5371890  35.0989970  23.2953410  17.3678840  32.3587450
  22.8470710  17.3903100  31.5133000  22.6618610  16.9697860  32.9557750
  20.7751150  21.9379910  19.3849950  20.5740210  21.0747270  19.7463290
  20.6043200  21.8513270  18.4471550  21.5520380  32.5686180  34.0957620
  21.0141470  33.2932240  33.7766320  21.8054340  32.0916520  33.3054960
  28.2539460  16.7488140  21.9136830  28.5341750  15.9056040  22.2696250
  27.4805190  16.9811250  22.4275580  19.5733950  19.0380530  19.3727830
  19.8759850  19.0447960  18.4646980  20.3128540  18.6878390  19.8695490
  22.7918880  17.9815150  20.3584030  22.4440880  17.3039140  19.7786480
  22.9931650  17.5204660  21.1727420  18.5964080  28.3422950  20.2057630
  19.0338950  28.8852620  20.8615210  19.0811810  27.5169900  20.2153970
  15.8109880  31.1311980  27.6577890  16.1412890  30.2633040  27.4256530
  16.2400880  31.3370500  28.4882850  20.4071800  29.4620990  25.3179860
  20.1067340  29.3385960  26.2183770  20.3009290  28.6029580  24.9095590
  16.3000090  31.9982570  30.3959520  15.8631080  32.1783370  31.2283670
  16.8677770  32.7557190  30.2541240  29.0814960  19.3044090  20.9766890
  29.4999840  19.1175070  20.1363550  28.7751020  18.4523140  21.2869820
  17.1700450  24.8955370  31.2951740  17.5373490  24.8082770  32.1747760
  16.6011270  24.1321920  31.1958600  16.7216450  21.8064460  35.2010160
  15.8272500  21.7731220  35.5403870  17.2614000  22.0051250  35.9661410
  15.3462600  21.7201730  22.6973730  14.4426680  21.9831930  22.5225390
  15.8303220  21.9912900  21.9173690  17.8889810  20.7767270  20.6068110
  18.5981510  20.3550490  20.1215390  17.1729750  20.8442500  19.9751460
  17.5363970  16.8306600  19.6470760  18.2592100  17.3715540  19.9651980
  17.8088490  16.5570020  18.7712300  17.2256160  16.0812790  29.5493380
  17.8732350  15.5310170  29.1088540  17.6458000  16.3355940  30.3709190
  32.7742780  20.3360020  26.4480020  32.6642060  20.1816060  27.3862290
  33.5350370  19.8080960  26.2055430  33.6633050  18.1667940  19.6886160
  34.5882360  18.0349120  19.4804450  33.6408840  18.2460760  20.6422610
  33.7371540  18.9378600  22.3142870  32.9423040  18.8723720  22.8435780
  33.9414820  19.8729240  22.3028220  16.9788160  16.2368460  32.2918700
  16.6302980  16.6932280  33.0576880  16.6475860  15.3425590  32.3741130
  18.5852530  29.4088060  36.4571890  18.5422160  29.0380970  37.3386350
  18.7163540  30.3465630  36.5973710  17.6508800  15.7644660  35.5669470
  18.1991790  15.5832710  34.8035580  17.7164110  14.9738770  36.1025780
  18.4240560  32.3550310  33.5769670  17.8300880  32.2235010  34.3159710
  18.4164400  31.5188450  33.1111770  18.0552790  29.7208690  32.5277710
  17.3286850  29.1013980  32.4603660  18.1161940  30.1149300  31.6575790
  25.6170400  16.5652380  30.7192610  24.8342190  17.0397880  30.9989370
  25.3233330  15.6607210  30.6105790  30.1691470  17.2675480  28.7641700
  30.6099560  17.2120580  27.9163300  29.8999060  18.1833490  28.8351880
  32.0330040  16.8990720  26.7750520  31.9718440  15.9551940  26.6281540
  32.8122070  17.0070810  27.3203980  16.3382790  33.0383080  25.7374470
  16.1704830  32.4053760  26.4356360  15.4717300  33.2442480  25.3868660
  16.9610810  16.8699860  23.2406330  17.7190170  16.9828740  22.6670360
  16.4987980  17.7069060  23.1949760  28.0049600  15.6481580  27.4691710
  28.6078970  16.2201790  27.9440230  27.2642590  16.2121020  27.2465610
  31.1484200  16.0503140  22.7431990  31.3434830  16.9486590  23.0099420
  30.3614070  15.8190220  23.2364940  17.9445490  31.7316310  23.1824610
  17.4193110  32.1124340  22.4786570  17.8690070  32.3567080  23.9034320
  19.3335960  17.3963910  21.7808300  19.8628720  16.6093710  21.6516250
  19.9664280  18.0755100  22.0143830  21.5273800  17.1339050  24.8353690
  20.8976540  16.4326360  25.0023820  20.9878940  17.8943180  24.6186850
  24.4665750  33.7478280  37.5064300  25.3933060  33.5122550  37.5500260
  24.4516180  34.5750280  37.0250330  21.6529360  16.4123030  37.2706180
  21.3713630  16.9156630  36.5067000  22.0349060  15.6144780  36.9048310
  19.7053250  29.7963420  22.0620190  19.0762130  30.2648520  22.6106020
  19.8201080  28.9512640  22.4966380  28.2544820  15.8276610  37.8486650
  28.1410270  16.1471220  38.7438170  29.0714560  16.2289120  37.5523930
  27.1602970  23.8469080   8.2121390  27.0797020  22.9323690   7.9413100
  26.7467390  24.3436150   7.5061100  25.2921010  25.6248100  10.0930660
  24.5163110  25.1448540  10.3829230  25.9433940  24.9453750   9.9186820
  19.3086840  25.9367910  10.9706420  18.4771720  25.6816620  11.3702930
  19.9167820  26.0078680  11.7064340  29.3128440  30.0308290   8.8729790
  28.8509970  29.2595530   9.2016960  30.1253990  30.0574360   9.3782240
  19.2888100  29.9708000  11.1664440  19.5916140  29.0805740  10.9874660
  20.0331690  30.5278220  10.9386690  17.7178790  20.8969800   4.7548810
  16.8295490  21.2385770   4.6528690  18.0019980  20.6970120   3.8629640
  15.6811800  23.4975450  10.6388510  16.2527910  22.7297650  10.6392150
  15.6813340  23.7964210   9.7295120  25.5391750  32.3166300   8.4933780
  24.9203190  32.7723800   7.9228220  26.3943530  32.4717760   8.0923480
  24.7330000  28.3005290  10.1000820  24.6638280  27.3595230   9.9389950
  25.4949860  28.3906700  10.6723390  16.9236670  18.9059810  12.4257440
  16.7439510  18.0085560  12.7060200  16.5216750  19.4531680  13.1004390
  25.7635170  21.1075670  10.3269750  26.1399990  20.2347550  10.2143420
  25.6654680  21.4434370   9.4360190  19.8940180  19.4801300   5.7887190
  20.0006930  20.3805030   6.0955950  18.9832540  19.4319270   5.4981840
  29.5459290  18.6026110   7.2598090  30.3668910  18.1122680   7.3023570
  29.5793370  19.1923770   8.0129930  17.5423340  21.4020310  11.0339780
  18.2233450  21.6658680  11.6527180  17.2271390  20.5621180  11.3677790
  21.7347910  22.4487670  10.1212370  22.2426130  22.9468640  10.7617390
  22.2661150  21.6722870   9.9451730  33.8358840  20.6192860  13.8241720
  33.1311010  21.0074570  13.3056830  34.1016760  21.3143150  14.4262650
  20.0184010  17.0886230  14.3875790  20.0202450  17.6058620  13.5821690
  19.1888320  16.6116410  14.3645720  26.4055100  27.2005540   5.8865690
  25.7872370  27.6654990   5.3228410  26.9178350  27.8933020   6.3035200
  21.2686860  26.7281410  12.5649290  20.9356240  27.3550330  13.2070360
  21.4453540  27.2543290  11.7850960  29.7820770  20.5426490  10.0325630
  29.0776340  20.8311380  10.6128740  30.1432930  21.3526600   9.6725190
  19.6999340  18.7996190  12.3946240  20.0416150  19.6438240  12.1000110
  18.7615150  18.9479930  12.5111580  20.4805960  28.6962210  14.3798470
  21.0979960  29.3713290  14.0982920  19.6199080  29.1050190  14.2885970
  15.7738300  27.8862070   3.2605320  15.3966280  28.3749170   2.5290220
  16.0311370  28.5587350   3.8911850  31.3983550  30.1601620  12.2953110
  30.7147070  30.8300730  12.2869780  31.9377840  30.3582270  11.5297970
  32.8507690  19.9881280  10.4234840  31.9032600  20.0220260  10.5550270
  33.1757680  20.8020230  10.8084200  23.3827230  16.2878460   8.7190830
  23.6902210  15.7325350   8.0026330  22.4527930  16.4222920   8.5363820
  28.9342290  32.0045750  11.0098290  28.9469450  31.6008040  10.1420550
  28.3817510  32.7793040  10.9059720  30.2287710  28.7261970   6.0988460
  30.1184040  27.7836300   6.2237880  30.2255960  29.0877610   6.9851220
  28.3327730  26.9075590  12.3380900  28.7496520  26.6935700  11.5034360
  29.0567550  27.1648380  12.9089520  25.7707990  24.3527290   5.4550950
  24.8437270  24.2864670   5.6839420  25.9232810  25.2907420   5.3406190
  25.7577070  20.6244290   2.4518110  24.8180740  20.7858250   2.5370570
  26.0760330  21.3429970   1.9054100  32.2789830  25.3062810  12.4297140
  31.4508460  25.3755900  11.9547270  32.8740310  25.8917120  11.9612970
  29.8005280  25.9147590   5.9586200  29.1817700  25.5767140   5.3112500
  29.7829730  25.2707350   6.6665390  29.2431840  22.0932130  13.3752010
  28.8303020  22.9185840  13.6292000  28.5107790  21.5077170  13.1828370
  21.3764630  24.8792030   8.2370680  20.9721630  24.1669280   7.7416580
  21.4627750  24.5345270   9.1258720  21.8446330  28.5659590  10.4009890
  21.5474620  27.9605060   9.7217670  22.7946150  28.6036900  10.2899250
  20.0893250  21.6535240  12.0169720  20.6407840  21.7630580  11.2422970
  20.6036760  22.0272840  12.7324950  29.9331940  32.1391460  14.0632990
  29.4562500  32.9463650  13.8705600  29.2493730  31.4869790  14.2159200
  20.9364760  28.3041280  17.0517690  20.0393290  28.5281250  17.2991090
  20.9617630  28.4276220  16.1029090  27.9769980  25.1534400   2.9658950
  28.4163260  24.3156830   2.8196770  28.6898400  25.7863800   3.0523090
  19.7635980  25.1754600  15.6275060  19.6243750  26.0477400  15.9962460
  18.8817340  24.8327410  15.4823000  26.0865360  30.0930470   6.9340190
  26.5261270  30.8354800   6.5195580  26.0252250  30.3357040   7.8579150
  21.5616330  31.1176300  17.8360210  21.5331760  31.5219250  16.9688640
  21.3981300  30.1886660  17.6731810  18.0769260  23.7737010   5.7377330
  17.9566860  24.4999100   5.1258600  17.7670150  23.0039920   5.2605240
  15.7154630  26.9452150  11.5445970  15.7935050  27.0800920  10.6001690
  16.3296310  26.2368040  11.7374090  16.9602260  28.6452340   7.9552150
  16.5530340  28.7866930   7.1005750  17.8515270  28.3612500   7.7523360
  32.9164400  29.0916250  16.2924390  33.0427460  28.8528130  15.3741570
  32.9585780  28.2600790  16.7646470  26.7781140  32.7944250  14.8619200
  27.2925810  32.7052260  15.6641630  25.9350220  33.1403950  15.1547110
  28.7535540  33.0799590   4.2903200  28.5936680  32.7902530   5.1885030
  28.5882250  32.3039720   3.7548430  21.2323920  32.8598120   6.0674820
  21.0566400  31.9433660   5.8542620  20.3779660  33.2185410   6.3072620
  28.4561670  30.5887150   2.8501200  27.7626830  30.5864440   2.1903480
  29.1984530  30.1646470   2.4195370  28.0211600  32.2149860   6.9249690
  28.4768550  31.4339240   7.2388310  28.3604120  32.9256680   7.4690870
  32.7688410  21.1448710  17.2574130  32.1532680  21.6528380  16.7289590
  32.4484830  20.2447040  17.2000070  15.7714150  27.9866320  14.0840430
  15.9345190  27.5171680  13.2659800  16.2366600  27.4789880  14.7489270
  20.5432920  17.1172080   9.1201000  20.1001070  17.8981620   8.7885520
  21.1017910  17.4401970   9.8271940  24.8302730  19.9840600  14.7236320
  24.3682100  20.1923620  15.5356260  24.4280840  19.1699950  14.4206990
  23.6591740  16.7382780   4.0006830  23.0345920  16.7342650   4.7260140
  23.5721860  15.8713740   3.6042800  22.5808820  17.6619410  10.9790600
  22.8781150  18.5682240  10.8982620  23.1294380  17.1738190  10.3650170
  20.3347140  22.2405650   6.8482250  20.1088060  22.0242820   7.7528870
  19.5539670  22.6734110   6.5028220  27.5644900  22.2469020   5.4472900
  26.9653790  22.9704820   5.2636520  28.1124510  22.1845800   4.6649350
  22.7746350  23.1391230  17.5142520  22.6789950  22.1985960  17.3642920
  23.6178330  23.3606300  17.1190590  26.1709770  20.8832560   7.4776180
  26.5639340  21.2004760   6.6644870  26.5326620  20.0044440   7.5920700
  17.9056890  19.5504900  15.6676300  17.5120280  20.3980110  15.8749080
  17.2175290  18.9131270  15.8584940  24.4801940  19.6339870  18.7373040
  23.7900260  19.4412070  19.3719130  25.2234240  19.9174510  19.2697340
  15.2073940  17.4733360   9.7006380  14.9186990  18.0436220  10.4131360
  15.9519700  16.9937810  10.0637610  26.7564910  23.4738310  11.5726960
  26.0246030  23.9825120  11.9217060  26.3589250  22.6568290  11.2715740
  23.1942300  20.1492510   9.9779450  23.1978360  19.7082460   9.1283990
  24.0893420  20.4709840  10.0851270  19.0444680  20.0319000   8.9373660
  18.7044730  20.5094230   9.6940710  18.2822000  19.5784120   8.5774760
  23.2562450  21.1504590   2.9686210  23.3775270  21.1091070   3.9172030
  22.8710960  22.0128740   2.8132940  27.2190820  18.9271990  10.9849900
  27.2363560  19.3780640  11.8291750  26.9706400  18.0277630  11.1983340
  22.2683950  23.4605730   2.3669510  21.7000850  23.0123980   1.7405420
  22.9772950  23.8198510   1.8334660  30.6461570  16.3404170  16.8236280
  30.9707340  15.6093830  17.3494260  30.6818080  16.0217810  15.9217270
  17.3453130  27.3617750  16.2436240  16.9607920  26.7211420  16.8419200
  17.6565320  28.0653870  16.8130970  23.4950270  24.2094290  11.7244860
  23.8620400  23.7352860  12.4706200  23.3055330  25.0835860  12.0653200
  16.3590760  18.9537980   7.8538330  16.0737680  18.5893650   8.6916950
  16.2969620  18.2218440   7.2401470  21.2849640  23.2502930  14.0429070
  20.9806710  24.1294910  14.2679430  22.2396100  23.3102720  14.0786510
  19.8131430  27.4563920   4.6395920  19.0393690  26.9161540   4.4794640
  20.5426060  26.9370530   4.3013680  30.5719410  26.4529280  10.4322310
  31.2918530  26.9484570  10.0418420  30.3701230  25.7747170   9.7876180
  26.0329350  17.8467240   4.5751700  25.2193960  17.3480410   4.4997010
  25.8391300  18.6865490   4.1588050  25.9538210  26.5238340  16.3191310
  25.8875520  25.6034010  16.0648900  25.3243350  26.6213780  17.0335950
  28.7477740  22.2186890   2.8713860  29.6357360  22.5304120   2.6965200
  28.7182830  21.3459140   2.4794440  19.8568830  27.1244300   8.2774730
  20.3747500  26.3212560   8.2231620  19.4052850  27.0623440   9.1191560
  24.7438330  28.3910580   3.5502030  25.0854030  29.1352810   3.0545350
  23.9151040  28.7041700   3.9126860  17.3413370  24.0905670  15.1900430
  16.9828310  24.7559520  15.7773770  17.0467930  23.2589220  15.5613050
  20.5426490  24.5489910  18.0739980  20.2426630  24.6947090  17.1767800
  21.3137730  23.9895200  17.9813370  25.8854940  29.3458910  16.0695110
  25.8999480  28.4139870  15.8514020  25.1780040  29.4318670  16.7084880
  32.0966150  25.9866250  15.4163690  31.3714340  26.5795030  15.2193080
  32.6241610  25.9789790  14.6177060  32.0479260  30.3840990   5.0675850
  31.4055420  29.7296610   5.3419570  31.6609920  30.7896080   4.2916520
  27.6265740  27.7126420   8.9147540  27.9789560  27.1154550   8.2548910
  26.7428070  27.3870650   9.0855790  23.7129020  28.4724110   6.3217950
  24.4000150  29.0193320   6.7025540  22.9261440  29.0164840   6.3567560
  15.8521420  24.0896930   1.8135030  16.7216270  24.3721730   2.0970950
  15.3611740  24.9032800   1.6983840  23.0156230  25.4770140   5.9343310
  23.4719010  26.2875390   6.1603500  22.6644440  25.1593280   6.7661800
  25.3188840  30.9876480  13.1635610  25.9631060  31.1935860  13.8409030
  25.6818280  30.2264880  12.7106460  18.9168010  15.8207790   6.4065830
  18.7882640  15.8125690   7.3550750  18.0930030  16.1590880   6.0556840
  26.5920920  28.9908830  11.8813060  27.2343150  28.2901990  11.9945230
  27.1170270  29.7707270  11.7009950  28.3658540  29.7903730  15.0849120
  28.7014780  30.3770420  15.7627040  27.4458880  29.6596440  15.3146910
  16.2192670  33.3024310   2.3796660  16.5790310  33.9013650   1.7253930
  16.0785010  33.8484200   3.1531690  15.9161940  17.5798910  15.8672530
  15.2020460  17.7795830  16.4725140  16.3356980  16.8038480  16.2387330
  30.0192890  27.1929390   3.2666360  29.7314590  27.6542080   4.0544240
  30.8145060  26.7327160   3.5350580  16.2034530  31.5679170  16.8539060
  16.3125650  30.6273910  16.7134450  15.5515090  31.8333920  16.2052790
  24.1947120  29.8395060  18.2537180  23.8743990  29.1204300  18.7982870
  23.5205480  30.5150130  18.3273240  22.2361290  30.6855510   3.1970330
  22.2271390  31.4185200   2.5814840  21.3159650  30.4387090   3.2897290
  17.8367930  25.9070400   3.9417090  17.2295880  26.6469300   3.9512390
  18.3117280  25.9969760   3.1155290  27.4100720  20.0721220  13.6173980
  27.7781540  19.2516430  13.9453550  26.5498920  20.1323110  14.0329630
  30.7762750  19.0278160   4.4261540  30.1475910  19.1323830   3.7119770
  30.2814670  19.2474940   5.2155420  22.7446780  21.3064110   5.8419420
  22.0362930  21.7750450   6.2833030  23.0291260  20.6486120   6.4764610
  24.3702710  22.7260810  13.8411950  24.8687960  23.2006630  14.5063800
  24.5125660  21.8024330  14.0481980  26.7762210  18.0314770   7.2815210
  26.6529990  18.0500900   6.3324720  27.7246770  18.0793710   7.4013610
  23.8639000  33.2670070   6.5543190  24.1180500  33.2291460   5.6322560
  22.9151480  33.1403400   6.5471440  20.9481800  19.6149190   3.2170130
  21.7972330  20.0519340   3.1510320  20.5813070  19.9269450   4.0442190
  31.5769570  18.9428770  14.6840340  31.0743170  19.6834170  15.0234150
  32.3926230  19.3312770  14.3677130  29.8691580  24.1861950   8.1301700
  28.9281720  24.2012180   8.3049390  30.1835650  23.3997910   8.5762000
  18.5419980  23.3006620   2.3738550  18.6223570  22.3534130   2.4855950
  19.4339730  23.6313500   2.4799210  31.8717160  31.3570800   9.8055960
  31.9964580  32.1801970  10.2779770  32.7382720  31.1461530   9.4580110
  19.3434690  33.4502010   9.4773090  20.0797170  32.9017470   9.7481660
  19.7275610  34.3158020   9.3379080  16.2280170  29.5175580   5.3514600
  15.3019950  29.7596720   5.3420010  16.6936600  30.3449840   5.2299350
  18.3492970  32.6348080  18.6658670  19.1505700  32.9560130  19.0794070
  17.8344790  32.2743660  19.3878580  28.6157970  32.4708240  17.2243490
  29.5679720  32.3866260  17.1743730  28.4686190  33.1349950  17.8977280
  31.5067170  31.8502450   2.7235400  31.2208680  31.4367590   1.9089580
  31.3086720  32.7790160   2.6035920  16.0690780  25.1221540  17.6094720
  16.5729800  24.5428820  18.1810950  15.3298200  25.4061770  18.1471090
  23.1228720  26.5292530  17.1430240  22.3574390  27.0977530  17.0584910
  23.3044680  26.2368740  16.2498470  26.2117130  26.9055760   1.7683000
  25.6627230  27.3525060   2.4125740  26.8336390  26.4005010   2.2920670
  18.1013860  23.2651130  18.5044790  18.1419200  22.9665000  19.4130020
  18.9559360  23.6658740  18.3452310  21.8792250  25.8646680   3.6648300
  22.3008670  25.6986550   4.5079690  22.0043090  25.0546910   3.1703440
  20.0419670  21.8443230  16.4719280  19.5116130  21.3534180  15.8442620
  20.7107740  22.2727430  15.9377210  20.5291970  18.8105600  16.5516570
  20.4348840  18.1926350  15.8267440  19.9489360  19.5371890  16.3246480
  23.2953410  17.3678840  13.5843960  22.8470710  17.3903100  12.7389510
  22.6618610  16.9697860  14.1814260  23.7012960  26.2633170  14.2056400
  24.1201070  27.1065900  14.0332640  22.7821590  26.4005210  13.9763180
  26.0376860  23.9949350  15.5894240  26.1573070  23.3990490  16.3289080
  26.8970860  24.0319040  15.1695540  28.3764760  24.5486540  14.1656750
  27.8499980  25.0729160  13.5621890  28.7196100  25.1813930  14.7966480
  21.5520380  32.5686180  15.3214130  21.0141470  33.2932240  15.0022830
  21.8054340  32.0916520  14.5311470  22.8045630  20.5370700  16.8470060
  23.3945320  20.2286550  17.5347880  21.9865870  20.0650450  17.0029960
  28.2539460  16.7488140   3.1393340  28.5341750  15.9056040   3.4952760
  27.4805190  16.9811250   3.6532090  24.4082590  33.8037390  15.5800780
  24.3341290  34.7072530  15.8873150  23.5061430  33.4849290  15.5522850
  24.9567920  32.9695900   3.2027140  25.8518710  33.3080870   3.2245900
  24.9885550  32.2475310   2.5751420  15.8109880  31.1311980   8.8834400
  16.1412890  30.2633040   8.6513040  16.2400880  31.3370500   9.7139360
  20.4071800  29.4620990   6.5436370  20.1067340  29.3385960   7.4440280
  20.3009290  28.6029580   6.1352100  16.3000090  31.9982570  11.6216030
  15.8631080  32.1783370  12.4540180  16.8677770  32.7557190  11.4797750
  31.9362270  31.4999570  15.9093340  31.3364260  31.5592130  15.1657260
  32.0656170  30.5604550  16.0390190  32.6320180  25.9864870   3.7497250
  33.3939090  26.5561520   3.8556940  32.6474550  25.4192070   4.5205560
  16.1324520  24.5102800   7.9804910  15.4773360  24.2414440   7.3364610
  16.9702470  24.4007280   7.5306890  33.6380150  26.8414970   8.5939180
  34.0088980  26.0582290   8.1875150  34.2782080  27.5304070   8.4156480
  30.6213910  28.2251550  14.0069500  29.8073750  28.6548710  14.2695290
  31.0288110  28.8369960  13.3938550  32.5804690  24.2168230   5.8999200
  32.2048290  23.4496160   5.4680490  31.8507810  24.5990930   6.3874130
  17.1700450  24.8955370  12.5208250  17.5373490  24.8082770  13.4004270
  16.6011270  24.1321920  12.4215110  31.9704310  23.3639750  15.5338720
  31.7390400  23.1352500  14.6336670  32.2308860  24.2839300  15.4883610
  16.7216450  21.8064460  16.4266670  15.8272500  21.7731220  16.7660380
  17.2614000  22.0051250  17.1917920  30.4092380  18.5896180  18.3118420
  31.2862560  18.5979580  18.6952420  30.4213220  17.8527020  17.7010770
  15.3462600  21.7201730   3.9230240  14.4426680  21.9831930   3.7481900
  15.8303220  21.9912900   3.1430200  31.8555650  22.4425720   9.2006440
  32.3793130  21.9488370   8.5696610  32.4415070  22.5776080   9.9454010
  32.0345370  22.5265590  12.7225990  31.0848080  22.4929130  12.8370980
  32.2158380  23.4365700  12.4875760  31.3455620  21.6999070   5.1398850
  31.8414740  21.4669940   5.9247730  31.1471690  20.8610910   4.7236490
  17.2256160  16.0812790  10.7749890  17.8732350  15.5310170  10.3345050
  17.6458000  16.3355940  11.5965700  32.7742780  20.3360020   7.6736530
  32.6642060  20.1816060   8.6118800  33.5350370  19.8080960   7.4311940
  31.1208500  16.2754150  14.1319530  31.7580720  16.8888290  14.4978720
  31.2683390  16.3114810  13.1868760  33.7371540  18.9378600   3.5399380
  32.9423040  18.8723720   4.0692290  33.9414820  19.8729240   3.5284730
  30.6789960  32.9770150   7.5337770  31.2749030  32.6554720   6.8572190
  30.9368110  32.5041970   8.3251040  16.9788160  16.2368460  13.5175210
  16.6302980  16.6932280  14.2833390  16.6475860  15.3425590  13.5997640
  18.5852530  29.4088060  17.6828400  18.5422160  29.0380970  18.5642860
  18.7163540  30.3465630  17.8230220  22.2858560  30.9647650  13.2838120
  22.0449920  31.2322210  12.3968640  23.2261200  31.1353380  13.3388980
  24.4912980  17.4280340  17.0394630  24.4301870  18.0202170  17.7890040
  25.4313360  17.3206300  16.8944890  27.1287540  17.0850400  16.6786920
  27.7427950  17.4029690  16.0168000  27.6737100  16.5998990  17.2982780
  33.5462720  32.9842030  14.0848760  33.0521000  33.3810900  13.3675890
  32.9376010  32.3591240  14.4786040  17.6508800  15.7644660  16.7925980
  18.1991790  15.5832710  16.0292090  17.7164110  14.9738770  17.3282290
  18.4240560  32.3550310  14.8026180  17.8300880  32.2235010  15.5416220
  18.4164400  31.5188450  14.3368280  27.8695580  15.6482540  13.0056210
  26.9955420  15.9817650  12.8029140  27.7606330  15.1755720  13.8308080
  28.7767560  17.8553410  14.3897930  28.4480920  17.0405170  14.0099660
  29.7249860  17.8123220  14.2663620  31.2302170  33.6265450  11.3635500
  30.7705140  34.3781260  10.9893520  30.6014630  32.9071920  11.3050300
  18.0552790  29.7208690  13.7534220  17.3286850  29.1013980  13.6860170
  18.1161940  30.1149300  12.8832300  21.6597890  31.9353690  10.5383630
  22.1762910  31.3241050  10.0131890  22.3095270  32.4382470  11.0294640
  24.3993390  32.8262180  11.3652610  24.6871200  32.5716480  10.4885620
  24.9116610  32.2739540  11.9558180  25.6170400  16.5652380  11.9449120
  24.8342190  17.0397880  12.2245880  25.3233330  15.6607210  11.8362300
  30.1691470  17.2675480   9.9898210  30.6099560  17.2120580   9.1419810
  29.8999060  18.1833490  10.0608390  32.0330040  16.8990720   8.0007030
  31.9718440  15.9551940   7.8538050  32.8122070  17.0070810   8.5460490
  16.3382790  33.0383080   6.9630980  16.1704830  32.4053760   7.6612870
  15.4717300  33.2442480   6.6125170  16.9610810  16.8699860   4.4662840
  17.7190170  16.9828740   3.8926870  16.4987980  17.7069060   4.4206270
  23.5024620  18.9839130   7.4565150  22.6899130  18.6096020   7.1161030
  24.0066260  18.2284210   7.7586340  28.0049600  15.6481580   8.6948220
  28.6078970  16.2201790   9.1696740  27.2642590  16.2121020   8.4722120
  31.1484200  16.0503140   3.9688500  31.3434830  16.9486590   4.2355930
  30.3614070  15.8190220   4.4621450  17.9445490  31.7316310   4.4081120
  17.4193110  32.1124340   3.7043080  17.8690070  32.3567080   5.1290830
  19.3335960  17.3963910   3.0064810  19.8628720  16.6093710   2.8772760
  19.9664280  18.0755100   3.2400340  21.5273800  17.1339050   6.0610200
  20.8976540  16.4326360   6.2280330  20.9878940  17.8943180   5.8443360
  32.7010810  33.2903850   5.7295060  32.8763000  32.6041590   5.0855980
  32.0032380  33.8150900   5.3371730  21.6529360  16.4123030  18.4962690
  21.3713630  16.9156630  17.7323510  22.0349060  15.6144780  18.1304820
  20.5438460  33.6798690   3.2830370  21.2757280  33.3957970   2.7354260
  20.8032130  33.4411970   4.1729750  19.7053250  29.7963420   3.2876700
  19.0762130  30.2648520   3.8362530  19.8201080  28.9512640   3.7222890
  28.2544820  15.8276610  19.0743160  28.1410270  16.1471220  19.9694680
  29.0714560  16.2289120  18.7780440  31.0343310  32.9748140  18.5561850
  31.8268630  32.4797370  18.3487810  31.3276460  33.6538280  19.1637460
  27.1602970   5.0725590  45.7608370  27.0797020   4.1580200  45.4900080
  26.7467390   5.5692660  45.0548080  25.2921010   6.8504610  47.6417640
  24.5163110   6.3705050  47.9316210  25.9433940   6.1710260  47.4673800
  19.3086840   7.1624420  48.5193400  18.4771720   6.9073130  48.9189910
  19.9167820   7.2335190  49.2551320  29.3128440  11.2564800  46.4216770
  28.8509970  10.4852040  46.7503940  30.1253990  11.2830870  46.9269220
  19.2888100  11.1964510  48.7151420  19.5916140  10.3062250  48.5361640
  20.0331690  11.7534730  48.4873670  17.7178790   2.1226310  42.3035790
  16.8295490   2.4642280  42.2015670  18.0019980   1.9226630  41.4116620
  15.6811800   4.7231960  48.1875490  16.2527910   3.9554160  48.1879130
  15.6813340   5.0220720  47.2782100  25.5391750  13.5422810  46.0420760
  24.9203190  13.9980310  45.4715200  26.3943530  13.6974270  45.6410460
  24.7330000   9.5261800  47.6487800  24.6638280   8.5851740  47.4876930
  25.4949860   9.6163210  48.2210370  17.5423340   2.6276820  48.5826760
  18.2233450   2.8915190  49.2014160  17.2271390   1.7877690  48.9164770
  21.7347910   3.6744180  47.6699350  22.2426130   4.1725150  48.3104370
  22.2661150   2.8979380  47.4938710  33.8358840   1.8449370  51.3728700
  33.1311010   2.2331080  50.8543810  34.1016760   2.5399660  51.9749630
  26.4055100   8.4262050  43.4352670  25.7872370   8.8911500  42.8715390
  26.9178350   9.1189530  43.8522180  21.2686860   7.9537920  50.1136270
  20.9356240   8.5806840  50.7557340  21.4453540   8.4799800  49.3337940
  29.7820770   1.7683000  47.5812610  29.0776340   2.0567890  48.1615720
  30.1432930   2.5783110  47.2212170  20.4805960   9.9218720  51.9285450
  21.0979960  10.5969800  51.6469900  19.6199080  10.3306700  51.8372950
  15.7738300   9.1118580  40.8092300  15.3966280   9.6005680  40.0777200
  16.0311370   9.7843860  41.4398830  31.3983550  11.3858130  49.8440090
  30.7147070  12.0557240  49.8356760  31.9377840  11.5838780  49.0784950
  28.9342290  13.2302260  48.5585270  28.9469450  12.8264550  47.6907530
  28.3817510  14.0049550  48.4546700  30.2287710   9.9518480  43.6475440
  30.1184040   9.0092810  43.7724860  30.2255960  10.3134120  44.5338200
  28.3327730   8.1332100  49.8867880  28.7496520   7.9192210  49.0521340
  29.0567550   8.3904890  50.4576500  25.7707990   5.5783800  43.0037930
  24.8437270   5.5121180  43.2326400  25.9232810   6.5163930  42.8893170
  25.7577070   1.8500800  40.0005090  24.8180740   2.0114760  40.0857550
  26.0760330   2.5686480  39.4541080  32.2789830   6.5319320  49.9784120
  31.4508460   6.6012410  49.5034250  32.8740310   7.1173630  49.5099950
  29.8005280   7.1404100  43.5073180  29.1817700   6.8023650  42.8599480
  29.7829730   6.4963860  44.2152370  29.2431840   3.3188640  50.9238990
  28.8303020   4.1442350  51.1778980  28.5107790   2.7333680  50.7315350
  21.3764630   6.1048540  45.7857660  20.9721630   5.3925790  45.2903560
  21.4627750   5.7601780  46.6745700  21.8446330   9.7916100  47.9496870
  21.5474620   9.1861570  47.2704650  22.7946150   9.8293410  47.8386230
  20.0893250   2.8791750  49.5656700  20.6407840   2.9887090  48.7909950
  20.6036760   3.2529350  50.2811930  29.9331940  13.3647970  51.6119970
  29.4562500  14.1720160  51.4192580  29.2493730  12.7126300  51.7646180
  20.9364760   9.5297790  54.6004670  20.0393290   9.7537760  54.8478070
  20.9617630   9.6532730  53.6516070  27.9769980   6.3790910  40.5145930
  28.4163260   5.5413340  40.3683750  28.6898400   7.0120310  40.6010070
  19.7635980   6.4011110  53.1762040  19.6243750   7.2733910  53.5449440
  18.8817340   6.0583920  53.0309980  26.0865360  11.3186980  44.4827170
  26.5261270  12.0611310  44.0682560  26.0252250  11.5613550  45.4066130
  21.5616330  12.3432810  55.3847190  21.5331760  12.7475760  54.5175620
  21.3981300  11.4143170  55.2218790  18.0769260   4.9993520  43.2864310
  17.9566860   5.7255610  42.6745580  17.7670150   4.2296430  42.8092220
  15.7154630   8.1708660  49.0932950  15.7935050   8.3057430  48.1488670
  16.3296310   7.4624550  49.2861070  16.9602260   9.8708850  45.5039130
  16.5530340  10.0123440  44.6492730  17.8515270   9.5869010  45.3010340
  32.9164400  10.3172760  53.8411370  33.0427460  10.0784640  52.9228550
  32.9585780   9.4857300  54.3133450  26.7781140  14.0200760  52.4106180
  27.2925810  13.9308770  53.2128610  25.9350220  14.3660460  52.7034090
  28.7535540  14.3056100  41.8390180  28.5936680  14.0159040  42.7372010
  28.5882250  13.5296230  41.3035410  21.2323920  14.0854630  43.6161800
  21.0566400  13.1690170  43.4029600  20.3779660  14.4441920  43.8559600
  28.4561670  11.8143660  40.3988180  27.7626830  11.8120950  39.7390460
  29.1984530  11.3902980  39.9682350  28.0211600  13.4406370  44.4736670
  28.4768550  12.6595750  44.7875290  28.3604120  14.1513190  45.0177850
  15.7714150   9.2122830  51.6327410  15.9345190   8.7428190  50.8146780
  16.2366600   8.7046390  52.2976250  29.8307240   2.4306060  53.4019960
  28.9800830   2.1311810  53.7229030  29.6709030   2.6748070  52.4903780
  26.9256950   3.9307810  55.5018750  27.2510360   3.0971560  55.1620980
  27.7137280   4.4536330  55.6497080  20.3347140   3.4662160  44.3969230
  20.1088060   3.2499330  45.3015850  19.5539670   3.8990620  44.0515200
  27.5644900   3.4725530  42.9959880  26.9653790   4.1961330  42.8123500
  28.1124510   3.4102310  42.2136330  22.7746350   4.3647740  55.0629500
  22.6789950   3.4242470  54.9129900  23.6178330   4.5862810  54.6677570
  15.3944170   2.6409990  38.4596080  15.3118840   3.5840750  38.6011070
  15.0427230   2.4984900  37.5808430  26.7564910   4.6994820  49.1213940
  26.0246030   5.2081630  49.4704040  26.3589250   3.8824800  48.8202720
  23.2562450   2.3761100  40.5173190  23.3775270   2.3347580  41.4659010
  22.8710960   3.2385250  40.3619920  22.2683950   4.6862240  39.9156490
  21.7000850   4.2380490  39.2892400  22.9772950   5.0455020  39.3821640
  17.3453130   8.5874260  53.7923220  16.9607920   7.9467930  54.3906180
  17.6565320   9.2910380  54.3617950  23.4950270   5.4350800  49.2731840
  23.8620400   4.9609370  50.0193180  23.3055330   6.3092370  49.6140180
  21.2849640   4.4759440  51.5916050  20.9806710   5.3551420  51.8166410
  22.2396100   4.5359230  51.6273490  19.8131430   8.6820430  42.1882900
  19.0393690   8.1418050  42.0281620  20.5426060   8.1627040  41.8500660
  30.5719410   7.6785790  47.9809290  31.2918530   8.1741080  47.5905400
  30.3701230   7.0003680  47.3363160  25.9538210   7.7494850  53.8678290
  25.8875520   6.8290520  53.6135880  25.3243350   7.8470290  54.5822930
  28.7477740   3.4443400  40.4200840  29.6357360   3.7560630  40.2452180
  28.7182830   2.5715650  40.0281420  19.8568830   8.3500810  45.8261710
  20.3747500   7.5469070  45.7718600  19.4052850   8.2879950  46.6678540
  24.7438330   9.6167090  41.0989010  25.0854030  10.3609320  40.6032330
  23.9151040   9.9298210  41.4613840  17.3413370   5.3162180  52.7387410
  16.9828310   5.9816030  53.3260750  17.0467930   4.4845730  53.1100030
  20.5426490   5.7746420  55.6226960  20.2426630   5.9203600  54.7254780
  21.3137730   5.2151710  55.5300350  25.8854940  10.5715420  53.6182090
  25.8999480   9.6396380  53.4001000  25.1780040  10.6575180  54.2571860
  31.0192010   4.7555240  39.8880700  30.9355730   5.1869460  39.0377140
  31.7386200   5.2153590  40.3207520  32.0966150   7.2122760  52.9650670
  31.3714340   7.8051540  52.7680060  32.6241610   7.2046300  52.1664040
  32.0479260  11.6097500  42.6162830  31.4055420  10.9553120  42.8906550
  31.6609920  12.0152590  41.8403500  27.6265740   8.9382930  46.4634520
  27.9789560   8.3411060  45.8035890  26.7428070   8.6127160  46.6342770
  23.7129020   9.6980620  43.8704930  24.4000150  10.2449830  44.2512520
  22.9261440  10.2421350  43.9054540  15.8521420   5.3153440  39.3622010
  16.7216270   5.5978240  39.6457930  15.3611740   6.1289310  39.2470820
  23.0156230   6.7026650  43.4830290  23.4719010   7.5131900  43.7090480
  22.6644440   6.3849790  44.3148780  25.3188840  12.2132990  50.7122590
  25.9631060  12.4192370  51.3896010  25.6818280  11.4521390  50.2593440
  26.5920920  10.2165340  49.4300040  27.2343150   9.5158500  49.5432210
  27.1170270  10.9963780  49.2496930  30.4376640  10.5013960  39.1539180
  30.2114220   9.7844400  39.7463820  30.0472840  10.2526400  38.3160930
  28.3658540  11.0160240  52.6336100  28.7014780  11.6026930  53.3114020
  27.4458880  10.8852950  52.8633890  16.2192670  14.5280820  39.9283640
  16.5790310  15.1270160  39.2740910  16.0785010  15.0740710  40.7018670
  30.0192890   8.4185900  40.8153340  29.7314590   8.8798590  41.6031220
  30.8145060   7.9583670  41.0837560  16.2034530  12.7935680  54.4026040
  16.3125650  11.8530420  54.2621430  15.5515090  13.0590430  53.7539770
  22.2361290  11.9112020  40.7457310  22.2271390  12.6441710  40.1301820
  21.3159650  11.6643600  40.8384270  17.8367930   7.1326910  41.4904070
  17.2295880   7.8725810  41.4999370  18.3117280   7.2226270  40.6642270
  25.2220890  11.9740260  39.4082500  25.3232870  11.7704250  38.4784480
  24.3222630  11.7198540  39.6130280  22.7446780   2.5320620  43.3906400
  22.0362930   3.0006960  43.8320010  23.0291260   1.8742630  44.0251590
  24.3702710   3.9517320  51.3898930  24.8687960   4.4263140  52.0550780
  24.5125660   3.0280840  51.5968960  23.8639000  14.4926580  44.1030170
  24.1180500  14.4547970  43.1809540  22.9151480  14.3659910  44.0958420
  29.8691580   5.4118460  45.6788680  28.9281720   5.4268690  45.8536370
  30.1835650   4.6254420  46.1248980  19.8473220   7.0938060  39.2392640
  20.6136490   6.9819420  39.8018070  19.9247910   6.3976030  38.5869410
  18.5419980   4.5263130  39.9225530  18.6223570   3.5790640  40.0342930
  19.4339730   4.8570010  40.0286190  31.8717160  12.5827310  47.3542940
  31.9964580  13.4058480  47.8266750  32.7382720  12.3718040  47.0067090
  19.3434690  14.6758520  47.0260070  20.0797170  14.1273980  47.2968640
  19.7275610  15.5414530  46.8866060  16.2280170  10.7432090  42.9001580
  15.3019950  10.9853230  42.8906990  16.6936600  11.5706350  42.7786330
  22.4537000  13.8488830  38.8485640  23.2465610  14.1377660  38.3967430
  21.9341350  13.4181000  38.1698120  28.6157970  13.6964750  54.7730470
  29.5679720  13.6122770  54.7230710  28.4686190  14.3606460  55.4464260
  31.5067170  13.0758960  40.2722380  31.2208680  12.6624100  39.4576560
  31.3086720  14.0046670  40.1522900  22.9714400   9.0692240  38.7127990
  22.8665040   8.4544590  39.4389370  22.8038620   8.5458130  37.9291000
  23.1228720   7.7549040  54.6917220  22.3574390   8.3234040  54.6071890
  23.3044680   7.4625250  53.7985450  26.2117130   8.1312270  39.3169980
  25.6627230   8.5781570  39.9612720  26.8336390   7.6261520  39.8407650
  30.2652070   9.4854370  55.2492240  31.0061540   9.8230130  54.7459700
  29.5024750   9.6546430  54.6962010  21.8792250   7.0903190  41.2135280
  22.3008670   6.9243060  42.0566670  22.0043090   6.2803420  40.7190420
  20.0419670   3.0699740  54.0206260  19.5116130   2.5790690  53.3929600
  20.7107740   3.4983940  53.4864190  24.3919890   6.1140800  38.4612380
  24.9125550   5.3989820  38.0953530  25.0388290   6.7526670  38.7612890
  28.9397730   7.5369200  53.7847450  29.3538750   7.6914280  54.6337870
  28.0048730   7.6624420  53.9473230  23.7012960   7.4889680  51.7543380
  24.1201070   8.3322410  51.5819620  22.7821590   7.6261720  51.5250160
  26.0376860   5.2205860  53.1381220  26.1573070   4.6247000  53.8776060
  26.8970860   5.2575550  52.7182520  28.3764760   5.7743050  51.7143730
  27.8499980   6.2985670  51.1108870  28.7196100   6.4070440  52.3453460
  20.7751150   3.1636420  38.1593440  20.5740210   2.3003780  38.5206780
  20.6043200   3.0769780  37.2215040  21.5520380  13.7942690  52.8701110
  21.0141470  14.5188750  52.5509810  21.8054340  13.3173030  52.0798450
  24.4082590  15.0293900  53.1287760  24.3341290  15.9329040  53.4360130
  23.5061430  14.7105800  53.1009830  24.9567920  14.1952410  40.7514120
  25.8518710  14.5337380  40.7732880  24.9885550  13.4731820  40.1238400
  18.5964080   9.5679460  38.9801120  19.0338950  10.1109130  39.6358700
  19.0811810   8.7426410  38.9897460  15.8109880  12.3568490  46.4321380
  16.1412890  11.4889550  46.2000020  16.2400880  12.5627010  47.2626340
  20.4071800  10.6877500  44.0923350  20.1067340  10.5642470  44.9927260
  20.3009290   9.8286090  43.6839080  16.3000090  13.2239080  49.1703010
  15.8631080  13.4039880  50.0027160  16.8677770  13.9813700  49.0284730
  31.9362270  12.7256080  53.4580320  31.3364260  12.7848640  52.7144240
  32.0656170  11.7861060  53.5877170  33.1763720  10.4673900  38.7950030
  32.3456680  10.5350550  39.2657260  33.3535550  11.3578020  38.4916890
  32.6320180   7.2121380  41.2984230  33.3939090   7.7818030  41.4043920
  32.6474550   6.6448580  42.0692540  16.1324520   5.7359310  45.5291890
  15.4773360   5.4670950  44.8851590  16.9702470   5.6263790  45.0793870
  33.6380150   8.0671480  46.1426160  34.0088980   7.2838800  45.7362130
  34.2782080   8.7560580  45.9643460  30.6213910   9.4508060  51.5556480
  29.8073750   9.8805220  51.8182270  31.0288110  10.0626470  50.9425530
  32.6839350   7.5055750  38.4556750  32.9588190   8.4134630  38.3275970
  32.4950090   7.4418280  39.3918740  32.5804690   5.4424740  43.4486180
  32.2048290   4.6752670  43.0167470  31.8507810   5.8247440  43.9361110
  17.1700450   6.1211880  50.0695230  17.5373490   6.0339280  50.9491250
  16.6011270   5.3578430  49.9702090  31.9704310   4.5896260  53.0825700
  31.7390400   4.3609010  52.1823650  32.2308860   5.5095810  53.0370590
  16.7216450   3.0320970  53.9753650  15.8272500   2.9987730  54.3147360
  17.2614000   3.2307760  54.7404900  15.3462600   2.9458240  41.4717220
  14.4426680   3.2088440  41.2968880  15.8303220   3.2169410  40.6917180
  31.8555650   3.6682230  46.7493420  32.3793130   3.1744880  46.1183590
  32.4415070   3.8032590  47.4940990  32.0345370   3.7522100  50.2712970
  31.0848080   3.7185640  50.3857960  32.2158380   4.6622210  50.0362740
  17.8889810   2.0023780  39.3811600  18.5981510   1.5807000  38.8958880
  17.1729750   2.0699010  38.7494950  31.3455620   2.9255580  42.6885830
  31.8414740   2.6926450  43.4734710  31.1471690   2.0867420  42.2723470
  30.6789960  14.2026660  45.0824750  31.2749030  13.8811230  44.4059170
  30.9368110  13.7298480  45.8738020  22.2858560  12.1904160  50.8325100
  22.0449920  12.4578720  49.9455620  23.2261200  12.3609890  50.8875960
  33.5462720  14.2098540  51.6335740  33.0521000  14.6067410  50.9162870
  32.9376010  13.5847750  52.0273020  18.4240560  13.5806820  52.3513160
  17.8300880  13.4491520  53.0903200  18.4164400  12.7444960  51.8855260
  31.2302170  14.8521960  48.9122480  30.7705140  15.6037770  48.5380500
  30.6014630  14.1328430  48.8537280  18.0552790  10.9465200  51.3021200
  17.3286850  10.3270490  51.2347150  18.1161940  11.3405810  50.4319280
  21.6597890  13.1610200  48.0870610  22.1762910  12.5497560  47.5618870
  22.3095270  13.6638980  48.5781620  24.3993390  14.0518690  48.9139590
  24.6871200  13.7972990  48.0372600  24.9116610  13.4996050  49.5045160
  16.3382790  14.2639590  44.5117960  16.1704830  13.6310270  45.2099850
  15.4717300  14.4698990  44.1612150  17.9445490  12.9572820  41.9568100
  17.4193110  13.3380850  41.2530060  17.8690070  13.5823590  42.6777810
  32.7010810  14.5160360  43.2782040  32.8763000  13.8298100  42.6342960
  32.0032380  15.0407410  42.8858710  20.5438460  14.9055200  40.8317350
  21.2757280  14.6214480  40.2841240  20.8032130  14.6668480  41.7216730
  19.7053250  11.0219930  40.8363680  19.0762130  11.4905030  41.3849510
  19.8201080  10.1769150  41.2709870  27.1602970   5.0725590  26.9864880
  27.0797020   4.1580200  26.7156590  26.7467390   5.5692660  26.2804590
  25.2921010   6.8504610  28.8674150  24.5163110   6.3705050  29.1572720
  25.9433940   6.1710260  28.6930310  19.3086840   7.1624420  29.7449910
  18.4771720   6.9073130  30.1446420  19.9167820   7.2335190  30.4807830
  29.3128440  11.2564800  27.6473280  28.8509970  10.4852040  27.9760450
  30.1253990  11.2830870  28.1525730  19.2888100  11.1964510  29.9407930
  19.5916140  10.3062250  29.7618150  20.0331690  11.7534730  29.7130180
  17.7178790   2.1226310  23.5292300  16.8295490   2.4642280  23.4272180
  18.0019980   1.9226630  22.6373130  15.6811800   4.7231960  29.4132000
  16.2527910   3.9554160  29.4135640  15.6813340   5.0220720  28.5038610
  25.5391750  13.5422810  27.2677270  24.9203190  13.9980310  26.6971710
  26.3943530  13.6974270  26.8666970  24.7330000   9.5261800  28.8744310
  24.6638280   8.5851740  28.7133440  25.4949860   9.6163210  29.4466880
  17.5423340   2.6276820  29.8083270  18.2233450   2.8915190  30.4270670
  17.2271390   1.7877690  30.1421280  21.7347910   3.6744180  28.8955860
  22.2426130   4.1725150  29.5360880  22.2661150   2.8979380  28.7195220
  33.8358840   1.8449370  32.5985210  33.1311010   2.2331080  32.0800320
  34.1016760   2.5399660  33.2006140  26.4055100   8.4262050  24.6609180
  25.7872370   8.8911500  24.0971900  26.9178350   9.1189530  25.0778690
  21.2686860   7.9537920  31.3392780  20.9356240   8.5806840  31.9813850
  21.4453540   8.4799800  30.5594450  29.7820770   1.7683000  28.8069120
  29.0776340   2.0567890  29.3872230  30.1432930   2.5783110  28.4468680
  20.4805960   9.9218720  33.1541960  21.0979960  10.5969800  32.8726410
  19.6199080  10.3306700  33.0629460  15.7738300   9.1118580  22.0348810
  15.3966280   9.6005680  21.3033710  16.0311370   9.7843860  22.6655340
  31.3983550  11.3858130  31.0696600  30.7147070  12.0557240  31.0613270
  31.9377840  11.5838780  30.3041460  28.9342290  13.2302260  29.7841780
  28.9469450  12.8264550  28.9164040  28.3817510  14.0049550  29.6803210
  30.2287710   9.9518480  24.8731950  30.1184040   9.0092810  24.9981370
  30.2255960  10.3134120  25.7594710  28.3327730   8.1332100  31.1124390
  28.7496520   7.9192210  30.2777850  29.0567550   8.3904890  31.6833010
  25.7707990   5.5783800  24.2294440  24.8437270   5.5121180  24.4582910
  25.9232810   6.5163930  24.1149680  25.7577070   1.8500800  21.2261600
  24.8180740   2.0114760  21.3114060  26.0760330   2.5686480  20.6797590
  32.2789830   6.5319320  31.2040630  31.4508460   6.6012410  30.7290760
  32.8740310   7.1173630  30.7356460  29.8005280   7.1404100  24.7329690
  29.1817700   6.8023650  24.0855990  29.7829730   6.4963860  25.4408880
  29.2431840   3.3188640  32.1495500  28.8303020   4.1442350  32.4035490
  28.5107790   2.7333680  31.9571860  21.3764630   6.1048540  27.0114170
  20.9721630   5.3925790  26.5160070  21.4627750   5.7601780  27.9002210
  21.8446330   9.7916100  29.1753380  21.5474620   9.1861570  28.4961160
  22.7946150   9.8293410  29.0642740  20.0893250   2.8791750  30.7913210
  20.6407840   2.9887090  30.0166460  20.6036760   3.2529350  31.5068440
  29.9331940  13.3647970  32.8376480  29.4562500  14.1720160  32.6449090
  29.2493730  12.7126300  32.9902690  20.9364760   9.5297790  35.8261180
  20.0393290   9.7537760  36.0734580  20.9617630   9.6532730  34.8772580
  27.9769980   6.3790910  21.7402440  28.4163260   5.5413340  21.5940260
  28.6898400   7.0120310  21.8266580  19.7635980   6.4011110  34.4018550
  19.6243750   7.2733910  34.7705950  18.8817340   6.0583920  34.2566490
  26.0865360  11.3186980  25.7083680  26.5261270  12.0611310  25.2939070
  26.0252250  11.5613550  26.6322640  21.5616330  12.3432810  36.6103700
  21.5331760  12.7475760  35.7432130  21.3981300  11.4143170  36.4475300
  18.0769260   4.9993520  24.5120820  17.9566860   5.7255610  23.9002090
  17.7670150   4.2296430  24.0348730  33.5131150  13.1259910  37.9067870
  33.9890870  13.6042800  38.5856950  34.1338310  13.0577400  37.1813370
  15.7154630   8.1708660  30.3189460  15.7935050   8.3057430  29.3745180
  16.3296310   7.4624550  30.5117580  16.9602260   9.8708850  26.7295640
  16.5530340  10.0123440  25.8749240  17.8515270   9.5869010  26.5266850
  32.9164400  10.3172760  35.0667880  33.0427460  10.0784640  34.1485060
  32.9585780   9.4857300  35.5389960  26.7781140  14.0200760  33.6362690
  27.2925810  13.9308770  34.4385120  25.9350220  14.3660460  33.9290600
  28.7535540  14.3056100  23.0646690  28.5936680  14.0159040  23.9628520
  28.5882250  13.5296230  22.5291920  21.2323920  14.0854630  24.8418310
  21.0566400  13.1690170  24.6286110  20.3779660  14.4441920  25.0816110
  28.4561670  11.8143660  21.6244690  27.7626830  11.8120950  20.9646970
  29.1984530  11.3902980  21.1938860  28.0211600  13.4406370  25.6993180
  28.4768550  12.6595750  26.0131800  28.3604120  14.1513190  26.2434360
  15.7714150   9.2122830  32.8583920  15.9345190   8.7428190  32.0403290
  16.2366600   8.7046390  33.5232760  29.8307240   2.4306060  34.6276470
  28.9800830   2.1311810  34.9485540  29.6709030   2.6748070  33.7160290
  26.9256950   3.9307810  36.7275260  27.2510360   3.0971560  36.3877490
  27.7137280   4.4536330  36.8753590  20.3347140   3.4662160  25.6225740
  20.1088060   3.2499330  26.5272360  19.5539670   3.8990620  25.2771710
  27.5644900   3.4725530  24.2216390  26.9653790   4.1961330  24.0380010
  28.1124510   3.4102310  23.4392840  22.7746350   4.3647740  36.2886010
  22.6789950   3.4242470  36.1386410  23.6178330   4.5862810  35.8934080
  15.3944170   2.6409990  19.6852590  15.3118840   3.5840750  19.8267580
  15.0427230   2.4984900  18.8064940  26.7564910   4.6994820  30.3470450
  26.0246030   5.2081630  30.6960550  26.3589250   3.8824800  30.0459230
  23.2562450   2.3761100  21.7429700  23.3775270   2.3347580  22.6915520
  22.8710960   3.2385250  21.5876430  22.2683950   4.6862240  21.1413000
  21.7000850   4.2380490  20.5148910  22.9772950   5.0455020  20.6078150
  17.3453130   8.5874260  35.0179730  16.9607920   7.9467930  35.6162690
  17.6565320   9.2910380  35.5874460  23.4950270   5.4350800  30.4988350
  23.8620400   4.9609370  31.2449690  23.3055330   6.3092370  30.8396690
  21.2849640   4.4759440  32.8172560  20.9806710   5.3551420  33.0422920
  22.2396100   4.5359230  32.8530000  19.8131430   8.6820430  23.4139410
  19.0393690   8.1418050  23.2538130  20.5426060   8.1627040  23.0757170
  30.5719410   7.6785790  29.2065800  31.2918530   8.1741080  28.8161910
  30.3701230   7.0003680  28.5619670  25.9538210   7.7494850  35.0934800
  25.8875520   6.8290520  34.8392390  25.3243350   7.8470290  35.8079440
  28.7477740   3.4443400  21.6457350  29.6357360   3.7560630  21.4708690
  28.7182830   2.5715650  21.2537930  19.8568830   8.3500810  27.0518220
  20.3747500   7.5469070  26.9975110  19.4052850   8.2879950  27.8935050
  24.7438330   9.6167090  22.3245520  25.0854030  10.3609320  21.8288840
  23.9151040   9.9298210  22.6870350  17.3413370   5.3162180  33.9643920
  16.9828310   5.9816030  34.5517260  17.0467930   4.4845730  34.3356540
  20.5426490   5.7746420  36.8483470  20.2426630   5.9203600  35.9511290
  21.3137730   5.2151710  36.7556860  25.8854940  10.5715420  34.8438600
  25.8999480   9.6396380  34.6257510  25.1780040  10.6575180  35.4828370
  31.0192010   4.7555240  21.1137210  30.9355730   5.1869460  20.2633650
  31.7386200   5.2153590  21.5464030  32.0966150   7.2122760  34.1907180
  31.3714340   7.8051540  33.9936570  32.6241610   7.2046300  33.3920550
  32.0479260  11.6097500  23.8419340  31.4055420  10.9553120  24.1163060
  31.6609920  12.0152590  23.0660010  27.6265740   8.9382930  27.6891030
  27.9789560   8.3411060  27.0292400  26.7428070   8.6127160  27.8599280
  23.7129020   9.6980620  25.0961440  24.4000150  10.2449830  25.4769030
  22.9261440  10.2421350  25.1311050  15.8521420   5.3153440  20.5878520
  16.7216270   5.5978240  20.8714440  15.3611740   6.1289310  20.4727330
  23.0156230   6.7026650  24.7086800  23.4719010   7.5131900  24.9346990
  22.6644440   6.3849790  25.5405290  25.3188840  12.2132990  31.9379100
  25.9631060  12.4192370  32.6152520  25.6818280  11.4521390  31.4849950
  26.5920920  10.2165340  30.6556550  27.2343150   9.5158500  30.7688720
  27.1170270  10.9963780  30.4753440  30.4376640  10.5013960  20.3795690
  30.2114220   9.7844400  20.9720330  30.0472840  10.2526400  19.5417440
  28.3658540  11.0160240  33.8592610  28.7014780  11.6026930  34.5370530
  27.4458880  10.8852950  34.0890400  16.2192670  14.5280820  21.1540150
  16.5790310  15.1270160  20.4997420  16.0785010  15.0740710  21.9275180
  30.0192890   8.4185900  22.0409850  29.7314590   8.8798590  22.8287730
  30.8145060   7.9583670  22.3094070  16.2034530  12.7935680  35.6282550
  16.3125650  11.8530420  35.4877940  15.5515090  13.0590430  34.9796280
  24.1947120  11.0651570  37.0280670  23.8743990  10.3460810  37.5726360
  23.5205480  11.7406640  37.1016730  22.2361290  11.9112020  21.9713820
  22.2271390  12.6441710  21.3558330  21.3159650  11.6643600  22.0640780
  17.8367930   7.1326910  22.7160580  17.2295880   7.8725810  22.7255880
  18.3117280   7.2226270  21.8898780  25.2220890  11.9740260  20.6339010
  25.3232870  11.7704250  19.7040990  24.3222630  11.7198540  20.8386790
  22.7446780   2.5320620  24.6162910  22.0362930   3.0006960  25.0576520
  23.0291260   1.8742630  25.2508100  24.3702710   3.9517320  32.6155440
  24.8687960   4.4263140  33.2807290  24.5125660   3.0280840  32.8225470
  23.8639000  14.4926580  25.3286680  24.1180500  14.4547970  24.4066050
  22.9151480  14.3659910  25.3214930  29.8691580   5.4118460  26.9045190
  28.9281720   5.4268690  27.0792880  30.1835650   4.6254420  27.3505490
  19.8473220   7.0938060  20.4649150  20.6136490   6.9819420  21.0274580
  19.9247910   6.3976030  19.8125920  18.5419980   4.5263130  21.1482040
  18.6223570   3.5790640  21.2599440  19.4339730   4.8570010  21.2542700
  31.8717160  12.5827310  28.5799450  31.9964580  13.4058480  29.0523260
  32.7382720  12.3718040  28.2323600  19.3434690  14.6758520  28.2516580
  20.0797170  14.1273980  28.5225150  19.7275610  15.5414530  28.1122570
  16.2280170  10.7432090  24.1258090  15.3019950  10.9853230  24.1163500
  16.6936600  11.5706350  24.0042840  18.3492970  13.8604590  37.4402160
  19.1505700  14.1816640  37.8537560  17.8344790  13.5000170  38.1622070
  22.4537000  13.8488830  20.0742150  23.2465610  14.1377660  19.6223940
  21.9341350  13.4181000  19.3954630  27.1857600   9.9684460  37.3877570
  26.5795760   9.9916060  36.6473320  26.8811710   9.2367500  37.9244820
  28.6157970  13.6964750  35.9986980  29.5679720  13.6122770  35.9487220
  28.4686190  14.3606460  36.6720770  31.5067170  13.0758960  21.4978890
  31.2208680  12.6624100  20.6833070  31.3086720  14.0046670  21.3779410
  16.0690780   6.3478050  36.3838210  16.5729800   5.7685330  36.9554440
  15.3298200   6.6318280  36.9214580  22.9714400   9.0692240  19.9384500
  22.8665040   8.4544590  20.6645880  22.8038620   8.5458130  19.1547510
  23.1228720   7.7549040  35.9173730  22.3574390   8.3234040  35.8328400
  23.3044680   7.4625250  35.0241960  26.2117130   8.1312270  20.5426490
  25.6627230   8.5781570  21.1869230  26.8336390   7.6261520  21.0664160
  30.2652070   9.4854370  36.4748750  31.0061540   9.8230130  35.9716210
  29.5024750   9.6546430  35.9218520  18.1013860   4.4907640  37.2788280
  18.1419200   4.1921510  38.1873510  18.9559360   4.8915250  37.1195800
  21.8792250   7.0903190  22.4391790  22.3008670   6.9243060  23.2823180
  22.0043090   6.2803420  21.9446930  20.0419670   3.0699740  35.2462770
  19.5116130   2.5790690  34.6186110  20.7107740   3.4983940  34.7120700
  24.3919890   6.1140800  19.6868890  24.9125550   5.3989820  19.3210040
  25.0388290   6.7526670  19.9869400  28.9397730   7.5369200  35.0103960
  29.3538750   7.6914280  35.8594380  28.0048730   7.6624420  35.1729740
  29.4119900   4.8765360  37.0143110  29.9940670   4.1217680  36.9263590
  29.5881670   5.4072800  36.2374590  23.7012960   7.4889680  32.9799890
  24.1201070   8.3322410  32.8076130  22.7821590   7.6261720  32.7506670
  26.0376860   5.2205860  34.3637730  26.1573070   4.6247000  35.1032570
  26.8970860   5.2575550  33.9439030  28.3764760   5.7743050  32.9400240
  27.8499980   6.2985670  32.3365380  28.7196100   6.4070440  33.5709970
  20.7751150   3.1636420  19.3849950  20.5740210   2.3003780  19.7463290
  20.6043200   3.0769780  18.4471550  21.5520380  13.7942690  34.0957620
  21.0141470  14.5188750  33.7766320  21.8054340  13.3173030  33.3054960
  24.4082590  15.0293900  34.3544270  24.3341290  15.9329040  34.6616640
  23.5061430  14.7105800  34.3266340  24.9567920  14.1952410  21.9770630
  25.8518710  14.5337380  21.9989390  24.9885550  13.4731820  21.3494910
  18.5964080   9.5679460  20.2057630  19.0338950  10.1109130  20.8615210
  19.0811810   8.7426410  20.2153970  15.8109880  12.3568490  27.6577890
  16.1412890  11.4889550  27.4256530  16.2400880  12.5627010  28.4882850
  20.4071800  10.6877500  25.3179860  20.1067340  10.5642470  26.2183770
  20.3009290   9.8286090  24.9095590  16.3000090  13.2239080  30.3959520
  15.8631080  13.4039880  31.2283670  16.8677770  13.9813700  30.2541240
  31.9362270  12.7256080  34.6836830  31.3364260  12.7848640  33.9400750
  32.0656170  11.7861060  34.8133680  33.1763720  10.4673900  20.0206540
  32.3456680  10.5350550  20.4913770  33.3535550  11.3578020  19.7173400
  32.6320180   7.2121380  22.5240740  33.3939090   7.7818030  22.6300430
  32.6474550   6.6448580  23.2949050  16.1324520   5.7359310  26.7548400
  15.4773360   5.4670950  26.1108100  16.9702470   5.6263790  26.3050380
  33.6380150   8.0671480  27.3682670  34.0088980   7.2838800  26.9618640
  34.2782080   8.7560580  27.1899970  30.6213910   9.4508060  32.7812990
  29.8073750   9.8805220  33.0438780  31.0288110  10.0626470  32.1682040
  32.6839350   7.5055750  19.6813260  32.9588190   8.4134630  19.5532480
  32.4950090   7.4418280  20.6175250  32.5804690   5.4424740  24.6742690
  32.2048290   4.6752670  24.2423980  31.8507810   5.8247440  25.1617620
  17.1700450   6.1211880  31.2951740  17.5373490   6.0339280  32.1747760
  16.6011270   5.3578430  31.1958600  31.9704310   4.5896260  34.3082210
  31.7390400   4.3609010  33.4080160  32.2308860   5.5095810  34.2627100
  16.7216450   3.0320970  35.2010160  15.8272500   2.9987730  35.5403870
  17.2614000   3.2307760  35.9661410  15.3462600   2.9458240  22.6973730
  14.4426680   3.2088440  22.5225390  15.8303220   3.2169410  21.9173690
  31.8555650   3.6682230  27.9749930  32.3793130   3.1744880  27.3440100
  32.4415070   3.8032590  28.7197500  32.0345370   3.7522100  31.4969480
  31.0848080   3.7185640  31.6114470  32.2158380   4.6622210  31.2619250
  17.8889810   2.0023780  20.6068110  18.5981510   1.5807000  20.1215390
  17.1729750   2.0699010  19.9751460  31.3455620   2.9255580  23.9142340
  31.8414740   2.6926450  24.6991220  31.1471690   2.0867420  23.4979980
  30.6789960  14.2026660  26.3081260  31.2749030  13.8811230  25.6315680
  30.9368110  13.7298480  27.0994530  18.5852530  10.6344570  36.4571890
  18.5422160  10.2637480  37.3386350  18.7163540  11.5722140  36.5973710
  22.2858560  12.1904160  32.0581610  22.0449920  12.4578720  31.1712130
  23.2261200  12.3609890  32.1132470  33.5462720  14.2098540  32.8592250
  33.0521000  14.6067410  32.1419380  32.9376010  13.5847750  33.2529530
  18.4240560  13.5806820  33.5769670  17.8300880  13.4491520  34.3159710
  18.4164400  12.7444960  33.1111770  31.2302170  14.8521960  30.1378990
  30.7705140  15.6037770  29.7637010  30.6014630  14.1328430  30.0793790
  18.0552790  10.9465200  32.5277710  17.3286850  10.3270490  32.4603660
  18.1161940  11.3405810  31.6575790  21.6597890  13.1610200  29.3127120
  22.1762910  12.5497560  28.7875380  22.3095270  13.6638980  29.8038130
  24.3993390  14.0518690  30.1396100  24.6871200  13.7972990  29.2629110
  24.9116610  13.4996050  30.7301670  16.3382790  14.2639590  25.7374470
  16.1704830  13.6310270  26.4356360  15.4717300  14.4698990  25.3868660
  17.9445490  12.9572820  23.1824610  17.4193110  13.3380850  22.4786570
  17.8690070  13.5823590  23.9034320  24.4665750  14.9734790  37.5064300
  25.3933060  14.7379060  37.5500260  24.4516180  15.8006790  37.0250330
  32.7010810  14.5160360  24.5038550  32.8763000  13.8298100  23.8599470
  32.0032380  15.0407410  24.1115220  20.5438460  14.9055200  22.0573860
  21.2757280  14.6214480  21.5097750  20.8032130  14.6668480  22.9473240
  19.7053250  11.0219930  22.0620190  19.0762130  11.4905030  22.6106020
  19.8201080  10.1769150  22.4966380  31.0343310  14.2004650  37.3305340
  31.8268630  13.7053880  37.1231300  31.3276460  14.8794790  37.9380950
  27.1602970   5.0725590   8.2121390  27.0797020   4.1580200   7.9413100
  26.7467390   5.5692660   7.5061100  25.2921010   6.8504610  10.0930660
  24.5163110   6.3705050  10.3829230  25.9433940   6.1710260   9.9186820
  19.3086840   7.1624420  10.9706420  18.4771720   6.9073130  11.3702930
  19.9167820   7.2335190  11.7064340  29.3128440  11.2564800   8.8729790
  28.8509970  10.4852040   9.2016960  30.1253990  11.2830870   9.3782240
  19.2888100  11.1964510  11.1664440  19.5916140  10.3062250  10.9874660
  20.0331690  11.7534730  10.9386690  17.7178790   2.1226310   4.7548810
  16.8295490   2.4642280   4.6528690  18.0019980   1.9226630   3.8629640
  15.6811800   4.7231960  10.6388510  16.2527910   3.9554160  10.6392150
  15.6813340   5.0220720   9.7295120  25.5391750  13.5422810   8.4933780
  24.9203190  13.9980310   7.9228220  26.3943530  13.6974270   8.0923480
  24.7330000   9.5261800  10.1000820  24.6638280   8.5851740   9.9389950
  25.4949860   9.6163210  10.6723390  17.5423340   2.6276820  11.0339780
  18.2233450   2.8915190  11.6527180  17.2271390   1.7877690  11.3677790
  21.7347910   3.6744180  10.1212370  22.2426130   4.1725150  10.7617390
  22.2661150   2.8979380   9.9451730  33.8358840   1.8449370  13.8241720
  33.1311010   2.2331080  13.3056830  34.1016760   2.5399660  14.4262650
  26.4055100   8.4262050   5.8865690  25.7872370   8.8911500   5.3228410
  26.9178350   9.1189530   6.3035200  21.2686860   7.9537920  12.5649290
  20.9356240   8.5806840  13.2070360  21.4453540   8.4799800  11.7850960
  29.7820770   1.7683000  10.0325630  29.0776340   2.0567890  10.6128740
  30.1432930   2.5783110   9.6725190  20.4805960   9.9218720  14.3798470
  21.0979960  10.5969800  14.0982920  19.6199080  10.3306700  14.2885970
  15.7738300   9.1118580   3.2605320  15.3966280   9.6005680   2.5290220
  16.0311370   9.7843860   3.8911850  31.3983550  11.3858130  12.2953110
  30.7147070  12.0557240  12.2869780  31.9377840  11.5838780  11.5297970
  28.9342290  13.2302260  11.0098290  28.9469450  12.8264550  10.1420550
  28.3817510  14.0049550  10.9059720  30.2287710   9.9518480   6.0988460
  30.1184040   9.0092810   6.2237880  30.2255960  10.3134120   6.9851220
  28.3327730   8.1332100  12.3380900  28.7496520   7.9192210  11.5034360
  29.0567550   8.3904890  12.9089520  25.7707990   5.5783800   5.4550950
  24.8437270   5.5121180   5.6839420  25.9232810   6.5163930   5.3406190
  25.7577070   1.8500800   2.4518110  24.8180740   2.0114760   2.5370570
  26.0760330   2.5686480   1.9054100  32.2789830   6.5319320  12.4297140
  31.4508460   6.6012410  11.9547270  32.8740310   7.1173630  11.9612970
  29.8005280   7.1404100   5.9586200  29.1817700   6.8023650   5.3112500
  29.7829730   6.4963860   6.6665390  29.2431840   3.3188640  13.3752010
  28.8303020   4.1442350  13.6292000  28.5107790   2.7333680  13.1828370
  21.3764630   6.1048540   8.2370680  20.9721630   5.3925790   7.7416580
  21.4627750   5.7601780   9.1258720  21.8446330   9.7916100  10.4009890
  21.5474620   9.1861570   9.7217670  22.7946150   9.8293410  10.2899250
  20.0893250   2.8791750  12.0169720  20.6407840   2.9887090  11.2422970
  20.6036760   3.2529350  12.7324950  29.9331940  13.3647970  14.0632990
  29.4562500  14.1720160  13.8705600  29.2493730  12.7126300  14.2159200
  20.9364760   9.5297790  17.0517690  20.0393290   9.7537760  17.2991090
  20.9617630   9.6532730  16.1029090  27.9769980   6.3790910   2.9658950
  28.4163260   5.5413340   2.8196770  28.6898400   7.0120310   3.0523090
  19.7635980   6.4011110  15.6275060  19.6243750   7.2733910  15.9962460
  18.8817340   6.0583920  15.4823000  26.0865360  11.3186980   6.9340190
  26.5261270  12.0611310   6.5195580  26.0252250  11.5613550   7.8579150
  21.5616330  12.3432810  17.8360210  21.5331760  12.7475760  16.9688640
  21.3981300  11.4143170  17.6731810  18.0769260   4.9993520   5.7377330
  17.9566860   5.7255610   5.1258600  17.7670150   4.2296430   5.2605240
  33.5131150  13.1259910  19.1324380  33.9890870  13.6042800  19.8113460
  34.1338310  13.0577400  18.4069880  15.7154630   8.1708660  11.5445970
  15.7935050   8.3057430  10.6001690  16.3296310   7.4624550  11.7374090
  16.9602260   9.8708850   7.9552150  16.5530340  10.0123440   7.1005750
  17.8515270   9.5869010   7.7523360  32.9164400  10.3172760  16.2924390
  33.0427460  10.0784640  15.3741570  32.9585780   9.4857300  16.7646470
  26.7781140  14.0200760  14.8619200  27.2925810  13.9308770  15.6641630
  25.9350220  14.3660460  15.1547110  28.7535540  14.3056100   4.2903200
  28.5936680  14.0159040   5.1885030  28.5882250  13.5296230   3.7548430
  21.2323920  14.0854630   6.0674820  21.0566400  13.1690170   5.8542620
  20.3779660  14.4441920   6.3072620  28.4561670  11.8143660   2.8501200
  27.7626830  11.8120950   2.1903480  29.1984530  11.3902980   2.4195370
  28.0211600  13.4406370   6.9249690  28.4768550  12.6595750   7.2388310
  28.3604120  14.1513190   7.4690870  15.7714150   9.2122830  14.0840430
  15.9345190   8.7428190  13.2659800  16.2366600   8.7046390  14.7489270
  29.8307240   2.4306060  15.8532980  28.9800830   2.1311810  16.1742050
  29.6709030   2.6748070  14.9416800  26.9256950   3.9307810  17.9531770
  27.2510360   3.0971560  17.6134000  27.7137280   4.4536330  18.1010100
  20.3347140   3.4662160   6.8482250  20.1088060   3.2499330   7.7528870
  19.5539670   3.8990620   6.5028220  27.5644900   3.4725530   5.4472900
  26.9653790   4.1961330   5.2636520  28.1124510   3.4102310   4.6649350
  22.7746350   4.3647740  17.5142520  22.6789950   3.4242470  17.3642920
  23.6178330   4.5862810  17.1190590  26.7564910   4.6994820  11.5726960
  26.0246030   5.2081630  11.9217060  26.3589250   3.8824800  11.2715740
  23.2562450   2.3761100   2.9686210  23.3775270   2.3347580   3.9172030
  22.8710960   3.2385250   2.8132940  22.2683950   4.6862240   2.3669510
  21.7000850   4.2380490   1.7405420  22.9772950   5.0455020   1.8334660
  17.3453130   8.5874260  16.2436240  16.9607920   7.9467930  16.8419200
  17.6565320   9.2910380  16.8130970  23.4950270   5.4350800  11.7244860
  23.8620400   4.9609370  12.4706200  23.3055330   6.3092370  12.0653200
  21.2849640   4.4759440  14.0429070  20.9806710   5.3551420  14.2679430
  22.2396100   4.5359230  14.0786510  19.8131430   8.6820430   4.6395920
  19.0393690   8.1418050   4.4794640  20.5426060   8.1627040   4.3013680
  30.5719410   7.6785790  10.4322310  31.2918530   8.1741080  10.0418420
  30.3701230   7.0003680   9.7876180  25.9538210   7.7494850  16.3191310
  25.8875520   6.8290520  16.0648900  25.3243350   7.8470290  17.0335950
  28.7477740   3.4443400   2.8713860  29.6357360   3.7560630   2.6965200
  28.7182830   2.5715650   2.4794440  19.8568830   8.3500810   8.2774730
  20.3747500   7.5469070   8.2231620  19.4052850   8.2879950   9.1191560
  24.7438330   9.6167090   3.5502030  25.0854030  10.3609320   3.0545350
  23.9151040   9.9298210   3.9126860  17.3413370   5.3162180  15.1900430
  16.9828310   5.9816030  15.7773770  17.0467930   4.4845730  15.5613050
  20.5426490   5.7746420  18.0739980  20.2426630   5.9203600  17.1767800
  21.3137730   5.2151710  17.9813370  25.8854940  10.5715420  16.0695110
  25.8999480   9.6396380  15.8514020  25.1780040  10.6575180  16.7084880
  32.0966150   7.2122760  15.4163690  31.3714340   7.8051540  15.2193080
  32.6241610   7.2046300  14.6177060  32.0479260  11.6097500   5.0675850
  31.4055420  10.9553120   5.3419570  31.6609920  12.0152590   4.2916520
  27.6265740   8.9382930   8.9147540  27.9789560   8.3411060   8.2548910
  26.7428070   8.6127160   9.0855790  23.7129020   9.6980620   6.3217950
  24.4000150  10.2449830   6.7025540  22.9261440  10.2421350   6.3567560
  15.8521420   5.3153440   1.8135030  16.7216270   5.5978240   2.0970950
  15.3611740   6.1289310   1.6983840  23.0156230   6.7026650   5.9343310
  23.4719010   7.5131900   6.1603500  22.6644440   6.3849790   6.7661800
  25.3188840  12.2132990  13.1635610  25.9631060  12.4192370  13.8409030
  25.6818280  11.4521390  12.7106460  26.5920920  10.2165340  11.8813060
  27.2343150   9.5158500  11.9945230  27.1170270  10.9963780  11.7009950
  28.3658540  11.0160240  15.0849120  28.7014780  11.6026930  15.7627040
  27.4458880  10.8852950  15.3146910  16.2192670  14.5280820   2.3796660
  16.5790310  15.1270160   1.7253930  16.0785010  15.0740710   3.1531690
  30.0192890   8.4185900   3.2666360  29.7314590   8.8798590   4.0544240
  30.8145060   7.9583670   3.5350580  16.2034530  12.7935680  16.8539060
  16.3125650  11.8530420  16.7134450  15.5515090  13.0590430  16.2052790
  24.1947120  11.0651570  18.2537180  23.8743990  10.3460810  18.7982870
  23.5205480  11.7406640  18.3273240  22.2361290  11.9112020   3.1970330
  22.2271390  12.6441710   2.5814840  21.3159650  11.6643600   3.2897290
  17.8367930   7.1326910   3.9417090  17.2295880   7.8725810   3.9512390
  18.3117280   7.2226270   3.1155290  22.7446780   2.5320620   5.8419420
  22.0362930   3.0006960   6.2833030  23.0291260   1.8742630   6.4764610
  24.3702710   3.9517320  13.8411950  24.8687960   4.4263140  14.5063800
  24.5125660   3.0280840  14.0481980  23.8639000  14.4926580   6.5543190
  24.1180500  14.4547970   5.6322560  22.9151480  14.3659910   6.5471440
  29.8691580   5.4118460   8.1301700  28.9281720   5.4268690   8.3049390
  30.1835650   4.6254420   8.5762000  18.5419980   4.5263130   2.3738550
  18.6223570   3.5790640   2.4855950  19.4339730   4.8570010   2.4799210
  31.8717160  12.5827310   9.8055960  31.9964580  13.4058480  10.2779770
  32.7382720  12.3718040   9.4580110  19.3434690  14.6758520   9.4773090
  20.0797170  14.1273980   9.7481660  19.7275610  15.5414530   9.3379080
  16.2280170  10.7432090   5.3514600  15.3019950  10.9853230   5.3420010
  16.6936600  11.5706350   5.2299350  18.3492970  13.8604590  18.6658670
  19.1505700  14.1816640  19.0794070  17.8344790  13.5000170  19.3878580
  27.1857600   9.9684460  18.6134080  26.5795760   9.9916060  17.8729830
  26.8811710   9.2367500  19.1501330  28.6157970  13.6964750  17.2243490
  29.5679720  13.6122770  17.1743730  28.4686190  14.3606460  17.8977280
  31.5067170  13.0758960   2.7235400  31.2208680  12.6624100   1.9089580
  31.3086720  14.0046670   2.6035920  16.0690780   6.3478050  17.6094720
  16.5729800   5.7685330  18.1810950  15.3298200   6.6318280  18.1471090
  23.1228720   7.7549040  17.1430240  22.3574390   8.3234040  17.0584910
  23.3044680   7.4625250  16.2498470  26.2117130   8.1312270   1.7683000
  25.6627230   8.5781570   2.4125740  26.8336390   7.6261520   2.2920670
  30.2652070   9.4854370  17.7005260  31.0061540   9.8230130  17.1972720
  29.5024750   9.6546430  17.1475030  18.1013860   4.4907640  18.5044790
  18.1419200   4.1921510  19.4130020  18.9559360   4.8915250  18.3452310
  21.8792250   7.0903190   3.6648300  22.3008670   6.9243060   4.5079690
  22.0043090   6.2803420   3.1703440  20.0419670   3.0699740  16.4719280
  19.5116130   2.5790690  15.8442620  20.7107740   3.4983940  15.9377210
  28.9397730   7.5369200  16.2360470  29.3538750   7.6914280  17.0850890
  28.0048730   7.6624420  16.3986250  29.4119900   4.8765360  18.2399620
  29.9940670   4.1217680  18.1520100  29.5881670   5.4072800  17.4631100
  23.7012960   7.4889680  14.2056400  24.1201070   8.3322410  14.0332640
  22.7821590   7.6261720  13.9763180  26.0376860   5.2205860  15.5894240
  26.1573070   4.6247000  16.3289080  26.8970860   5.2575550  15.1695540
  28.3764760   5.7743050  14.1656750  27.8499980   6.2985670  13.5621890
  28.7196100   6.4070440  14.7966480  21.5520380  13.7942690  15.3214130
  21.0141470  14.5188750  15.0022830  21.8054340  13.3173030  14.5311470
  24.4082590  15.0293900  15.5800780  24.3341290  15.9329040  15.8873150
  23.5061430  14.7105800  15.5522850  24.9567920  14.1952410   3.2027140
  25.8518710  14.5337380   3.2245900  24.9885550  13.4731820   2.5751420
  15.8109880  12.3568490   8.8834400  16.1412890  11.4889550   8.6513040
  16.2400880  12.5627010   9.7139360  20.4071800  10.6877500   6.5436370
  20.1067340  10.5642470   7.4440280  20.3009290   9.8286090   6.1352100
  16.3000090  13.2239080  11.6216030  15.8631080  13.4039880  12.4540180
  16.8677770  13.9813700  11.4797750  31.9362270  12.7256080  15.9093340
  31.3364260  12.7848640  15.1657260  32.0656170  11.7861060  16.0390190
  32.6320180   7.2121380   3.7497250  33.3939090   7.7818030   3.8556940
  32.6474550   6.6448580   4.5205560  16.1324520   5.7359310   7.9804910
  15.4773360   5.4670950   7.3364610  16.9702470   5.6263790   7.5306890
  33.6380150   8.0671480   8.5939180  34.0088980   7.2838800   8.1875150
  34.2782080   8.7560580   8.4156480  30.6213910   9.4508060  14.0069500
  29.8073750   9.8805220  14.2695290  31.0288110  10.0626470  13.3938550
  32.5804690   5.4424740   5.8999200  32.2048290   4.6752670   5.4680490
  31.8507810   5.8247440   6.3874130  17.1700450   6.1211880  12.5208250
  17.5373490   6.0339280  13.4004270  16.6011270   5.3578430  12.4215110
  31.9704310   4.5896260  15.5338720  31.7390400   4.3609010  14.6336670
  32.2308860   5.5095810  15.4883610  16.7216450   3.0320970  16.4266670
  15.8272500   2.9987730  16.7660380  17.2614000   3.2307760  17.1917920
  15.3462600   2.9458240   3.9230240  14.4426680   3.2088440   3.7481900
  15.8303220   3.2169410   3.1430200  31.8555650   3.6682230   9.2006440
  32.3793130   3.1744880   8.5696610  32.4415070   3.8032590   9.9454010
  32.0345370   3.7522100  12.7225990  31.0848080   3.7185640  12.8370980
  32.2158380   4.6622210  12.4875760  31.3455620   2.9255580   5.1398850
  31.8414740   2.6926450   5.9247730  31.1471690   2.0867420   4.7236490
  30.6789960  14.2026660   7.5337770  31.2749030  13.8811230   6.8572190
  30.9368110  13.7298480   8.3251040  18.5852530  10.6344570  17.6828400
  18.5422160  10.2637480  18.5642860  18.7163540  11.5722140  17.8230220
  22.2858560  12.1904160  13.2838120  22.0449920  12.4578720  12.3968640
  23.2261200  12.3609890  13.3388980  33.5462720  14.2098540  14.0848760
  33.0521000  14.6067410  13.3675890  32.9376010  13.5847750  14.4786040
  18.4240560  13.5806820  14.8026180  17.8300880  13.4491520  15.5416220
  18.4164400  12.7444960  14.3368280  31.2302170  14.8521960  11.3635500
  30.7705140  15.6037770  10.9893520  30.6014630  14.1328430  11.3050300
  18.0552790  10.9465200  13.7534220  17.3286850  10.3270490  13.6860170
  18.1161940  11.3405810  12.8832300  21.6597890  13.1610200  10.5383630
  22.1762910  12.5497560  10.0131890  22.3095270  13.6638980  11.0294640
  24.3993390  14.0518690  11.3652610  24.6871200  13.7972990  10.4885620
  24.9116610  13.4996050  11.9558180  16.3382790  14.2639590   6.9630980
  16.1704830  13.6310270   7.6612870  15.4717300  14.4698990   6.6125170
  17.9445490  12.9572820   4.4081120  17.4193110  13.3380850   3.7043080
  17.8690070  13.5823590   5.1290830  24.4665750  14.9734790  18.7320810
  25.3933060  14.7379060  18.7756770  24.4516180  15.8006790  18.2506840
  32.7010810  14.5160360   5.7295060  32.8763000  13.8298100   5.0855980
  32.0032380  15.0407410   5.3371730  20.5438460  14.9055200   3.2830370
  21.2757280  14.6214480   2.7354260  20.8032130  14.6668480   4.1729750
  19.7053250  11.0219930   3.2876700  19.0762130  11.4905030   3.8362530
  19.8201080  10.1769150   3.7222890  31.0343310  14.2004650  18.5561850
  31.8268630  13.7053880  18.3487810  31.3276460  14.8794790  19.1637460
   8.3859480  61.3956060  45.7608370   8.3053530  60.4810670  45.4900080
   7.9723900  61.8923130  45.0548080   6.5177520  63.1735080  47.6417640
   5.7419620  62.6935520  47.9316210   7.1690450  62.4940730  47.4673800
   5.9586510  65.8492270  47.6487800   5.8894790  64.9082210  47.4876930
   6.7206370  65.9393680  48.2210370   6.9891680  58.6562650  47.8756730
   7.3656500  57.7834530  47.7630400   6.8911190  58.9921350  46.9847170
  10.7715800  56.1513090  44.8085070  11.5925420  55.6609660  44.8510550
  10.8049880  56.7410750  45.5616910   2.9604420  59.9974650  47.6699350
   3.4682640  60.4955620  48.3104370   3.4917660  59.2209850  47.4938710
  15.0615350  58.1679840  51.3728700  14.3567520  58.5561550  50.8543810
  15.3273270  58.8630130  51.9749630   7.6311610  64.7492520  43.4352670
   7.0128880  65.2141970  42.8715390   8.1434860  65.4420000  43.8522180
   2.4943370  64.2768390  50.1136270   2.1612750  64.9037310  50.7557340
   2.6710050  64.8030270  49.3337940  11.0077280  58.0913470  47.5812610
  10.3032850  58.3798360  48.1615720  11.3689440  58.9013580  47.2212170
  14.0764200  57.5368260  47.9721820  13.1289110  57.5707240  48.1037250
  14.4014190  58.3507210  48.3571180   4.6083740  53.8365440  46.2677810
   4.9158720  53.2812330  45.5513310   3.6784440  53.9709900  46.0850800
   9.5584240  64.4562570  49.8867880   9.9753030  64.2422680  49.0521340
  10.2824060  64.7135360  50.4576500   6.9964500  61.9014270  43.0037930
   6.0693780  61.8351650  43.2326400   7.1489320  62.8394400  42.8893170
   6.9833580  58.1731270  40.0005090   6.0437250  58.3345230  40.0857550
   7.3016840  58.8916950  39.4541080  13.5046340  62.8549790  49.9784120
  12.6764970  62.9242880  49.5034250  14.0996820  63.4404100  49.5099950
  11.0261790  63.4634570  43.5073180  10.4074210  63.1254120  42.8599480
  11.0086240  62.8194330  44.2152370  10.4688350  59.6419110  50.9238990
  10.0559530  60.4672820  51.1778980   9.7364300  59.0564150  50.7315350
   2.6021140  62.4279010  45.7857660   2.1978140  61.7156260  45.2903560
   2.6884260  62.0832250  46.6745700   3.0702840  66.1146570  47.9496870
   2.7731130  65.5092040  47.2704650   4.0202660  66.1523880  47.8386230
   9.2026490  62.7021380  40.5145930   9.6419770  61.8643810  40.3683750
   9.9154910  63.3350780  40.6010070  12.7843630  53.9564190  38.8286970
  12.4716290  54.0491020  39.7286040  13.5456100  54.5345220  38.7784400
  13.9944920  58.6935690  54.8061110  13.3789190  59.2015360  54.2776570
  13.6741340  57.7934020  54.7487050   6.0559240  57.5327580  52.2723300
   5.5938610  57.7410600  53.0843240   5.6537350  56.7186930  51.9693970
  11.0563750  58.7536530  53.4019960  10.2057340  58.4542280  53.7229030
  10.8965540  58.9978540  52.4903780   8.1513460  60.2538280  55.5018750
   8.4766870  59.4202030  55.1620980   8.9393790  60.7766800  55.6497080
   4.8848250  54.2869760  41.5493810   4.2602430  54.2829630  42.2747120
   4.7978370  53.4200720  41.1529780   3.8065330  55.2106390  48.5277580
   4.1037660  56.1169220  48.4469600   4.3550890  54.7225170  47.9137150
   8.7901410  59.7956000  42.9959880   8.1910300  60.5191800  42.8123500
   9.3381020  59.7332780  42.2136330   4.0002860  60.6878210  55.0629500
   3.9046460  59.7472940  54.9129900   4.8434840  60.9093280  54.6677570
   7.3966280  58.4319540  45.0263160   7.7895850  58.7491740  44.2131850
   7.7583130  57.5531420  45.1407680   7.9821420  61.0225290  49.1213940
   7.2502540  61.5312100  49.4704040   7.5845760  60.2055270  48.8202720
   4.4198810  57.6979490  47.5266430   4.4234870  57.2569440  46.6770970
   5.3149930  58.0196820  47.6338250   4.4818960  58.6991570  40.5173190
   4.6031780  58.6578050  41.4659010   4.0967470  59.5615720  40.3619920
   8.4447330  56.4758970  48.5336880   8.4620070  56.9267620  49.3778730
   8.1962910  55.5764610  48.7470320   3.4940460  61.0092710  39.9156490
   2.9257360  60.5610960  39.2892400   4.2029460  61.3685490  39.3821640
  11.8718080  53.8891150  54.3723260  12.1963850  53.1580810  54.8981240
  11.9074590  53.5704790  53.4704250   4.7206780  61.7581270  49.2731840
   5.0876910  61.2839840  50.0193180   4.5311840  62.6322840  49.6140180
   2.5106150  60.7989910  51.5916050   2.2063220  61.6781890  51.8166410
   3.4652610  60.8589700  51.6273490  11.7975920  64.0016260  47.9809290
  12.5175040  64.4971550  47.5905400  11.5957740  63.3234150  47.3363160
   7.2585860  55.3954220  42.1238680   6.4450470  54.8967390  42.0483990
   7.0647810  56.2352470  41.7075030   7.1794720  64.0725320  53.8678290
   7.1132030  63.1520990  53.6135880   6.5499860  64.1700760  54.5822930
   9.9734250  59.7673870  40.4200840  10.8613870  60.0791100  40.2452180
   9.9439340  58.8946120  40.0281420   1.7683000  62.0976890  55.6226960
   1.4683140  62.2434070  54.7254780   2.5394240  61.5382180  55.5300350
  12.2448520  61.0785710  39.8880700  12.1612240  61.5099930  39.0377140
  12.9642710  61.5384060  40.3207520  13.3222660  63.5353230  52.9650670
  12.5970850  64.1282010  52.7680060  13.8498120  63.5276770  52.1664040
   8.8522250  65.2613400  46.4634520   9.2046070  64.6641530  45.8035890
   7.9684580  64.9357630  46.6342770   4.2412740  63.0257120  43.4830290
   4.6975520  63.8362370  43.7090480   3.8900950  62.7080260  44.3148780
  11.2449400  64.7416370  40.8153340  10.9571100  65.2029060  41.6031220
  12.0401570  64.2814140  41.0837560   8.6357230  57.6208200  51.1660960
   9.0038050  56.8003410  51.4940530   7.7755430  57.6810090  51.5816610
  12.0019260  56.5765140  41.9748520  11.3732420  56.6810810  41.2606750
  11.5071180  56.7961920  42.7642400   3.9703290  58.8551090  43.3906400
   3.2619440  59.3237430  43.8320010   4.2547770  58.1973100  44.0251590
   5.5959220  60.2747790  51.3898930   6.0944470  60.7493610  52.0550780
   5.7382170  59.3511310  51.5968960   8.0018720  55.5801750  44.8302190
   7.8786500  55.5987880  43.8811700   8.9503280  55.6280690  44.9500590
   2.1738310  57.1636170  40.7657110   3.0228840  57.6006320  40.6997300
   1.8069580  57.4756430  41.5929170  12.8026080  56.4915750  52.2327320
  12.2999680  57.2321150  52.5721130  13.6182740  56.8799750  51.9164110
  11.0948090  61.7348930  45.6788680  10.1538230  61.7499160  45.8536370
  11.4092160  60.9484890  46.1248980   4.1970910  65.3922710  38.7127990
   4.0921550  64.7775060  39.4389370   4.0295130  64.8688600  37.9291000
   4.3485230  64.0779510  54.6917220   3.5830900  64.6464510  54.6071890
   4.5301190  63.7855720  53.7985450   7.4373640  64.4542740  39.3169980
   6.8883740  64.9012040  39.9612720   8.0592900  63.9491990  39.8407650
  11.4908580  65.8084840  55.2492240  12.2318050  66.1460600  54.7459700
  10.7281260  65.9776900  54.6962010   3.1048760  63.4133660  41.2135280
   3.5265180  63.2473530  42.0566670   3.2299600  62.6033890  40.7190420
   5.6176400  62.4371270  38.4612380   6.1382060  61.7220290  38.0953530
   6.2644800  63.0757140  38.7612890  10.1654240  63.8599670  53.7847450
  10.5795260  64.0144750  54.6337870   9.2305240  63.9854890  53.9473230
   4.5209920  54.9165820  51.1330940   4.0727220  54.9390080  50.2876490
   3.8875120  54.5184840  51.7301240   4.9269470  63.8120150  51.7543380
   5.3457580  64.6552880  51.5819620   4.0078100  63.9492190  51.5250160
   7.2633370  61.5436330  53.1381220   7.3829580  60.9477470  53.8776060
   8.1227370  61.5806020  52.7182520   9.6021270  62.0973520  51.7143730
   9.0756490  62.6216140  51.1108870   9.9452610  62.7300910  52.3453460
   2.0007660  59.4866890  38.1593440   1.7996720  58.6234250  38.5206780
   1.8299710  59.4000250  37.2215040   4.0302140  58.0857680  54.3957040
   4.6201830  57.7773530  55.0834860   3.2122380  57.6137430  54.5516940
   8.8495570  57.7023490  54.6290060   8.1611090  57.0405030  54.5640050
   9.5701590  57.2561760  55.0738520   9.4795970  54.2975120  40.6880320
   9.7598260  53.4543020  41.0439740   8.7061700  54.5298230  41.2019070
   4.0175390  55.5302130  39.1327520   3.6697390  54.8526120  38.5529970
   4.2188160  55.0691640  39.9470910  13.8576690  63.5351850  41.2984230
  14.6195600  64.1048500  41.4043920  13.8731060  62.9679050  42.0692540
  14.8636660  64.3901950  46.1426160  15.2345490  63.6069270  45.7362130
  15.5038590  65.0791050  45.9643460  11.8470420  65.7738530  51.5556480
  11.0330260  66.2035690  51.8182270  12.2544620  66.3856940  50.9425530
  13.9095860  63.8286220  38.4556750  14.1844700  64.7365100  38.3275970
  13.7206600  63.7648750  39.3918740  10.3071470  56.8531070  39.7510380
  10.7256350  56.6662050  38.9107040  10.0007530  56.0010120  40.0613310
  13.8061200  61.7655210  43.4486180  13.4304800  60.9983140  43.0167470
  13.0764320  62.1477910  43.9361110  13.1960820  60.9126730  53.0825700
  12.9646910  60.6839480  52.1823650  13.4565370  61.8326280  53.0370590
  13.0812160  59.9912700  46.7493420  13.6049640  59.4975350  46.1183590
  13.6671580  60.1263060  47.4940990  13.2601880  60.0752570  50.2712970
  12.3104590  60.0416110  50.3857960  13.4414890  60.9852680  50.0362740
  12.5712130  59.2486050  42.6885830  13.0671250  59.0156920  43.4734710
  12.3728200  58.4097890  42.2723470  13.9999290  57.8847000  45.2223510
  13.8898570  57.7303040  46.1605780  14.7606880  57.3567940  44.9798920
  12.3465010  53.8241130  51.6806510  12.9837230  54.4375270  52.0465700
  12.4939900  53.8601790  50.7355740  14.8889560  55.7154920  38.4629650
  15.8138870  55.5836100  38.2547940  14.8665350  55.7947740  39.4166100
  14.9628050  56.4865580  41.0886360  14.1679550  56.4210700  41.6179270
  15.1671330  57.4216220  41.0771710   5.7169490  54.9767320  54.5881610
   5.6558380  55.5689150  55.3377020   6.6569870  54.8693280  54.4431870
   8.3544050  54.6337380  54.2273900   8.9684460  54.9516670  53.5654980
   8.8993610  54.1485970  54.8469760   9.0952090  53.1969520  50.5543190
   8.2211930  53.5304630  50.3516120   8.9862840  52.7242700  51.3795060
  10.0024070  55.4040390  51.9384910   9.6737430  54.5892150  51.5586640
  10.9506370  55.3610200  51.8150600   6.8426910  54.1139360  49.4936100
   6.0598700  54.5884860  49.7732860   6.5489840  53.2094190  49.3849280
  11.3947980  54.8162460  47.5385190  11.8356070  54.7607560  46.6906790
  11.1255570  55.7320470  47.6095370  13.2586550  54.4477700  45.5494010
  13.1974950  53.5038920  45.4025030  14.0378580  54.5557790  46.0947470
   4.7281130  56.5326110  45.0052130   3.9155640  56.1583000  44.6648010
   5.2322770  55.7771190  45.3073320   9.2306110  53.1968560  46.2435200
   9.8335480  53.7688770  46.7183720   8.4899100  53.7608000  46.0209100
  12.3740710  53.5990120  41.5175480  12.5691340  54.4973570  41.7842910
  11.5870580  53.3677200  42.0108430   2.7530310  54.6826030  43.6097180
   2.1233050  53.9813340  43.7767310   2.2135450  55.4430160  43.3930340
   8.3859480  61.3956060  26.9864880   8.3053530  60.4810670  26.7156590
   7.9723900  61.8923130  26.2804590   6.5177520  63.1735080  28.8674150
   5.7419620  62.6935520  29.1572720   7.1690450  62.4940730  28.6930310
   5.9586510  65.8492270  28.8744310   5.8894790  64.9082210  28.7133440
   6.7206370  65.9393680  29.4466880   6.9891680  58.6562650  29.1013240
   7.3656500  57.7834530  28.9886910   6.8911190  58.9921350  28.2103680
  10.7715800  56.1513090  26.0341580  11.5925420  55.6609660  26.0767060
  10.8049880  56.7410750  26.7873420   2.9604420  59.9974650  28.8955860
   3.4682640  60.4955620  29.5360880   3.4917660  59.2209850  28.7195220
  15.0615350  58.1679840  32.5985210  14.3567520  58.5561550  32.0800320
  15.3273270  58.8630130  33.2006140   7.6311610  64.7492520  24.6609180
   7.0128880  65.2141970  24.0971900   8.1434860  65.4420000  25.0778690
   2.4943370  64.2768390  31.3392780   2.1612750  64.9037310  31.9813850
   2.6710050  64.8030270  30.5594450  11.0077280  58.0913470  28.8069120
  10.3032850  58.3798360  29.3872230  11.3689440  58.9013580  28.4468680
  14.0764200  57.5368260  29.1978330  13.1289110  57.5707240  29.3293760
  14.4014190  58.3507210  29.5827690   4.6083740  53.8365440  27.4934320
   4.9158720  53.2812330  26.7769820   3.6784440  53.9709900  27.3107310
   9.5584240  64.4562570  31.1124390   9.9753030  64.2422680  30.2777850
  10.2824060  64.7135360  31.6833010   6.9964500  61.9014270  24.2294440
   6.0693780  61.8351650  24.4582910   7.1489320  62.8394400  24.1149680
   6.9833580  58.1731270  21.2261600   6.0437250  58.3345230  21.3114060
   7.3016840  58.8916950  20.6797590  13.5046340  62.8549790  31.2040630
  12.6764970  62.9242880  30.7290760  14.0996820  63.4404100  30.7356460
  11.0261790  63.4634570  24.7329690  10.4074210  63.1254120  24.0855990
  11.0086240  62.8194330  25.4408880  10.4688350  59.6419110  32.1495500
  10.0559530  60.4672820  32.4035490   9.7364300  59.0564150  31.9571860
   2.6021140  62.4279010  27.0114170   2.1978140  61.7156260  26.5160070
   2.6884260  62.0832250  27.9002210   3.0702840  66.1146570  29.1753380
   2.7731130  65.5092040  28.4961160   4.0202660  66.1523880  29.0642740
   9.2026490  62.7021380  21.7402440   9.6419770  61.8643810  21.5940260
   9.9154910  63.3350780  21.8266580  12.7843630  53.9564190  20.0543480
  12.4716290  54.0491020  20.9542550  13.5456100  54.5345220  20.0040910
  13.9944920  58.6935690  36.0317620  13.3789190  59.2015360  35.5033080
  13.6741340  57.7934020  35.9743560   6.0559240  57.5327580  33.4979810
   5.5938610  57.7410600  34.3099750   5.6537350  56.7186930  33.1950480
  11.0563750  58.7536530  34.6276470  10.2057340  58.4542280  34.9485540
  10.8965540  58.9978540  33.7160290   8.1513460  60.2538280  36.7275260
   8.4766870  59.4202030  36.3877490   8.9393790  60.7766800  36.8753590
   4.8848250  54.2869760  22.7750320   4.2602430  54.2829630  23.5003630
   4.7978370  53.4200720  22.3786290   3.8065330  55.2106390  29.7534090
   4.1037660  56.1169220  29.6726110   4.3550890  54.7225170  29.1393660
   8.7901410  59.7956000  24.2216390   8.1910300  60.5191800  24.0380010
   9.3381020  59.7332780  23.4392840   4.0002860  60.6878210  36.2886010
   3.9046460  59.7472940  36.1386410   4.8434840  60.9093280  35.8934080
   7.3966280  58.4319540  26.2519670   7.7895850  58.7491740  25.4388360
   7.7583130  57.5531420  26.3664190   5.7058450  57.1826850  37.5116530
   5.0156770  56.9899050  38.1462620   6.4490750  57.4661490  38.0440830
   7.9821420  61.0225290  30.3470450   7.2502540  61.5312100  30.6960550
   7.5845760  60.2055270  30.0459230   4.4198810  57.6979490  28.7522940
   4.4234870  57.2569440  27.9027480   5.3149930  58.0196820  28.8594760
   4.4818960  58.6991570  21.7429700   4.6031780  58.6578050  22.6915520
   4.0967470  59.5615720  21.5876430   8.4447330  56.4758970  29.7593390
   8.4620070  56.9267620  30.6035240   8.1962910  55.5764610  29.9726830
   3.4940460  61.0092710  21.1413000   2.9257360  60.5610960  20.5148910
   4.2029460  61.3685490  20.6078150  11.8718080  53.8891150  35.5979770
  12.1963850  53.1580810  36.1237750  11.9074590  53.5704790  34.6960760
   4.7206780  61.7581270  30.4988350   5.0876910  61.2839840  31.2449690
   4.5311840  62.6322840  30.8396690   2.5106150  60.7989910  32.8172560
   2.2063220  61.6781890  33.0422920   3.4652610  60.8589700  32.8530000
  11.7975920  64.0016260  29.2065800  12.5175040  64.4971550  28.8161910
  11.5957740  63.3234150  28.5619670   7.2585860  55.3954220  23.3495190
   6.4450470  54.8967390  23.2740500   7.0647810  56.2352470  22.9331540
   7.1794720  64.0725320  35.0934800   7.1132030  63.1520990  34.8392390
   6.5499860  64.1700760  35.8079440   9.9734250  59.7673870  21.6457350
  10.8613870  60.0791100  21.4708690   9.9439340  58.8946120  21.2537930
   1.7683000  62.0976890  36.8483470   1.4683140  62.2434070  35.9511290
   2.5394240  61.5382180  36.7556860  12.2448520  61.0785710  21.1137210
  12.1612240  61.5099930  20.2633650  12.9642710  61.5384060  21.5464030
  13.3222660  63.5353230  34.1907180  12.5970850  64.1282010  33.9936570
  13.8498120  63.5276770  33.3920550   8.8522250  65.2613400  27.6891030
   9.2046070  64.6641530  27.0292400   7.9684580  64.9357630  27.8599280
   4.2412740  63.0257120  24.7086800   4.6975520  63.8362370  24.9346990
   3.8900950  62.7080260  25.5405290  11.2449400  64.7416370  22.0409850
  10.9571100  65.2029060  22.8287730  12.0401570  64.2814140  22.3094070
   8.6357230  57.6208200  32.3917470   9.0038050  56.8003410  32.7197040
   7.7755430  57.6810090  32.8073120  12.0019260  56.5765140  23.2005030
  11.3732420  56.6810810  22.4863260  11.5071180  56.7961920  23.9898910
   3.9703290  58.8551090  24.6162910   3.2619440  59.3237430  25.0576520
   4.2547770  58.1973100  25.2508100   5.5959220  60.2747790  32.6155440
   6.0944470  60.7493610  33.2807290   5.7382170  59.3511310  32.8225470
   8.0018720  55.5801750  26.0558700   7.8786500  55.5987880  25.1068210
   8.9503280  55.6280690  26.1757100   2.1738310  57.1636170  21.9913620
   3.0228840  57.6006320  21.9253810   1.8069580  57.4756430  22.8185680
  12.8026080  56.4915750  33.4583830  12.2999680  57.2321150  33.7977640
  13.6182740  56.8799750  33.1420620  11.0948090  61.7348930  26.9045190
  10.1538230  61.7499160  27.0792880  11.4092160  60.9484890  27.3505490
   8.4114110  66.2914930  37.3877570   7.8052270  66.3146530  36.6473320
   8.1068220  65.5597970  37.9244820   4.1970910  65.3922710  19.9384500
   4.0921550  64.7775060  20.6645880   4.0295130  64.8688600  19.1547510
   4.3485230  64.0779510  35.9173730   3.5830900  64.6464510  35.8328400
   4.5301190  63.7855720  35.0241960   7.4373640  64.4542740  20.5426490
   6.8883740  64.9012040  21.1869230   8.0592900  63.9491990  21.0664160
  11.4908580  65.8084840  36.4748750  12.2318050  66.1460600  35.9716210
  10.7281260  65.9776900  35.9218520   3.1048760  63.4133660  22.4391790
   3.5265180  63.2473530  23.2823180   3.2299600  62.6033890  21.9446930
   5.6176400  62.4371270  19.6868890   6.1382060  61.7220290  19.3210040
   6.2644800  63.0757140  19.9869400  10.1654240  63.8599670  35.0103960
  10.5795260  64.0144750  35.8594380   9.2305240  63.9854890  35.1729740
  10.6376410  61.1995830  37.0143110  11.2197180  60.4448150  36.9263590
  10.8138180  61.7303270  36.2374590   4.5209920  54.9165820  32.3587450
   4.0727220  54.9390080  31.5133000   3.8875120  54.5184840  32.9557750
   4.9269470  63.8120150  32.9799890   5.3457580  64.6552880  32.8076130
   4.0078100  63.9492190  32.7506670   7.2633370  61.5436330  34.3637730
   7.3829580  60.9477470  35.1032570   8.1227370  61.5806020  33.9439030
   9.6021270  62.0973520  32.9400240   9.0756490  62.6216140  32.3365380
   9.9452610  62.7300910  33.5709970   2.0007660  59.4866890  19.3849950
   1.7996720  58.6234250  19.7463290   1.8299710  59.4000250  18.4471550
   4.0302140  58.0857680  35.6213550   4.6201830  57.7773530  36.3091370
   3.2122380  57.6137430  35.7773450   8.8495570  57.7023490  35.8546570
   8.1611090  57.0405030  35.7896560   9.5701590  57.2561760  36.2995030
   9.4795970  54.2975120  21.9136830   9.7598260  53.4543020  22.2696250
   8.7061700  54.5298230  22.4275580   4.0175390  55.5302130  20.3584030
   3.6697390  54.8526120  19.7786480   4.2188160  55.0691640  21.1727420
  13.8576690  63.5351850  22.5240740  14.6195600  64.1048500  22.6300430
  13.8731060  62.9679050  23.2949050  14.8636660  64.3901950  27.3682670
  15.2345490  63.6069270  26.9618640  15.5038590  65.0791050  27.1899970
  11.8470420  65.7738530  32.7812990  11.0330260  66.2035690  33.0438780
  12.2544620  66.3856940  32.1682040  13.9095860  63.8286220  19.6813260
  14.1844700  64.7365100  19.5532480  13.7206600  63.7648750  20.6175250
  10.3071470  56.8531070  20.9766890  10.7256350  56.6662050  20.1363550
  10.0007530  56.0010120  21.2869820  13.8061200  61.7655210  24.6742690
  13.4304800  60.9983140  24.2423980  13.0764320  62.1477910  25.1617620
  13.1960820  60.9126730  34.3082210  12.9646910  60.6839480  33.4080160
  13.4565370  61.8326280  34.2627100  11.6348890  56.1383160  37.0861910
  12.5119070  56.1466560  37.4695910  11.6469730  55.4014000  36.4754260
  13.0812160  59.9912700  27.9749930  13.6049640  59.4975350  27.3440100
  13.6671580  60.1263060  28.7197500  13.2601880  60.0752570  31.4969480
  12.3104590  60.0416110  31.6114470  13.4414890  60.9852680  31.2619250
  12.5712130  59.2486050  23.9142340  13.0671250  59.0156920  24.6991220
  12.3728200  58.4097890  23.4979980  13.9999290  57.8847000  26.4480020
  13.8898570  57.7303040  27.3862290  14.7606880  57.3567940  26.2055430
  12.3465010  53.8241130  32.9063020  12.9837230  54.4375270  33.2722210
  12.4939900  53.8601790  31.9612250  14.8889560  55.7154920  19.6886160
  15.8138870  55.5836100  19.4804450  14.8665350  55.7947740  20.6422610
  14.9628050  56.4865580  22.3142870  14.1679550  56.4210700  22.8435780
  15.1671330  57.4216220  22.3028220   5.7169490  54.9767320  35.8138120
   5.6558380  55.5689150  36.5633530   6.6569870  54.8693280  35.6688380
   8.3544050  54.6337380  35.4530410   8.9684460  54.9516670  34.7911490
   8.8993610  54.1485970  36.0726270   9.0952090  53.1969520  31.7799700
   8.2211930  53.5304630  31.5772630   8.9862840  52.7242700  32.6051570
  10.0024070  55.4040390  33.1641420   9.6737430  54.5892150  32.7843150
  10.9506370  55.3610200  33.0407110   6.8426910  54.1139360  30.7192610
   6.0598700  54.5884860  30.9989370   6.5489840  53.2094190  30.6105790
  11.3947980  54.8162460  28.7641700  11.8356070  54.7607560  27.9163300
  11.1255570  55.7320470  28.8351880  13.2586550  54.4477700  26.7750520
  13.1974950  53.5038920  26.6281540  14.0378580  54.5557790  27.3203980
   4.7281130  56.5326110  26.2308640   3.9155640  56.1583000  25.8904520
   5.2322770  55.7771190  26.5329830   9.2306110  53.1968560  27.4691710
   9.8335480  53.7688770  27.9440230   8.4899100  53.7608000  27.2465610
  12.3740710  53.5990120  22.7431990  12.5691340  54.4973570  23.0099420
  11.5870580  53.3677200  23.2364940   2.7530310  54.6826030  24.8353690
   2.1233050  53.9813340  25.0023820   2.2135450  55.4430160  24.6186850
   2.8785870  53.9610010  37.2706180   2.5970140  54.4643610  36.5067000
   3.2605570  53.1631760  36.9048310   9.4801330  53.3763590  37.8486650
   9.3666780  53.6958200  38.7438170  10.2971070  53.7776100  37.5523930
   8.3859480  61.3956060   8.2121390   8.3053530  60.4810670   7.9413100
   7.9723900  61.8923130   7.5061100   6.5177520  63.1735080  10.0930660
   5.7419620  62.6935520  10.3829230   7.1690450  62.4940730   9.9186820
   5.9586510  65.8492270  10.1000820   5.8894790  64.9082210   9.9389950
   6.7206370  65.9393680  10.6723390   6.9891680  58.6562650  10.3269750
   7.3656500  57.7834530  10.2143420   6.8911190  58.9921350   9.4360190
  10.7715800  56.1513090   7.2598090  11.5925420  55.6609660   7.3023570
  10.8049880  56.7410750   8.0129930   2.9604420  59.9974650  10.1212370
   3.4682640  60.4955620  10.7617390   3.4917660  59.2209850   9.9451730
  15.0615350  58.1679840  13.8241720  14.3567520  58.5561550  13.3056830
  15.3273270  58.8630130  14.4262650   7.6311610  64.7492520   5.8865690
   7.0128880  65.2141970   5.3228410   8.1434860  65.4420000   6.3035200
   2.4943370  64.2768390  12.5649290   2.1612750  64.9037310  13.2070360
   2.6710050  64.8030270  11.7850960  11.0077280  58.0913470  10.0325630
  10.3032850  58.3798360  10.6128740  11.3689440  58.9013580   9.6725190
  14.0764200  57.5368260  10.4234840  13.1289110  57.5707240  10.5550270
  14.4014190  58.3507210  10.8084200   4.6083740  53.8365440   8.7190830
   4.9158720  53.2812330   8.0026330   3.6784440  53.9709900   8.5363820
   9.5584240  64.4562570  12.3380900   9.9753030  64.2422680  11.5034360
  10.2824060  64.7135360  12.9089520   6.9964500  61.9014270   5.4550950
   6.0693780  61.8351650   5.6839420   7.1489320  62.8394400   5.3406190
   6.9833580  58.1731270   2.4518110   6.0437250  58.3345230   2.5370570
   7.3016840  58.8916950   1.9054100  13.5046340  62.8549790  12.4297140
  12.6764970  62.9242880  11.9547270  14.0996820  63.4404100  11.9612970
  11.0261790  63.4634570   5.9586200  10.4074210  63.1254120   5.3112500
  11.0086240  62.8194330   6.6665390  10.4688350  59.6419110  13.3752010
  10.0559530  60.4672820  13.6292000   9.7364300  59.0564150  13.1828370
   2.6021140  62.4279010   8.2370680   2.1978140  61.7156260   7.7416580
   2.6884260  62.0832250   9.1258720   3.0702840  66.1146570  10.4009890
   2.7731130  65.5092040   9.7217670   4.0202660  66.1523880  10.2899250
   9.2026490  62.7021380   2.9658950   9.6419770  61.8643810   2.8196770
   9.9154910  63.3350780   3.0523090  13.9944920  58.6935690  17.2574130
  13.3789190  59.2015360  16.7289590  13.6741340  57.7934020  17.2000070
   6.0559240  57.5327580  14.7236320   5.5938610  57.7410600  15.5356260
   5.6537350  56.7186930  14.4206990  11.0563750  58.7536530  15.8532980
  10.2057340  58.4542280  16.1742050  10.8965540  58.9978540  14.9416800
   8.1513460  60.2538280  17.9531770   8.4766870  59.4202030  17.6134000
   8.9393790  60.7766800  18.1010100   4.8848250  54.2869760   4.0006830
   4.2602430  54.2829630   4.7260140   4.7978370  53.4200720   3.6042800
   3.8065330  55.2106390  10.9790600   4.1037660  56.1169220  10.8982620
   4.3550890  54.7225170  10.3650170   8.7901410  59.7956000   5.4472900
   8.1910300  60.5191800   5.2636520   9.3381020  59.7332780   4.6649350
   4.0002860  60.6878210  17.5142520   3.9046460  59.7472940  17.3642920
   4.8434840  60.9093280  17.1190590   7.3966280  58.4319540   7.4776180
   7.7895850  58.7491740   6.6644870   7.7583130  57.5531420   7.5920700
   5.7058450  57.1826850  18.7373040   5.0156770  56.9899050  19.3719130
   6.4490750  57.4661490  19.2697340   7.9821420  61.0225290  11.5726960
   7.2502540  61.5312100  11.9217060   7.5845760  60.2055270  11.2715740
   4.4198810  57.6979490   9.9779450   4.4234870  57.2569440   9.1283990
   5.3149930  58.0196820  10.0851270   4.4818960  58.6991570   2.9686210
   4.6031780  58.6578050   3.9172030   4.0967470  59.5615720   2.8132940
   8.4447330  56.4758970  10.9849900   8.4620070  56.9267620  11.8291750
   8.1962910  55.5764610  11.1983340   3.4940460  61.0092710   2.3669510
   2.9257360  60.5610960   1.7405420   4.2029460  61.3685490   1.8334660
  11.8718080  53.8891150  16.8236280  12.1963850  53.1580810  17.3494260
  11.9074590  53.5704790  15.9217270   4.7206780  61.7581270  11.7244860
   5.0876910  61.2839840  12.4706200   4.5311840  62.6322840  12.0653200
   2.5106150  60.7989910  14.0429070   2.2063220  61.6781890  14.2679430
   3.4652610  60.8589700  14.0786510  11.7975920  64.0016260  10.4322310
  12.5175040  64.4971550  10.0418420  11.5957740  63.3234150   9.7876180
   7.2585860  55.3954220   4.5751700   6.4450470  54.8967390   4.4997010
   7.0647810  56.2352470   4.1588050   7.1794720  64.0725320  16.3191310
   7.1132030  63.1520990  16.0648900   6.5499860  64.1700760  17.0335950
   9.9734250  59.7673870   2.8713860  10.8613870  60.0791100   2.6965200
   9.9439340  58.8946120   2.4794440   1.7683000  62.0976890  18.0739980
   1.4683140  62.2434070  17.1767800   2.5394240  61.5382180  17.9813370
  13.3222660  63.5353230  15.4163690  12.5970850  64.1282010  15.2193080
  13.8498120  63.5276770  14.6177060   8.8522250  65.2613400   8.9147540
   9.2046070  64.6641530   8.2548910   7.9684580  64.9357630   9.0855790
   4.2412740  63.0257120   5.9343310   4.6975520  63.8362370   6.1603500
   3.8900950  62.7080260   6.7661800  11.2449400  64.7416370   3.2666360
  10.9571100  65.2029060   4.0544240  12.0401570  64.2814140   3.5350580
   8.6357230  57.6208200  13.6173980   9.0038050  56.8003410  13.9453550
   7.7755430  57.6810090  14.0329630  12.0019260  56.5765140   4.4261540
  11.3732420  56.6810810   3.7119770  11.5071180  56.7961920   5.2155420
   3.9703290  58.8551090   5.8419420   3.2619440  59.3237430   6.2833030
   4.2547770  58.1973100   6.4764610   5.5959220  60.2747790  13.8411950
   6.0944470  60.7493610  14.5063800   5.7382170  59.3511310  14.0481980
   8.0018720  55.5801750   7.2815210   7.8786500  55.5987880   6.3324720
   8.9503280  55.6280690   7.4013610   2.1738310  57.1636170   3.2170130
   3.0228840  57.6006320   3.1510320   1.8069580  57.4756430   4.0442190
  12.8026080  56.4915750  14.6840340  12.2999680  57.2321150  15.0234150
  13.6182740  56.8799750  14.3677130  11.0948090  61.7348930   8.1301700
  10.1538230  61.7499160   8.3049390  11.4092160  60.9484890   8.5762000
   8.4114110  66.2914930  18.6134080   7.8052270  66.3146530  17.8729830
   8.1068220  65.5597970  19.1501330   4.3485230  64.0779510  17.1430240
   3.5830900  64.6464510  17.0584910   4.5301190  63.7855720  16.2498470
   7.4373640  64.4542740   1.7683000   6.8883740  64.9012040   2.4125740
   8.0592900  63.9491990   2.2920670  11.4908580  65.8084840  17.7005260
  12.2318050  66.1460600  17.1972720  10.7281260  65.9776900  17.1475030
   3.1048760  63.4133660   3.6648300   3.5265180  63.2473530   4.5079690
   3.2299600  62.6033890   3.1703440  10.1654240  63.8599670  16.2360470
  10.5795260  64.0144750  17.0850890   9.2305240  63.9854890  16.3986250
  10.6376410  61.1995830  18.2399620  11.2197180  60.4448150  18.1520100
  10.8138180  61.7303270  17.4631100   4.5209920  54.9165820  13.5843960
   4.0727220  54.9390080  12.7389510   3.8875120  54.5184840  14.1814260
   4.9269470  63.8120150  14.2056400   5.3457580  64.6552880  14.0332640
   4.0078100  63.9492190  13.9763180   7.2633370  61.5436330  15.5894240
   7.3829580  60.9477470  16.3289080   8.1227370  61.5806020  15.1695540
   9.6021270  62.0973520  14.1656750   9.0756490  62.6216140  13.5621890
   9.9452610  62.7300910  14.7966480   4.0302140  58.0857680  16.8470060
   4.6201830  57.7773530  17.5347880   3.2122380  57.6137430  17.0029960
   8.8495570  57.7023490  17.0803080   8.1611090  57.0405030  17.0153070
   9.5701590  57.2561760  17.5251540   9.4795970  54.2975120   3.1393340
   9.7598260  53.4543020   3.4952760   8.7061700  54.5298230   3.6532090
  13.8576690  63.5351850   3.7497250  14.6195600  64.1048500   3.8556940
  13.8731060  62.9679050   4.5205560  14.8636660  64.3901950   8.5939180
  15.2345490  63.6069270   8.1875150  15.5038590  65.0791050   8.4156480
  11.8470420  65.7738530  14.0069500  11.0330260  66.2035690  14.2695290
  12.2544620  66.3856940  13.3938550  13.8061200  61.7655210   5.8999200
  13.4304800  60.9983140   5.4680490  13.0764320  62.1477910   6.3874130
  13.1960820  60.9126730  15.5338720  12.9646910  60.6839480  14.6336670
  13.4565370  61.8326280  15.4883610  11.6348890  56.1383160  18.3118420
  12.5119070  56.1466560  18.6952420  11.6469730  55.4014000  17.7010770
  13.0812160  59.9912700   9.2006440  13.6049640  59.4975350   8.5696610
  13.6671580  60.1263060   9.9454010  13.2601880  60.0752570  12.7225990
  12.3104590  60.0416110  12.8370980  13.4414890  60.9852680  12.4875760
  12.5712130  59.2486050   5.1398850  13.0671250  59.0156920   5.9247730
  12.3728200  58.4097890   4.7236490  13.9999290  57.8847000   7.6736530
  13.8898570  57.7303040   8.6118800  14.7606880  57.3567940   7.4311940
  12.3465010  53.8241130  14.1319530  12.9837230  54.4375270  14.4978720
  12.4939900  53.8601790  13.1868760  14.9628050  56.4865580   3.5399380
  14.1679550  56.4210700   4.0692290  15.1671330  57.4216220   3.5284730
   5.7169490  54.9767320  17.0394630   5.6558380  55.5689150  17.7890040
   6.6569870  54.8693280  16.8944890   8.3544050  54.6337380  16.6786920
   8.9684460  54.9516670  16.0168000   8.8993610  54.1485970  17.2982780
   9.0952090  53.1969520  13.0056210   8.2211930  53.5304630  12.8029140
   8.9862840  52.7242700  13.8308080  10.0024070  55.4040390  14.3897930
   9.6737430  54.5892150  14.0099660  10.9506370  55.3610200  14.2663620
   6.8426910  54.1139360  11.9449120   6.0598700  54.5884860  12.2245880
   6.5489840  53.2094190  11.8362300  11.3947980  54.8162460   9.9898210
  11.8356070  54.7607560   9.1419810  11.1255570  55.7320470  10.0608390
  13.2586550  54.4477700   8.0007030  13.1974950  53.5038920   7.8538050
  14.0378580  54.5557790   8.5460490   4.7281130  56.5326110   7.4565150
   3.9155640  56.1583000   7.1161030   5.2322770  55.7771190   7.7586340
   9.2306110  53.1968560   8.6948220   9.8335480  53.7688770   9.1696740
   8.4899100  53.7608000   8.4722120  12.3740710  53.5990120   3.9688500
  12.5691340  54.4973570   4.2355930  11.5870580  53.3677200   4.4621450
   2.7530310  54.6826030   6.0610200   2.1233050  53.9813340   6.2280330
   2.2135450  55.4430160   5.8443360   2.8785870  53.9610010  18.4962690
   2.5970140  54.4643610  17.7323510   3.2605570  53.1631760  18.1304820
   9.4801330  53.3763590  19.0743160   9.3666780  53.6958200  19.9694680
  10.2971070  53.7776100  18.7780440   8.3859480  42.6212570  45.7608370
   8.3053530  41.7067180  45.4900080   7.9723900  43.1179640  45.0548080
   6.5177520  44.3991590  47.6417640   5.7419620  43.9192030  47.9316210
   7.1690450  43.7197240  47.4673800  10.5384950  48.8051780  46.4216770
  10.0766480  48.0339020  46.7503940  11.3510500  48.8317850  46.9269220
   6.7648260  51.0909790  46.0420760   6.1459700  51.5467290  45.4715200
   7.6200040  51.2461250  45.6410460   5.9586510  47.0748780  47.6487800
   5.8894790  46.1338720  47.4876930   6.7206370  47.1650190  48.2210370
   6.9891680  39.8819160  47.8756730   7.3656500  39.0091040  47.7630400
   6.8911190  40.2177860  46.9847170  10.7715800  37.3769600  44.8085070
  11.5925420  36.8866170  44.8510550  10.8049880  37.9667260  45.5616910
   2.9604420  41.2231160  47.6699350   3.4682640  41.7212130  48.3104370
   3.4917660  40.4466360  47.4938710  15.0615350  39.3936350  51.3728700
  14.3567520  39.7818060  50.8543810  15.3273270  40.0886640  51.9749630
   7.6311610  45.9749030  43.4352670   7.0128880  46.4398480  42.8715390
   8.1434860  46.6676510  43.8522180   2.4943370  45.5024900  50.1136270
   2.1612750  46.1293820  50.7557340   2.6710050  46.0286780  49.3337940
  11.0077280  39.3169980  47.5812610  10.3032850  39.6054870  48.1615720
  11.3689440  40.1270090  47.2212170  12.6240060  48.9345110  49.8440090
  11.9403580  49.6044220  49.8356760  13.1634350  49.1325760  49.0784950
  14.0764200  38.7624770  47.9721820  13.1289110  38.7963750  48.1037250
  14.4014190  39.5763720  48.3571180   4.6083740  35.0621950  46.2677810
   4.9158720  34.5068840  45.5513310   3.6784440  35.1966410  46.0850800
  10.1598800  50.7789240  48.5585270  10.1725960  50.3751530  47.6907530
   9.6074020  51.5536530  48.4546700  11.4544220  47.5005460  43.6475440
  11.3440550  46.5579790  43.7724860  11.4512470  47.8621100  44.5338200
   9.5584240  45.6819080  49.8867880   9.9753030  45.4679190  49.0521340
  10.2824060  45.9391870  50.4576500   6.9964500  43.1270780  43.0037930
   6.0693780  43.0608160  43.2326400   7.1489320  44.0650910  42.8893170
   6.9833580  39.3987780  40.0005090   6.0437250  39.5601740  40.0857550
   7.3016840  40.1173460  39.4541080  13.5046340  44.0806300  49.9784120
  12.6764970  44.1499390  49.5034250  14.0996820  44.6660610  49.5099950
  11.0261790  44.6891080  43.5073180  10.4074210  44.3510630  42.8599480
  11.0086240  44.0450840  44.2152370  10.4688350  40.8675620  50.9238990
  10.0559530  41.6929330  51.1778980   9.7364300  40.2820660  50.7315350
   2.6021140  43.6535520  45.7857660   2.1978140  42.9412770  45.2903560
   2.6884260  43.3088760  46.6745700   3.0702840  47.3403080  47.9496870
   2.7731130  46.7348550  47.2704650   4.0202660  47.3780390  47.8386230
  11.1588450  50.9134950  51.6119970  10.6819010  51.7207140  51.4192580
  10.4750240  50.2613280  51.7646180   9.2026490  43.9277890  40.5145930
   9.6419770  43.0900320  40.3683750   9.9154910  44.5607290  40.6010070
   7.3121870  48.8673960  44.4827170   7.7517780  49.6098290  44.0682560
   7.2508760  49.1100530  45.4066130   2.7872840  49.8919790  55.3847190
   2.7588270  50.2962740  54.5175620   2.6237810  48.9630150  55.2218790
  12.7843630  35.1820700  38.8286970  12.4716290  35.2747530  39.7286040
  13.5456100  35.7601730  38.7784400  14.1420910  47.8659740  53.8411370
  14.2683970  47.6271620  52.9228550  14.1842290  47.0344280  54.3133450
   8.0037650  51.5687740  52.4106180   8.5182320  51.4795750  53.2128610
   7.1606730  51.9147440  52.7034090   9.9792050  51.8543080  41.8390180
   9.8193190  51.5646020  42.7372010   9.8138760  51.0783210  41.3035410
   2.4580430  51.6341610  43.6161800   2.2822910  50.7177150  43.4029600
   1.6036170  51.9928900  43.8559600   9.6818180  49.3630640  40.3988180
   8.9883340  49.3607930  39.7390460  10.4241040  48.9389960  39.9682350
   9.2468110  50.9893350  44.4736670   9.7025060  50.2082730  44.7875290
   9.5860630  51.7000170  45.0177850  13.9944920  39.9192200  54.8061110
  13.3789190  40.4271870  54.2776570  13.6741340  39.0190530  54.7487050
   6.0559240  38.7584090  52.2723300   5.5938610  38.9667110  53.0843240
   5.6537350  37.9443440  51.9693970  11.0563750  39.9793040  53.4019960
  10.2057340  39.6798790  53.7229030  10.8965540  40.2235050  52.4903780
   8.1513460  41.4794790  55.5018750   8.4766870  40.6458540  55.1620980
   8.9393790  42.0023310  55.6497080   4.8848250  35.5126270  41.5493810
   4.2602430  35.5086140  42.2747120   4.7978370  34.6457230  41.1529780
   3.8065330  36.4362900  48.5277580   4.1037660  37.3425730  48.4469600
   4.3550890  35.9481680  47.9137150   8.7901410  41.0212510  42.9959880
   8.1910300  41.7448310  42.8123500   9.3381020  40.9589290  42.2136330
   4.0002860  41.9134720  55.0629500   3.9046460  40.9729450  54.9129900
   4.8434840  42.1349790  54.6677570   7.3966280  39.6576050  45.0263160
   7.7895850  39.9748250  44.2131850   7.7583130  38.7787930  45.1407680
   7.9821420  42.2481800  49.1213940   7.2502540  42.7568610  49.4704040
   7.5845760  41.4311780  48.8202720   4.4198810  38.9236000  47.5266430
   4.4234870  38.4825950  46.6770970   5.3149930  39.2453330  47.6338250
   4.4818960  39.9248080  40.5173190   4.6031780  39.8834560  41.4659010
   4.0967470  40.7872230  40.3619920   8.4447330  37.7015480  48.5336880
   8.4620070  38.1524130  49.3778730   8.1962910  36.8021120  48.7470320
   3.4940460  42.2349220  39.9156490   2.9257360  41.7867470  39.2892400
   4.2029460  42.5942000  39.3821640  11.8718080  35.1147660  54.3723260
  12.1963850  34.3837320  54.8981240  11.9074590  34.7961300  53.4704250
   4.7206780  42.9837780  49.2731840   5.0876910  42.5096350  50.0193180
   4.5311840  43.8579350  49.6140180   2.5106150  42.0246420  51.5916050
   2.2063220  42.9038400  51.8166410   3.4652610  42.0846210  51.6273490
  11.7975920  45.2272770  47.9809290  12.5175040  45.7228060  47.5905400
  11.5957740  44.5490660  47.3363160   7.2585860  36.6210730  42.1238680
   6.4450470  36.1223900  42.0483990   7.0647810  37.4608980  41.7075030
   7.1794720  45.2981830  53.8678290   7.1132030  44.3777500  53.6135880
   6.5499860  45.3957270  54.5822930   9.9734250  40.9930380  40.4200840
  10.8613870  41.3047610  40.2452180   9.9439340  40.1202630  40.0281420
   5.9694840  47.1654070  41.0989010   6.3110540  47.9096300  40.6032330
   5.1407550  47.4785190  41.4613840   1.7683000  43.3233400  55.6226960
   1.4683140  43.4690580  54.7254780   2.5394240  42.7638690  55.5300350
   7.1111450  48.1202400  53.6182090   7.1255990  47.1883360  53.4001000
   6.4036550  48.2062160  54.2571860  12.2448520  42.3042220  39.8880700
  12.1612240  42.7356440  39.0377140  12.9642710  42.7640570  40.3207520
  13.3222660  44.7609740  52.9650670  12.5970850  45.3538520  52.7680060
  13.8498120  44.7533280  52.1664040  13.2735770  49.1584480  42.6162830
  12.6311930  48.5040100  42.8906550  12.8866430  49.5639570  41.8403500
   8.8522250  46.4869910  46.4634520   9.2046070  45.8898040  45.8035890
   7.9684580  46.1614140  46.6342770   4.9385530  47.2467600  43.8704930
   5.6256660  47.7936810  44.2512520   4.1517950  47.7908330  43.9054540
   4.2412740  44.2513630  43.4830290   4.6975520  45.0618880  43.7090480
   3.8900950  43.9336770  44.3148780   6.5445350  49.7619970  50.7122590
   7.1887570  49.9679350  51.3896010   6.9074790  49.0008370  50.2593440
   7.8177430  47.7652320  49.4300040   8.4599660  47.0645480  49.5432210
   8.3426780  48.5450760  49.2496930  11.6633150  48.0500940  39.1539180
  11.4370730  47.3331380  39.7463820  11.2729350  47.8013380  38.3160930
   9.5915050  48.5647220  52.6336100   9.9271290  49.1513910  53.3114020
   8.6715390  48.4339930  52.8633890  11.2449400  45.9672880  40.8153340
  10.9571100  46.4285570  41.6031220  12.0401570  45.5070650  41.0837560
   3.4617800  49.4599000  40.7457310   3.4527900  50.1928690  40.1301820
   2.5416160  49.2130580  40.8384270   8.6357230  38.8464710  51.1660960
   9.0038050  38.0259920  51.4940530   7.7755430  38.9066600  51.5816610
  12.0019260  37.8021650  41.9748520  11.3732420  37.9067320  41.2606750
  11.5071180  38.0218430  42.7642400   6.4477400  49.5227240  39.4082500
   6.5489380  49.3191230  38.4784480   5.5479140  49.2685520  39.6130280
   3.9703290  40.0807600  43.3906400   3.2619440  40.5493940  43.8320010
   4.2547770  39.4229610  44.0251590   5.5959220  41.5004300  51.3898930
   6.0944470  41.9750120  52.0550780   5.7382170  40.5767820  51.5968960
   8.0018720  36.8058260  44.8302190   7.8786500  36.8244390  43.8811700
   8.9503280  36.8537200  44.9500590   5.0895510  52.0413560  44.1030170
   5.3437010  52.0034950  43.1809540   4.1407990  51.9146890  44.0958420
   2.1738310  38.3892680  40.7657110   3.0228840  38.8262830  40.6997300
   1.8069580  38.7012940  41.5929170  12.8026080  37.7172260  52.2327320
  12.2999680  38.4577660  52.5721130  13.6182740  38.1056260  51.9164110
  11.0948090  42.9605440  45.6788680  10.1538230  42.9755670  45.8536370
  11.4092160  42.1741400  46.1248980  13.0973670  50.1314290  47.3542940
  13.2221090  50.9545460  47.8266750  13.9639230  49.9205020  47.0067090
   3.6793510  51.3975810  38.8485640   4.4722120  51.6864640  38.3967430
   3.1597860  50.9667980  38.1698120   9.8414480  51.2451730  54.7730470
  10.7936230  51.1609750  54.7230710   9.6942700  51.9093440  55.4464260
  12.7323680  50.6245940  40.2722380  12.4465190  50.2111080  39.4576560
  12.5343230  51.5533650  40.1522900   4.1970910  46.6179220  38.7127990
   4.0921550  46.0031570  39.4389370   4.0295130  46.0945110  37.9291000
   4.3485230  45.3036020  54.6917220   3.5830900  45.8721020  54.6071890
   4.5301190  45.0112230  53.7985450   7.4373640  45.6799250  39.3169980
   6.8883740  46.1268550  39.9612720   8.0592900  45.1748500  39.8407650
  11.4908580  47.0341350  55.2492240  12.2318050  47.3717110  54.7459700
  10.7281260  47.2033410  54.6962010   3.1048760  44.6390170  41.2135280
   3.5265180  44.4730040  42.0566670   3.2299600  43.8290400  40.7190420
   5.6176400  43.6627780  38.4612380   6.1382060  42.9476800  38.0953530
   6.2644800  44.3013650  38.7612890  10.1654240  45.0856180  53.7847450
  10.5795260  45.2401260  54.6337870   9.2305240  45.2111400  53.9473230
   4.5209920  36.1422330  51.1330940   4.0727220  36.1646590  50.2876490
   3.8875120  35.7441350  51.7301240   4.9269470  45.0376660  51.7543380
   5.3457580  45.8809390  51.5819620   4.0078100  45.1748700  51.5250160
   7.2633370  42.7692840  53.1381220   7.3829580  42.1733980  53.8776060
   8.1227370  42.8062530  52.7182520   9.6021270  43.3230030  51.7143730
   9.0756490  43.8472650  51.1108870   9.9452610  43.9557420  52.3453460
   2.0007660  40.7123400  38.1593440   1.7996720  39.8490760  38.5206780
   1.8299710  40.6256760  37.2215040   2.7776890  51.3429670  52.8701110
   2.2397980  52.0675730  52.5509810   3.0310850  50.8660010  52.0798450
   4.0302140  39.3114190  54.3957040   4.6201830  39.0030040  55.0834860
   3.2122380  38.8393940  54.5516940   8.8495570  38.9280000  54.6290060
   8.1611090  38.2661540  54.5640050   9.5701590  38.4818270  55.0738520
   9.4795970  35.5231630  40.6880320   9.7598260  34.6799530  41.0439740
   8.7061700  35.7554740  41.2019070   5.6339100  52.5780880  53.1287760
   5.5597800  53.4816020  53.4360130   4.7317940  52.2592780  53.1009830
   4.0175390  36.7558640  39.1327520   3.6697390  36.0782630  38.5529970
   4.2188160  36.2948150  39.9470910   6.1824430  51.7439390  40.7514120
   7.0775220  52.0824360  40.7732880   6.2142060  51.0218800  40.1238400
  13.1618780  50.2743060  53.4580320  12.5620770  50.3335620  52.7144240
  13.2912680  49.3348040  53.5877170  14.4020230  48.0160880  38.7950030
  13.5713190  48.0837530  39.2657260  14.5792060  48.9065000  38.4916890
  13.8576690  44.7608360  41.2984230  14.6195600  45.3305010  41.4043920
  13.8731060  44.1935560  42.0692540  14.8636660  45.6158460  46.1426160
  15.2345490  44.8325780  45.7362130  15.5038590  46.3047560  45.9643460
  11.8470420  46.9995040  51.5556480  11.0330260  47.4292200  51.8182270
  12.2544620  47.6113450  50.9425530  13.9095860  45.0542730  38.4556750
  14.1844700  45.9621610  38.3275970  13.7206600  44.9905260  39.3918740
  10.3071470  38.0787580  39.7510380  10.7256350  37.8918560  38.9107040
  10.0007530  37.2266630  40.0613310  13.8061200  42.9911720  43.4486180
  13.4304800  42.2239650  43.0167470  13.0764320  43.3734420  43.9361110
  13.1960820  42.1383240  53.0825700  12.9646910  41.9095990  52.1823650
  13.4565370  43.0582790  53.0370590  13.0812160  41.2169210  46.7493420
  13.6049640  40.7231860  46.1183590  13.6671580  41.3519570  47.4940990
  13.2601880  41.3009080  50.2712970  12.3104590  41.2672620  50.3857960
  13.4414890  42.2109190  50.0362740  12.5712130  40.4742560  42.6885830
  13.0671250  40.2413430  43.4734710  12.3728200  39.6354400  42.2723470
  13.9999290  39.1103510  45.2223510  13.8898570  38.9559550  46.1605780
  14.7606880  38.5824450  44.9798920  12.3465010  35.0497640  51.6806510
  12.9837230  35.6631780  52.0465700  12.4939900  35.0858300  50.7355740
  14.8889560  36.9411430  38.4629650  15.8138870  36.8092610  38.2547940
  14.8665350  37.0204250  39.4166100  14.9628050  37.7122090  41.0886360
  14.1679550  37.6467210  41.6179270  15.1671330  38.6472730  41.0771710
  11.9046470  51.7513640  45.0824750  12.5005540  51.4298210  44.4059170
  12.1624620  51.2785460  45.8738020   3.5115070  49.7391140  50.8325100
   3.2706430  50.0065700  49.9455620   4.4517710  49.9096870  50.8875960
   5.7169490  36.2023830  54.5881610   5.6558380  36.7945660  55.3377020
   6.6569870  36.0949790  54.4431870   8.3544050  35.8593890  54.2273900
   8.9684460  36.1773180  53.5654980   8.8993610  35.3742480  54.8469760
  14.7719230  51.7585520  51.6335740  14.2777510  52.1554390  50.9162870
  14.1632520  51.1334730  52.0273020   9.0952090  34.4226030  50.5543190
   8.2211930  34.7561140  50.3516120   8.9862840  33.9499210  51.3795060
  10.0024070  36.6296900  51.9384910   9.6737430  35.8148660  51.5586640
  10.9506370  36.5866710  51.8150600  12.4558680  52.4008940  48.9122480
  11.9961650  53.1524750  48.5380500  11.8271140  51.6815410  48.8537280
   2.8854400  50.7097180  48.0870610   3.4019420  50.0984540  47.5618870
   3.5351780  51.2125960  48.5781620   5.6249900  51.6005670  48.9139590
   5.9127710  51.3459970  48.0372600   6.1373120  51.0483030  49.5045160
   6.8426910  35.3395870  49.4936100   6.0598700  35.8141370  49.7732860
   6.5489840  34.4350700  49.3849280  11.3947980  36.0418970  47.5385190
  11.8356070  35.9864070  46.6906790  11.1255570  36.9576980  47.6095370
  13.2586550  35.6734210  45.5494010  13.1974950  34.7295430  45.4025030
  14.0378580  35.7814300  46.0947470   4.7281130  37.7582620  45.0052130
   3.9155640  37.3839510  44.6648010   5.2322770  37.0027700  45.3073320
   9.2306110  34.4225070  46.2435200   9.8335480  34.9945280  46.7183720
   8.4899100  34.9864510  46.0209100  12.3740710  34.8246630  41.5175480
  12.5691340  35.7230080  41.7842910  11.5870580  34.5933710  42.0108430
   2.7530310  35.9082540  43.6097180   2.1233050  35.2069850  43.7767310
   2.2135450  36.6686670  43.3930340  13.9267320  52.0647340  43.2782040
  14.1019510  51.3785080  42.6342960  13.2288890  52.5894390  42.8858710
   1.7694970  52.4542180  40.8317350   2.5013790  52.1701460  40.2841240
   2.0288640  52.2155460  41.7216730   8.3859480  42.6212570  26.9864880
   8.3053530  41.7067180  26.7156590   7.9723900  43.1179640  26.2804590
   6.5177520  44.3991590  28.8674150   5.7419620  43.9192030  29.1572720
   7.1690450  43.7197240  28.6930310  10.5384950  48.8051780  27.6473280
  10.0766480  48.0339020  27.9760450  11.3510500  48.8317850  28.1525730
   6.7648260  51.0909790  27.2677270   6.1459700  51.5467290  26.6971710
   7.6200040  51.2461250  26.8666970   5.9586510  47.0748780  28.8744310
   5.8894790  46.1338720  28.7133440   6.7206370  47.1650190  29.4466880
   6.9891680  39.8819160  29.1013240   7.3656500  39.0091040  28.9886910
   6.8911190  40.2177860  28.2103680  10.7715800  37.3769600  26.0341580
  11.5925420  36.8866170  26.0767060  10.8049880  37.9667260  26.7873420
   2.9604420  41.2231160  28.8955860   3.4682640  41.7212130  29.5360880
   3.4917660  40.4466360  28.7195220  15.0615350  39.3936350  32.5985210
  14.3567520  39.7818060  32.0800320  15.3273270  40.0886640  33.2006140
   7.6311610  45.9749030  24.6609180   7.0128880  46.4398480  24.0971900
   8.1434860  46.6676510  25.0778690   2.4943370  45.5024900  31.3392780
   2.1612750  46.1293820  31.9813850   2.6710050  46.0286780  30.5594450
  11.0077280  39.3169980  28.8069120  10.3032850  39.6054870  29.3872230
  11.3689440  40.1270090  28.4468680  12.6240060  48.9345110  31.0696600
  11.9403580  49.6044220  31.0613270  13.1634350  49.1325760  30.3041460
  14.0764200  38.7624770  29.1978330  13.1289110  38.7963750  29.3293760
  14.4014190  39.5763720  29.5827690   4.6083740  35.0621950  27.4934320
   4.9158720  34.5068840  26.7769820   3.6784440  35.1966410  27.3107310
  10.1598800  50.7789240  29.7841780  10.1725960  50.3751530  28.9164040
   9.6074020  51.5536530  29.6803210  11.4544220  47.5005460  24.8731950
  11.3440550  46.5579790  24.9981370  11.4512470  47.8621100  25.7594710
   9.5584240  45.6819080  31.1124390   9.9753030  45.4679190  30.2777850
  10.2824060  45.9391870  31.6833010   6.9964500  43.1270780  24.2294440
   6.0693780  43.0608160  24.4582910   7.1489320  44.0650910  24.1149680
   6.9833580  39.3987780  21.2261600   6.0437250  39.5601740  21.3114060
   7.3016840  40.1173460  20.6797590  13.5046340  44.0806300  31.2040630
  12.6764970  44.1499390  30.7290760  14.0996820  44.6660610  30.7356460
  11.0261790  44.6891080  24.7329690  10.4074210  44.3510630  24.0855990
  11.0086240  44.0450840  25.4408880  10.4688350  40.8675620  32.1495500
  10.0559530  41.6929330  32.4035490   9.7364300  40.2820660  31.9571860
   2.6021140  43.6535520  27.0114170   2.1978140  42.9412770  26.5160070
   2.6884260  43.3088760  27.9002210   3.0702840  47.3403080  29.1753380
   2.7731130  46.7348550  28.4961160   4.0202660  47.3780390  29.0642740
  11.1588450  50.9134950  32.8376480  10.6819010  51.7207140  32.6449090
  10.4750240  50.2613280  32.9902690   9.2026490  43.9277890  21.7402440
   9.6419770  43.0900320  21.5940260   9.9154910  44.5607290  21.8266580
   7.3121870  48.8673960  25.7083680   7.7517780  49.6098290  25.2939070
   7.2508760  49.1100530  26.6322640   2.7872840  49.8919790  36.6103700
   2.7588270  50.2962740  35.7432130   2.6237810  48.9630150  36.4475300
  12.7843630  35.1820700  20.0543480  12.4716290  35.2747530  20.9542550
  13.5456100  35.7601730  20.0040910  14.7387660  50.6746890  37.9067870
  15.2147380  51.1529780  38.5856950  15.3594820  50.6064380  37.1813370
  14.1420910  47.8659740  35.0667880  14.2683970  47.6271620  34.1485060
  14.1842290  47.0344280  35.5389960   8.0037650  51.5687740  33.6362690
   8.5182320  51.4795750  34.4385120   7.1606730  51.9147440  33.9290600
   9.9792050  51.8543080  23.0646690   9.8193190  51.5646020  23.9628520
   9.8138760  51.0783210  22.5291920   2.4580430  51.6341610  24.8418310
   2.2822910  50.7177150  24.6286110   1.6036170  51.9928900  25.0816110
   9.6818180  49.3630640  21.6244690   8.9883340  49.3607930  20.9646970
  10.4241040  48.9389960  21.1938860   9.2468110  50.9893350  25.6993180
   9.7025060  50.2082730  26.0131800   9.5860630  51.7000170  26.2434360
  13.9944920  39.9192200  36.0317620  13.3789190  40.4271870  35.5033080
  13.6741340  39.0190530  35.9743560   6.0559240  38.7584090  33.4979810
   5.5938610  38.9667110  34.3099750   5.6537350  37.9443440  33.1950480
  11.0563750  39.9793040  34.6276470  10.2057340  39.6798790  34.9485540
  10.8965540  40.2235050  33.7160290   8.1513460  41.4794790  36.7275260
   8.4766870  40.6458540  36.3877490   8.9393790  42.0023310  36.8753590
   4.8848250  35.5126270  22.7750320   4.2602430  35.5086140  23.5003630
   4.7978370  34.6457230  22.3786290   3.8065330  36.4362900  29.7534090
   4.1037660  37.3425730  29.6726110   4.3550890  35.9481680  29.1393660
   8.7901410  41.0212510  24.2216390   8.1910300  41.7448310  24.0380010
   9.3381020  40.9589290  23.4392840   4.0002860  41.9134720  36.2886010
   3.9046460  40.9729450  36.1386410   4.8434840  42.1349790  35.8934080
   7.3966280  39.6576050  26.2519670   7.7895850  39.9748250  25.4388360
   7.7583130  38.7787930  26.3664190   5.7058450  38.4083360  37.5116530
   5.0156770  38.2155560  38.1462620   6.4490750  38.6918000  38.0440830
   7.9821420  42.2481800  30.3470450   7.2502540  42.7568610  30.6960550
   7.5845760  41.4311780  30.0459230   4.4198810  38.9236000  28.7522940
   4.4234870  38.4825950  27.9027480   5.3149930  39.2453330  28.8594760
   4.4818960  39.9248080  21.7429700   4.6031780  39.8834560  22.6915520
   4.0967470  40.7872230  21.5876430   8.4447330  37.7015480  29.7593390
   8.4620070  38.1524130  30.6035240   8.1962910  36.8021120  29.9726830
   3.4940460  42.2349220  21.1413000   2.9257360  41.7867470  20.5148910
   4.2029460  42.5942000  20.6078150  11.8718080  35.1147660  35.5979770
  12.1963850  34.3837320  36.1237750  11.9074590  34.7961300  34.6960760
   4.7206780  42.9837780  30.4988350   5.0876910  42.5096350  31.2449690
   4.5311840  43.8579350  30.8396690   2.5106150  42.0246420  32.8172560
   2.2063220  42.9038400  33.0422920   3.4652610  42.0846210  32.8530000
  11.7975920  45.2272770  29.2065800  12.5175040  45.7228060  28.8161910
  11.5957740  44.5490660  28.5619670   7.2585860  36.6210730  23.3495190
   6.4450470  36.1223900  23.2740500   7.0647810  37.4608980  22.9331540
   7.1794720  45.2981830  35.0934800   7.1132030  44.3777500  34.8392390
   6.5499860  45.3957270  35.8079440   9.9734250  40.9930380  21.6457350
  10.8613870  41.3047610  21.4708690   9.9439340  40.1202630  21.2537930
   5.9694840  47.1654070  22.3245520   6.3110540  47.9096300  21.8288840
   5.1407550  47.4785190  22.6870350   1.7683000  43.3233400  36.8483470
   1.4683140  43.4690580  35.9511290   2.5394240  42.7638690  36.7556860
   7.1111450  48.1202400  34.8438600   7.1255990  47.1883360  34.6257510
   6.4036550  48.2062160  35.4828370  12.2448520  42.3042220  21.1137210
  12.1612240  42.7356440  20.2633650  12.9642710  42.7640570  21.5464030
  13.3222660  44.7609740  34.1907180  12.5970850  45.3538520  33.9936570
  13.8498120  44.7533280  33.3920550  13.2735770  49.1584480  23.8419340
  12.6311930  48.5040100  24.1163060  12.8866430  49.5639570  23.0660010
   8.8522250  46.4869910  27.6891030   9.2046070  45.8898040  27.0292400
   7.9684580  46.1614140  27.8599280   4.9385530  47.2467600  25.0961440
   5.6256660  47.7936810  25.4769030   4.1517950  47.7908330  25.1311050
   4.2412740  44.2513630  24.7086800   4.6975520  45.0618880  24.9346990
   3.8900950  43.9336770  25.5405290   6.5445350  49.7619970  31.9379100
   7.1887570  49.9679350  32.6152520   6.9074790  49.0008370  31.4849950
   7.8177430  47.7652320  30.6556550   8.4599660  47.0645480  30.7688720
   8.3426780  48.5450760  30.4753440  11.6633150  48.0500940  20.3795690
  11.4370730  47.3331380  20.9720330  11.2729350  47.8013380  19.5417440
   9.5915050  48.5647220  33.8592610   9.9271290  49.1513910  34.5370530
   8.6715390  48.4339930  34.0890400  11.2449400  45.9672880  22.0409850
  10.9571100  46.4285570  22.8287730  12.0401570  45.5070650  22.3094070
   5.4203630  48.6138550  37.0280670   5.1000500  47.8947790  37.5726360
   4.7461990  49.2893620  37.1016730   3.4617800  49.4599000  21.9713820
   3.4527900  50.1928690  21.3558330   2.5416160  49.2130580  22.0640780
   8.6357230  38.8464710  32.3917470   9.0038050  38.0259920  32.7197040
   7.7755430  38.9066600  32.8073120  12.0019260  37.8021650  23.2005030
  11.3732420  37.9067320  22.4863260  11.5071180  38.0218430  23.9898910
   6.4477400  49.5227240  20.6339010   6.5489380  49.3191230  19.7040990
   5.5479140  49.2685520  20.8386790   3.9703290  40.0807600  24.6162910
   3.2619440  40.5493940  25.0576520   4.2547770  39.4229610  25.2508100
   5.5959220  41.5004300  32.6155440   6.0944470  41.9750120  33.2807290
   5.7382170  40.5767820  32.8225470   8.0018720  36.8058260  26.0558700
   7.8786500  36.8244390  25.1068210   8.9503280  36.8537200  26.1757100
   5.0895510  52.0413560  25.3286680   5.3437010  52.0034950  24.4066050
   4.1407990  51.9146890  25.3214930   2.1738310  38.3892680  21.9913620
   3.0228840  38.8262830  21.9253810   1.8069580  38.7012940  22.8185680
  12.8026080  37.7172260  33.4583830  12.2999680  38.4577660  33.7977640
  13.6182740  38.1056260  33.1420620  11.0948090  42.9605440  26.9045190
  10.1538230  42.9755670  27.0792880  11.4092160  42.1741400  27.3505490
  13.0973670  50.1314290  28.5799450  13.2221090  50.9545460  29.0523260
  13.9639230  49.9205020  28.2323600   3.6793510  51.3975810  20.0742150
   4.4722120  51.6864640  19.6223940   3.1597860  50.9667980  19.3954630
   8.4114110  47.5171440  37.3877570   7.8052270  47.5403040  36.6473320
   8.1068220  46.7854480  37.9244820   9.8414480  51.2451730  35.9986980
  10.7936230  51.1609750  35.9487220   9.6942700  51.9093440  36.6720770
  12.7323680  50.6245940  21.4978890  12.4465190  50.2111080  20.6833070
  12.5343230  51.5533650  21.3779410   4.1970910  46.6179220  19.9384500
   4.0921550  46.0031570  20.6645880   4.0295130  46.0945110  19.1547510
   4.3485230  45.3036020  35.9173730   3.5830900  45.8721020  35.8328400
   4.5301190  45.0112230  35.0241960   7.4373640  45.6799250  20.5426490
   6.8883740  46.1268550  21.1869230   8.0592900  45.1748500  21.0664160
  11.4908580  47.0341350  36.4748750  12.2318050  47.3717110  35.9716210
  10.7281260  47.2033410  35.9218520   3.1048760  44.6390170  22.4391790
   3.5265180  44.4730040  23.2823180   3.2299600  43.8290400  21.9446930
   5.6176400  43.6627780  19.6868890   6.1382060  42.9476800  19.3210040
   6.2644800  44.3013650  19.9869400  10.1654240  45.0856180  35.0103960
  10.5795260  45.2401260  35.8594380   9.2305240  45.2111400  35.1729740
  10.6376410  42.4252340  37.0143110  11.2197180  41.6704660  36.9263590
  10.8138180  42.9559780  36.2374590   4.5209920  36.1422330  32.3587450
   4.0727220  36.1646590  31.5133000   3.8875120  35.7441350  32.9557750
   4.9269470  45.0376660  32.9799890   5.3457580  45.8809390  32.8076130
   4.0078100  45.1748700  32.7506670   7.2633370  42.7692840  34.3637730
   7.3829580  42.1733980  35.1032570   8.1227370  42.8062530  33.9439030
   9.6021270  43.3230030  32.9400240   9.0756490  43.8472650  32.3365380
   9.9452610  43.9557420  33.5709970   2.0007660  40.7123400  19.3849950
   1.7996720  39.8490760  19.7463290   1.8299710  40.6256760  18.4471550
   2.7776890  51.3429670  34.0957620   2.2397980  52.0675730  33.7766320
   3.0310850  50.8660010  33.3054960   4.0302140  39.3114190  35.6213550
   4.6201830  39.0030040  36.3091370   3.2122380  38.8393940  35.7773450
   8.8495570  38.9280000  35.8546570   8.1611090  38.2661540  35.7896560
   9.5701590  38.4818270  36.2995030   9.4795970  35.5231630  21.9136830
   9.7598260  34.6799530  22.2696250   8.7061700  35.7554740  22.4275580
   5.6339100  52.5780880  34.3544270   5.5597800  53.4816020  34.6616640
   4.7317940  52.2592780  34.3266340   4.0175390  36.7558640  20.3584030
   3.6697390  36.0782630  19.7786480   4.2188160  36.2948150  21.1727420
   6.1824430  51.7439390  21.9770630   7.0775220  52.0824360  21.9989390
   6.2142060  51.0218800  21.3494910  13.1618780  50.2743060  34.6836830
  12.5620770  50.3335620  33.9400750  13.2912680  49.3348040  34.8133680
  14.4020230  48.0160880  20.0206540  13.5713190  48.0837530  20.4913770
  14.5792060  48.9065000  19.7173400  13.8576690  44.7608360  22.5240740
  14.6195600  45.3305010  22.6300430  13.8731060  44.1935560  23.2949050
  14.8636660  45.6158460  27.3682670  15.2345490  44.8325780  26.9618640
  15.5038590  46.3047560  27.1899970  11.8470420  46.9995040  32.7812990
  11.0330260  47.4292200  33.0438780  12.2544620  47.6113450  32.1682040
  13.9095860  45.0542730  19.6813260  14.1844700  45.9621610  19.5532480
  13.7206600  44.9905260  20.6175250  10.3071470  38.0787580  20.9766890
  10.7256350  37.8918560  20.1363550  10.0007530  37.2266630  21.2869820
  13.8061200  42.9911720  24.6742690  13.4304800  42.2239650  24.2423980
  13.0764320  43.3734420  25.1617620  13.1960820  42.1383240  34.3082210
  12.9646910  41.9095990  33.4080160  13.4565370  43.0582790  34.2627100
  11.6348890  37.3639670  37.0861910  12.5119070  37.3723070  37.4695910
  11.6469730  36.6270510  36.4754260  13.0812160  41.2169210  27.9749930
  13.6049640  40.7231860  27.3440100  13.6671580  41.3519570  28.7197500
  13.2601880  41.3009080  31.4969480  12.3104590  41.2672620  31.6114470
  13.4414890  42.2109190  31.2619250  12.5712130  40.4742560  23.9142340
  13.0671250  40.2413430  24.6991220  12.3728200  39.6354400  23.4979980
  13.9999290  39.1103510  26.4480020  13.8898570  38.9559550  27.3862290
  14.7606880  38.5824450  26.2055430  12.3465010  35.0497640  32.9063020
  12.9837230  35.6631780  33.2722210  12.4939900  35.0858300  31.9612250
  14.8889560  36.9411430  19.6886160  15.8138870  36.8092610  19.4804450
  14.8665350  37.0204250  20.6422610  14.9628050  37.7122090  22.3142870
  14.1679550  37.6467210  22.8435780  15.1671330  38.6472730  22.3028220
  11.9046470  51.7513640  26.3081260  12.5005540  51.4298210  25.6315680
  12.1624620  51.2785460  27.0994530   3.5115070  49.7391140  32.0581610
   3.2706430  50.0065700  31.1712130   4.4517710  49.9096870  32.1132470
   5.7169490  36.2023830  35.8138120   5.6558380  36.7945660  36.5633530
   6.6569870  36.0949790  35.6688380   8.3544050  35.8593890  35.4530410
   8.9684460  36.1773180  34.7911490   8.8993610  35.3742480  36.0726270
  14.7719230  51.7585520  32.8592250  14.2777510  52.1554390  32.1419380
  14.1632520  51.1334730  33.2529530   9.0952090  34.4226030  31.7799700
   8.2211930  34.7561140  31.5772630   8.9862840  33.9499210  32.6051570
  10.0024070  36.6296900  33.1641420   9.6737430  35.8148660  32.7843150
  10.9506370  36.5866710  33.0407110  12.4558680  52.4008940  30.1378990
  11.9961650  53.1524750  29.7637010  11.8271140  51.6815410  30.0793790
   2.8854400  50.7097180  29.3127120   3.4019420  50.0984540  28.7875380
   3.5351780  51.2125960  29.8038130   5.6249900  51.6005670  30.1396100
   5.9127710  51.3459970  29.2629110   6.1373120  51.0483030  30.7301670
   6.8426910  35.3395870  30.7192610   6.0598700  35.8141370  30.9989370
   6.5489840  34.4350700  30.6105790  11.3947980  36.0418970  28.7641700
  11.8356070  35.9864070  27.9163300  11.1255570  36.9576980  28.8351880
  13.2586550  35.6734210  26.7750520  13.1974950  34.7295430  26.6281540
  14.0378580  35.7814300  27.3203980   4.7281130  37.7582620  26.2308640
   3.9155640  37.3839510  25.8904520   5.2322770  37.0027700  26.5329830
   9.2306110  34.4225070  27.4691710   9.8335480  34.9945280  27.9440230
   8.4899100  34.9864510  27.2465610  12.3740710  34.8246630  22.7431990
  12.5691340  35.7230080  23.0099420  11.5870580  34.5933710  23.2364940
   2.7530310  35.9082540  24.8353690   2.1233050  35.2069850  25.0023820
   2.2135450  36.6686670  24.6186850   5.6922260  52.5221770  37.5064300
   6.6189570  52.2866040  37.5500260   5.6772690  53.3493770  37.0250330
  13.9267320  52.0647340  24.5038550  14.1019510  51.3785080  23.8599470
  13.2288890  52.5894390  24.1115220   2.8785870  35.1866520  37.2706180
   2.5970140  35.6900120  36.5067000   3.2605570  34.3888270  36.9048310
   1.7694970  52.4542180  22.0573860   2.5013790  52.1701460  21.5097750
   2.0288640  52.2155460  22.9473240   9.4801330  34.6020100  37.8486650
   9.3666780  34.9214710  38.7438170  10.2971070  35.0032610  37.5523930
  12.2599820  51.7491630  37.3305340  13.0525140  51.2540860  37.1231300
  12.5532970  52.4281770  37.9380950   8.3859480  42.6212570   8.2121390
   8.3053530  41.7067180   7.9413100   7.9723900  43.1179640   7.5061100
   6.5177520  44.3991590  10.0930660   5.7419620  43.9192030  10.3829230
   7.1690450  43.7197240   9.9186820  10.5384950  48.8051780   8.8729790
  10.0766480  48.0339020   9.2016960  11.3510500  48.8317850   9.3782240
   6.7648260  51.0909790   8.4933780   6.1459700  51.5467290   7.9228220
   7.6200040  51.2461250   8.0923480   5.9586510  47.0748780  10.1000820
   5.8894790  46.1338720   9.9389950   6.7206370  47.1650190  10.6723390
   6.9891680  39.8819160  10.3269750   7.3656500  39.0091040  10.2143420
   6.8911190  40.2177860   9.4360190  10.7715800  37.3769600   7.2598090
  11.5925420  36.8866170   7.3023570  10.8049880  37.9667260   8.0129930
   2.9604420  41.2231160  10.1212370   3.4682640  41.7212130  10.7617390
   3.4917660  40.4466360   9.9451730  15.0615350  39.3936350  13.8241720
  14.3567520  39.7818060  13.3056830  15.3273270  40.0886640  14.4262650
   7.6311610  45.9749030   5.8865690   7.0128880  46.4398480   5.3228410
   8.1434860  46.6676510   6.3035200   2.4943370  45.5024900  12.5649290
   2.1612750  46.1293820  13.2070360   2.6710050  46.0286780  11.7850960
  11.0077280  39.3169980  10.0325630  10.3032850  39.6054870  10.6128740
  11.3689440  40.1270090   9.6725190  12.6240060  48.9345110  12.2953110
  11.9403580  49.6044220  12.2869780  13.1634350  49.1325760  11.5297970
  14.0764200  38.7624770  10.4234840  13.1289110  38.7963750  10.5550270
  14.4014190  39.5763720  10.8084200   4.6083740  35.0621950   8.7190830
   4.9158720  34.5068840   8.0026330   3.6784440  35.1966410   8.5363820
  10.1598800  50.7789240  11.0098290  10.1725960  50.3751530  10.1420550
   9.6074020  51.5536530  10.9059720  11.4544220  47.5005460   6.0988460
  11.3440550  46.5579790   6.2237880  11.4512470  47.8621100   6.9851220
   9.5584240  45.6819080  12.3380900   9.9753030  45.4679190  11.5034360
  10.2824060  45.9391870  12.9089520   6.9964500  43.1270780   5.4550950
   6.0693780  43.0608160   5.6839420   7.1489320  44.0650910   5.3406190
   6.9833580  39.3987780   2.4518110   6.0437250  39.5601740   2.5370570
   7.3016840  40.1173460   1.9054100  13.5046340  44.0806300  12.4297140
  12.6764970  44.1499390  11.9547270  14.0996820  44.6660610  11.9612970
  11.0261790  44.6891080   5.9586200  10.4074210  44.3510630   5.3112500
  11.0086240  44.0450840   6.6665390  10.4688350  40.8675620  13.3752010
  10.0559530  41.6929330  13.6292000   9.7364300  40.2820660  13.1828370
   2.6021140  43.6535520   8.2370680   2.1978140  42.9412770   7.7416580
   2.6884260  43.3088760   9.1258720   3.0702840  47.3403080  10.4009890
   2.7731130  46.7348550   9.7217670   4.0202660  47.3780390  10.2899250
  11.1588450  50.9134950  14.0632990  10.6819010  51.7207140  13.8705600
  10.4750240  50.2613280  14.2159200   9.2026490  43.9277890   2.9658950
   9.6419770  43.0900320   2.8196770   9.9154910  44.5607290   3.0523090
   7.3121870  48.8673960   6.9340190   7.7517780  49.6098290   6.5195580
   7.2508760  49.1100530   7.8579150   2.7872840  49.8919790  17.8360210
   2.7588270  50.2962740  16.9688640   2.6237810  48.9630150  17.6731810
  14.7387660  50.6746890  19.1324380  15.2147380  51.1529780  19.8113460
  15.3594820  50.6064380  18.4069880  14.1420910  47.8659740  16.2924390
  14.2683970  47.6271620  15.3741570  14.1842290  47.0344280  16.7646470
   8.0037650  51.5687740  14.8619200   8.5182320  51.4795750  15.6641630
   7.1606730  51.9147440  15.1547110   9.9792050  51.8543080   4.2903200
   9.8193190  51.5646020   5.1885030   9.8138760  51.0783210   3.7548430
   2.4580430  51.6341610   6.0674820   2.2822910  50.7177150   5.8542620
   1.6036170  51.9928900   6.3072620   9.6818180  49.3630640   2.8501200
   8.9883340  49.3607930   2.1903480  10.4241040  48.9389960   2.4195370
   9.2468110  50.9893350   6.9249690   9.7025060  50.2082730   7.2388310
   9.5860630  51.7000170   7.4690870  13.9944920  39.9192200  17.2574130
  13.3789190  40.4271870  16.7289590  13.6741340  39.0190530  17.2000070
   6.0559240  38.7584090  14.7236320   5.5938610  38.9667110  15.5356260
   5.6537350  37.9443440  14.4206990  11.0563750  39.9793040  15.8532980
  10.2057340  39.6798790  16.1742050  10.8965540  40.2235050  14.9416800
   8.1513460  41.4794790  17.9531770   8.4766870  40.6458540  17.6134000
   8.9393790  42.0023310  18.1010100   4.8848250  35.5126270   4.0006830
   4.2602430  35.5086140   4.7260140   4.7978370  34.6457230   3.6042800
   3.8065330  36.4362900  10.9790600   4.1037660  37.3425730  10.8982620
   4.3550890  35.9481680  10.3650170   8.7901410  41.0212510   5.4472900
   8.1910300  41.7448310   5.2636520   9.3381020  40.9589290   4.6649350
   4.0002860  41.9134720  17.5142520   3.9046460  40.9729450  17.3642920
   4.8434840  42.1349790  17.1190590   7.3966280  39.6576050   7.4776180
   7.7895850  39.9748250   6.6644870   7.7583130  38.7787930   7.5920700
   5.7058450  38.4083360  18.7373040   5.0156770  38.2155560  19.3719130
   6.4490750  38.6918000  19.2697340   7.9821420  42.2481800  11.5726960
   7.2502540  42.7568610  11.9217060   7.5845760  41.4311780  11.2715740
   4.4198810  38.9236000   9.9779450   4.4234870  38.4825950   9.1283990
   5.3149930  39.2453330  10.0851270   4.4818960  39.9248080   2.9686210
   4.6031780  39.8834560   3.9172030   4.0967470  40.7872230   2.8132940
   8.4447330  37.7015480  10.9849900   8.4620070  38.1524130  11.8291750
   8.1962910  36.8021120  11.1983340   3.4940460  42.2349220   2.3669510
   2.9257360  41.7867470   1.7405420   4.2029460  42.5942000   1.8334660
  11.8718080  35.1147660  16.8236280  12.1963850  34.3837320  17.3494260
  11.9074590  34.7961300  15.9217270   4.7206780  42.9837780  11.7244860
   5.0876910  42.5096350  12.4706200   4.5311840  43.8579350  12.0653200
   2.5106150  42.0246420  14.0429070   2.2063220  42.9038400  14.2679430
   3.4652610  42.0846210  14.0786510  11.7975920  45.2272770  10.4322310
  12.5175040  45.7228060  10.0418420  11.5957740  44.5490660   9.7876180
   7.2585860  36.6210730   4.5751700   6.4450470  36.1223900   4.4997010
   7.0647810  37.4608980   4.1588050   7.1794720  45.2981830  16.3191310
   7.1132030  44.3777500  16.0648900   6.5499860  45.3957270  17.0335950
   9.9734250  40.9930380   2.8713860  10.8613870  41.3047610   2.6965200
   9.9439340  40.1202630   2.4794440   5.9694840  47.1654070   3.5502030
   6.3110540  47.9096300   3.0545350   5.1407550  47.4785190   3.9126860
   1.7683000  43.3233400  18.0739980   1.4683140  43.4690580  17.1767800
   2.5394240  42.7638690  17.9813370   7.1111450  48.1202400  16.0695110
   7.1255990  47.1883360  15.8514020   6.4036550  48.2062160  16.7084880
  13.3222660  44.7609740  15.4163690  12.5970850  45.3538520  15.2193080
  13.8498120  44.7533280  14.6177060  13.2735770  49.1584480   5.0675850
  12.6311930  48.5040100   5.3419570  12.8866430  49.5639570   4.2916520
   8.8522250  46.4869910   8.9147540   9.2046070  45.8898040   8.2548910
   7.9684580  46.1614140   9.0855790   4.9385530  47.2467600   6.3217950
   5.6256660  47.7936810   6.7025540   4.1517950  47.7908330   6.3567560
   4.2412740  44.2513630   5.9343310   4.6975520  45.0618880   6.1603500
   3.8900950  43.9336770   6.7661800   6.5445350  49.7619970  13.1635610
   7.1887570  49.9679350  13.8409030   6.9074790  49.0008370  12.7106460
   7.8177430  47.7652320  11.8813060   8.4599660  47.0645480  11.9945230
   8.3426780  48.5450760  11.7009950   9.5915050  48.5647220  15.0849120
   9.9271290  49.1513910  15.7627040   8.6715390  48.4339930  15.3146910
  11.2449400  45.9672880   3.2666360  10.9571100  46.4285570   4.0544240
  12.0401570  45.5070650   3.5350580   5.4203630  48.6138550  18.2537180
   5.1000500  47.8947790  18.7982870   4.7461990  49.2893620  18.3273240
   3.4617800  49.4599000   3.1970330   3.4527900  50.1928690   2.5814840
   2.5416160  49.2130580   3.2897290   8.6357230  38.8464710  13.6173980
   9.0038050  38.0259920  13.9453550   7.7755430  38.9066600  14.0329630
  12.0019260  37.8021650   4.4261540  11.3732420  37.9067320   3.7119770
  11.5071180  38.0218430   5.2155420   3.9703290  40.0807600   5.8419420
   3.2619440  40.5493940   6.2833030   4.2547770  39.4229610   6.4764610
   5.5959220  41.5004300  13.8411950   6.0944470  41.9750120  14.5063800
   5.7382170  40.5767820  14.0481980   8.0018720  36.8058260   7.2815210
   7.8786500  36.8244390   6.3324720   8.9503280  36.8537200   7.4013610
   5.0895510  52.0413560   6.5543190   5.3437010  52.0034950   5.6322560
   4.1407990  51.9146890   6.5471440   2.1738310  38.3892680   3.2170130
   3.0228840  38.8262830   3.1510320   1.8069580  38.7012940   4.0442190
  12.8026080  37.7172260  14.6840340  12.2999680  38.4577660  15.0234150
  13.6182740  38.1056260  14.3677130  11.0948090  42.9605440   8.1301700
  10.1538230  42.9755670   8.3049390  11.4092160  42.1741400   8.5762000
  13.0973670  50.1314290   9.8055960  13.2221090  50.9545460  10.2779770
  13.9639230  49.9205020   9.4580110   8.4114110  47.5171440  18.6134080
   7.8052270  47.5403040  17.8729830   8.1068220  46.7854480  19.1501330
   9.8414480  51.2451730  17.2243490  10.7936230  51.1609750  17.1743730
   9.6942700  51.9093440  17.8977280  12.7323680  50.6245940   2.7235400
  12.4465190  50.2111080   1.9089580  12.5343230  51.5533650   2.6035920
   4.3485230  45.3036020  17.1430240   3.5830900  45.8721020  17.0584910
   4.5301190  45.0112230  16.2498470   7.4373640  45.6799250   1.7683000
   6.8883740  46.1268550   2.4125740   8.0592900  45.1748500   2.2920670
  11.4908580  47.0341350  17.7005260  12.2318050  47.3717110  17.1972720
  10.7281260  47.2033410  17.1475030   3.1048760  44.6390170   3.6648300
   3.5265180  44.4730040   4.5079690   3.2299600  43.8290400   3.1703440
  10.1654240  45.0856180  16.2360470  10.5795260  45.2401260  17.0850890
   9.2305240  45.2111400  16.3986250  10.6376410  42.4252340  18.2399620
  11.2197180  41.6704660  18.1520100  10.8138180  42.9559780  17.4631100
   4.5209920  36.1422330  13.5843960   4.0727220  36.1646590  12.7389510
   3.8875120  35.7441350  14.1814260   4.9269470  45.0376660  14.2056400
   5.3457580  45.8809390  14.0332640   4.0078100  45.1748700  13.9763180
   7.2633370  42.7692840  15.5894240   7.3829580  42.1733980  16.3289080
   8.1227370  42.8062530  15.1695540   9.6021270  43.3230030  14.1656750
   9.0756490  43.8472650  13.5621890   9.9452610  43.9557420  14.7966480
   2.7776890  51.3429670  15.3214130   2.2397980  52.0675730  15.0022830
   3.0310850  50.8660010  14.5311470   4.0302140  39.3114190  16.8470060
   4.6201830  39.0030040  17.5347880   3.2122380  38.8393940  17.0029960
   8.8495570  38.9280000  17.0803080   8.1611090  38.2661540  17.0153070
   9.5701590  38.4818270  17.5251540   9.4795970  35.5231630   3.1393340
   9.7598260  34.6799530   3.4952760   8.7061700  35.7554740   3.6532090
   5.6339100  52.5780880  15.5800780   5.5597800  53.4816020  15.8873150
   4.7317940  52.2592780  15.5522850   6.1824430  51.7439390   3.2027140
   7.0775220  52.0824360   3.2245900   6.2142060  51.0218800   2.5751420
  13.1618780  50.2743060  15.9093340  12.5620770  50.3335620  15.1657260
  13.2912680  49.3348040  16.0390190  13.8576690  44.7608360   3.7497250
  14.6195600  45.3305010   3.8556940  13.8731060  44.1935560   4.5205560
  14.8636660  45.6158460   8.5939180  15.2345490  44.8325780   8.1875150
  15.5038590  46.3047560   8.4156480  11.8470420  46.9995040  14.0069500
  11.0330260  47.4292200  14.2695290  12.2544620  47.6113450  13.3938550
  13.8061200  42.9911720   5.8999200  13.4304800  42.2239650   5.4680490
  13.0764320  43.3734420   6.3874130  13.1960820  42.1383240  15.5338720
  12.9646910  41.9095990  14.6336670  13.4565370  43.0582790  15.4883610
  11.6348890  37.3639670  18.3118420  12.5119070  37.3723070  18.6952420
  11.6469730  36.6270510  17.7010770  13.0812160  41.2169210   9.2006440
  13.6049640  40.7231860   8.5696610  13.6671580  41.3519570   9.9454010
  13.2601880  41.3009080  12.7225990  12.3104590  41.2672620  12.8370980
  13.4414890  42.2109190  12.4875760  12.5712130  40.4742560   5.1398850
  13.0671250  40.2413430   5.9247730  12.3728200  39.6354400   4.7236490
  13.9999290  39.1103510   7.6736530  13.8898570  38.9559550   8.6118800
  14.7606880  38.5824450   7.4311940  12.3465010  35.0497640  14.1319530
  12.9837230  35.6631780  14.4978720  12.4939900  35.0858300  13.1868760
  14.9628050  37.7122090   3.5399380  14.1679550  37.6467210   4.0692290
  15.1671330  38.6472730   3.5284730  11.9046470  51.7513640   7.5337770
  12.5005540  51.4298210   6.8572190  12.1624620  51.2785460   8.3251040
   3.5115070  49.7391140  13.2838120   3.2706430  50.0065700  12.3968640
   4.4517710  49.9096870  13.3388980   5.7169490  36.2023830  17.0394630
   5.6558380  36.7945660  17.7890040   6.6569870  36.0949790  16.8944890
   8.3544050  35.8593890  16.6786920   8.9684460  36.1773180  16.0168000
   8.8993610  35.3742480  17.2982780  14.7719230  51.7585520  14.0848760
  14.2777510  52.1554390  13.3675890  14.1632520  51.1334730  14.4786040
   9.0952090  34.4226030  13.0056210   8.2211930  34.7561140  12.8029140
   8.9862840  33.9499210  13.8308080  10.0024070  36.6296900  14.3897930
   9.6737430  35.8148660  14.0099660  10.9506370  36.5866710  14.2663620
  12.4558680  52.4008940  11.3635500  11.9961650  53.1524750  10.9893520
  11.8271140  51.6815410  11.3050300   2.8854400  50.7097180  10.5383630
   3.4019420  50.0984540  10.0131890   3.5351780  51.2125960  11.0294640
   5.6249900  51.6005670  11.3652610   5.9127710  51.3459970  10.4885620
   6.1373120  51.0483030  11.9558180   6.8426910  35.3395870  11.9449120
   6.0598700  35.8141370  12.2245880   6.5489840  34.4350700  11.8362300
  11.3947980  36.0418970   9.9898210  11.8356070  35.9864070   9.1419810
  11.1255570  36.9576980  10.0608390  13.2586550  35.6734210   8.0007030
  13.1974950  34.7295430   7.8538050  14.0378580  35.7814300   8.5460490
   4.7281130  37.7582620   7.4565150   3.9155640  37.3839510   7.1161030
   5.2322770  37.0027700   7.7586340   9.2306110  34.4225070   8.6948220
   9.8335480  34.9945280   9.1696740   8.4899100  34.9864510   8.4722120
  12.3740710  34.8246630   3.9688500  12.5691340  35.7230080   4.2355930
  11.5870580  34.5933710   4.4621450   2.7530310  35.9082540   6.0610200
   2.1233050  35.2069850   6.2280330   2.2135450  36.6686670   5.8443360
   5.6922260  52.5221770  18.7320810   6.6189570  52.2866040  18.7756770
   5.6772690  53.3493770  18.2506840  13.9267320  52.0647340   5.7295060
  14.1019510  51.3785080   5.0855980  13.2288890  52.5894390   5.3371730
   2.8785870  35.1866520  18.4962690   2.5970140  35.6900120  17.7323510
   3.2605570  34.3888270  18.1304820   1.7694970  52.4542180   3.2830370
   2.5013790  52.1701460   2.7354260   2.0288640  52.2155460   4.1729750
   9.4801330  34.6020100  19.0743160   9.3666780  34.9214710  19.9694680
  10.2971070  35.0032610  18.7780440  12.2599820  51.7491630  18.5561850
  13.0525140  51.2540860  18.3487810  12.5532970  52.4281770  19.1637460
   8.3859480  23.8469080  45.7608370   8.3053530  22.9323690  45.4900080
   7.9723900  24.3436150  45.0548080   6.5177520  25.6248100  47.6417640
   5.7419620  25.1448540  47.9316210   7.1690450  24.9453750  47.4673800
  10.5384950  30.0308290  46.4216770  10.0766480  29.2595530  46.7503940
  11.3510500  30.0574360  46.9269220   6.7648260  32.3166300  46.0420760
   6.1459700  32.7723800  45.4715200   7.6200040  32.4717760  45.6410460
   5.9586510  28.3005290  47.6487800   5.8894790  27.3595230  47.4876930
   6.7206370  28.3906700  48.2210370   6.9891680  21.1075670  47.8756730
   7.3656500  20.2347550  47.7630400   6.8911190  21.4434370  46.9847170
  10.7715800  18.6026110  44.8085070  11.5925420  18.1122680  44.8510550
  10.8049880  19.1923770  45.5616910   2.9604420  22.4487670  47.6699350
   3.4682640  22.9468640  48.3104370   3.4917660  21.6722870  47.4938710
  15.0615350  20.6192860  51.3728700  14.3567520  21.0074570  50.8543810
  15.3273270  21.3143150  51.9749630   7.6311610  27.2005540  43.4352670
   7.0128880  27.6654990  42.8715390   8.1434860  27.8933020  43.8522180
   2.4943370  26.7281410  50.1136270   2.1612750  27.3550330  50.7557340
   2.6710050  27.2543290  49.3337940  11.0077280  20.5426490  47.5812610
  10.3032850  20.8311380  48.1615720  11.3689440  21.3526600  47.2212170
  12.6240060  30.1601620  49.8440090  11.9403580  30.8300730  49.8356760
  13.1634350  30.3582270  49.0784950  14.0764200  19.9881280  47.9721820
  13.1289110  20.0220260  48.1037250  14.4014190  20.8020230  48.3571180
   4.6083740  16.2878460  46.2677810   4.9158720  15.7325350  45.5513310
   3.6784440  16.4222920  46.0850800  10.1598800  32.0045750  48.5585270
  10.1725960  31.6008040  47.6907530   9.6074020  32.7793040  48.4546700
  11.4544220  28.7261970  43.6475440  11.3440550  27.7836300  43.7724860
  11.4512470  29.0877610  44.5338200   9.5584240  26.9075590  49.8867880
   9.9753030  26.6935700  49.0521340  10.2824060  27.1648380  50.4576500
   6.9964500  24.3527290  43.0037930   6.0693780  24.2864670  43.2326400
   7.1489320  25.2907420  42.8893170   6.9833580  20.6244290  40.0005090
   6.0437250  20.7858250  40.0857550   7.3016840  21.3429970  39.4541080
  13.5046340  25.3062810  49.9784120  12.6764970  25.3755900  49.5034250
  14.0996820  25.8917120  49.5099950  11.0261790  25.9147590  43.5073180
  10.4074210  25.5767140  42.8599480  11.0086240  25.2707350  44.2152370
  10.4688350  22.0932130  50.9238990  10.0559530  22.9185840  51.1778980
   9.7364300  21.5077170  50.7315350   2.6021140  24.8792030  45.7857660
   2.1978140  24.1669280  45.2903560   2.6884260  24.5345270  46.6745700
   3.0702840  28.5659590  47.9496870   2.7731130  27.9605060  47.2704650
   4.0202660  28.6036900  47.8386230  11.1588450  32.1391460  51.6119970
  10.6819010  32.9463650  51.4192580  10.4750240  31.4869790  51.7646180
   9.2026490  25.1534400  40.5145930   9.6419770  24.3156830  40.3683750
   9.9154910  25.7863800  40.6010070   7.3121870  30.0930470  44.4827170
   7.7517780  30.8354800  44.0682560   7.2508760  30.3357040  45.4066130
   2.7872840  31.1176300  55.3847190   2.7588270  31.5219250  54.5175620
   2.6237810  30.1886660  55.2218790  12.7843630  16.4077210  38.8286970
  12.4716290  16.5004040  39.7286040  13.5456100  16.9858240  38.7784400
  14.1420910  29.0916250  53.8411370  14.2683970  28.8528130  52.9228550
  14.1842290  28.2600790  54.3133450   8.0037650  32.7944250  52.4106180
   8.5182320  32.7052260  53.2128610   7.1606730  33.1403950  52.7034090
   9.9792050  33.0799590  41.8390180   9.8193190  32.7902530  42.7372010
   9.8138760  32.3039720  41.3035410   2.4580430  32.8598120  43.6161800
   2.2822910  31.9433660  43.4029600   1.6036170  33.2185410  43.8559600
   9.6818180  30.5887150  40.3988180   8.9883340  30.5864440  39.7390460
  10.4241040  30.1646470  39.9682350   9.2468110  32.2149860  44.4736670
   9.7025060  31.4339240  44.7875290   9.5860630  32.9256680  45.0177850
  13.9944920  21.1448710  54.8061110  13.3789190  21.6528380  54.2776570
  13.6741340  20.2447040  54.7487050   6.0559240  19.9840600  52.2723300
   5.5938610  20.1923620  53.0843240   5.6537350  19.1699950  51.9693970
  11.0563750  21.2049550  53.4019960  10.2057340  20.9055300  53.7229030
  10.8965540  21.4491560  52.4903780   8.1513460  22.7051300  55.5018750
   8.4766870  21.8715050  55.1620980   8.9393790  23.2279820  55.6497080
   4.8848250  16.7382780  41.5493810   4.2602430  16.7342650  42.2747120
   4.7978370  15.8713740  41.1529780   3.8065330  17.6619410  48.5277580
   4.1037660  18.5682240  48.4469600   4.3550890  17.1738190  47.9137150
   8.7901410  22.2469020  42.9959880   8.1910300  22.9704820  42.8123500
   9.3381020  22.1845800  42.2136330   4.0002860  23.1391230  55.0629500
   3.9046460  22.1985960  54.9129900   4.8434840  23.3606300  54.6677570
   7.3966280  20.8832560  45.0263160   7.7895850  21.2004760  44.2131850
   7.7583130  20.0044440  45.1407680   7.9821420  23.4738310  49.1213940
   7.2502540  23.9825120  49.4704040   7.5845760  22.6568290  48.8202720
   4.4198810  20.1492510  47.5266430   4.4234870  19.7082460  46.6770970
   5.3149930  20.4709840  47.6338250   4.4818960  21.1504590  40.5173190
   4.6031780  21.1091070  41.4659010   4.0967470  22.0128740  40.3619920
   8.4447330  18.9271990  48.5336880   8.4620070  19.3780640  49.3778730
   8.1962910  18.0277630  48.7470320   3.4940460  23.4605730  39.9156490
   2.9257360  23.0123980  39.2892400   4.2029460  23.8198510  39.3821640
  11.8718080  16.3404170  54.3723260  12.1963850  15.6093830  54.8981240
  11.9074590  16.0217810  53.4704250   4.7206780  24.2094290  49.2731840
   5.0876910  23.7352860  50.0193180   4.5311840  25.0835860  49.6140180
   2.5106150  23.2502930  51.5916050   2.2063220  24.1294910  51.8166410
   3.4652610  23.3102720  51.6273490  11.7975920  26.4529280  47.9809290
  12.5175040  26.9484570  47.5905400  11.5957740  25.7747170  47.3363160
   7.2585860  17.8467240  42.1238680   6.4450470  17.3480410  42.0483990
   7.0647810  18.6865490  41.7075030   7.1794720  26.5238340  53.8678290
   7.1132030  25.6034010  53.6135880   6.5499860  26.6213780  54.5822930
   9.9734250  22.2186890  40.4200840  10.8613870  22.5304120  40.2452180
   9.9439340  21.3459140  40.0281420   5.9694840  28.3910580  41.0989010
   6.3110540  29.1352810  40.6032330   5.1407550  28.7041700  41.4613840
   1.7683000  24.5489910  55.6226960   1.4683140  24.6947090  54.7254780
   2.5394240  23.9895200  55.5300350   7.1111450  29.3458910  53.6182090
   7.1255990  28.4139870  53.4001000   6.4036550  29.4318670  54.2571860
  12.2448520  23.5298730  39.8880700  12.1612240  23.9612950  39.0377140
  12.9642710  23.9897080  40.3207520  13.3222660  25.9866250  52.9650670
  12.5970850  26.5795030  52.7680060  13.8498120  25.9789790  52.1664040
  13.2735770  30.3840990  42.6162830  12.6311930  29.7296610  42.8906550
  12.8866430  30.7896080  41.8403500   8.8522250  27.7126420  46.4634520
   9.2046070  27.1154550  45.8035890   7.9684580  27.3870650  46.6342770
   4.9385530  28.4724110  43.8704930   5.6256660  29.0193320  44.2512520
   4.1517950  29.0164840  43.9054540   4.2412740  25.4770140  43.4830290
   4.6975520  26.2875390  43.7090480   3.8900950  25.1593280  44.3148780
   6.5445350  30.9876480  50.7122590   7.1887570  31.1935860  51.3896010
   6.9074790  30.2264880  50.2593440   7.8177430  28.9908830  49.4300040
   8.4599660  28.2901990  49.5432210   8.3426780  29.7707270  49.2496930
  11.6633150  29.2757450  39.1539180  11.4370730  28.5587890  39.7463820
  11.2729350  29.0269890  38.3160930   9.5915050  29.7903730  52.6336100
   9.9271290  30.3770420  53.3114020   8.6715390  29.6596440  52.8633890
  11.2449400  27.1929390  40.8153340  10.9571100  27.6542080  41.6031220
  12.0401570  26.7327160  41.0837560   3.4617800  30.6855510  40.7457310
   3.4527900  31.4185200  40.1301820   2.5416160  30.4387090  40.8384270
   8.6357230  20.0721220  51.1660960   9.0038050  19.2516430  51.4940530
   7.7755430  20.1323110  51.5816610  12.0019260  19.0278160  41.9748520
  11.3732420  19.1323830  41.2606750  11.5071180  19.2474940  42.7642400
   6.4477400  30.7483750  39.4082500   6.5489380  30.5447740  38.4784480
   5.5479140  30.4942030  39.6130280   3.9703290  21.3064110  43.3906400
   3.2619440  21.7750450  43.8320010   4.2547770  20.6486120  44.0251590
   5.5959220  22.7260810  51.3898930   6.0944470  23.2006630  52.0550780
   5.7382170  21.8024330  51.5968960   8.0018720  18.0314770  44.8302190
   7.8786500  18.0500900  43.8811700   8.9503280  18.0793710  44.9500590
   5.0895510  33.2670070  44.1030170   5.3437010  33.2291460  43.1809540
   4.1407990  33.1403400  44.0958420   2.1738310  19.6149190  40.7657110
   3.0228840  20.0519340  40.6997300   1.8069580  19.9269450  41.5929170
  12.8026080  18.9428770  52.2327320  12.2999680  19.6834170  52.5721130
  13.6182740  19.3312770  51.9164110  11.0948090  24.1861950  45.6788680
  10.1538230  24.2012180  45.8536370  11.4092160  23.3997910  46.1248980
  13.0973670  31.3570800  47.3542940  13.2221090  32.1801970  47.8266750
  13.9639230  31.1461530  47.0067090   3.6793510  32.6232320  38.8485640
   4.4722120  32.9121150  38.3967430   3.1597860  32.1924490  38.1698120
   9.8414480  32.4708240  54.7730470  10.7936230  32.3866260  54.7230710
   9.6942700  33.1349950  55.4464260  12.7323680  31.8502450  40.2722380
  12.4465190  31.4367590  39.4576560  12.5343230  32.7790160  40.1522900
   4.1970910  27.8435730  38.7127990   4.0921550  27.2288080  39.4389370
   4.0295130  27.3201620  37.9291000   4.3485230  26.5292530  54.6917220
   3.5830900  27.0977530  54.6071890   4.5301190  26.2368740  53.7985450
   7.4373640  26.9055760  39.3169980   6.8883740  27.3525060  39.9612720
   8.0592900  26.4005010  39.8407650  11.4908580  28.2597860  55.2492240
  12.2318050  28.5973620  54.7459700  10.7281260  28.4289920  54.6962010
   3.1048760  25.8646680  41.2135280   3.5265180  25.6986550  42.0566670
   3.2299600  25.0546910  40.7190420   5.6176400  24.8884290  38.4612380
   6.1382060  24.1733310  38.0953530   6.2644800  25.5270160  38.7612890
  10.1654240  26.3112690  53.7847450  10.5795260  26.4657770  54.6337870
   9.2305240  26.4367910  53.9473230   4.5209920  17.3678840  51.1330940
   4.0727220  17.3903100  50.2876490   3.8875120  16.9697860  51.7301240
   4.9269470  26.2633170  51.7543380   5.3457580  27.1065900  51.5819620
   4.0078100  26.4005210  51.5250160   7.2633370  23.9949350  53.1381220
   7.3829580  23.3990490  53.8776060   8.1227370  24.0319040  52.7182520
   9.6021270  24.5486540  51.7143730   9.0756490  25.0729160  51.1108870
   9.9452610  25.1813930  52.3453460   2.0007660  21.9379910  38.1593440
   1.7996720  21.0747270  38.5206780   1.8299710  21.8513270  37.2215040
   2.7776890  32.5686180  52.8701110   2.2397980  33.2932240  52.5509810
   3.0310850  32.0916520  52.0798450   4.0302140  20.5370700  54.3957040
   4.6201830  20.2286550  55.0834860   3.2122380  20.0650450  54.5516940
   8.8495570  20.1536510  54.6290060   8.1611090  19.4918050  54.5640050
   9.5701590  19.7074780  55.0738520   9.4795970  16.7488140  40.6880320
   9.7598260  15.9056040  41.0439740   8.7061700  16.9811250  41.2019070
   5.6339100  33.8037390  53.1287760   5.5597800  34.7072530  53.4360130
   4.7317940  33.4849290  53.1009830   4.0175390  17.9815150  39.1327520
   3.6697390  17.3039140  38.5529970   4.2188160  17.5204660  39.9470910
   6.1824430  32.9695900  40.7514120   7.0775220  33.3080870  40.7732880
   6.2142060  32.2475310  40.1238400  13.1618780  31.4999570  53.4580320
  12.5620770  31.5592130  52.7144240  13.2912680  30.5604550  53.5877170
  14.4020230  29.2417390  38.7950030  13.5713190  29.3094040  39.2657260
  14.5792060  30.1321510  38.4916890  13.8576690  25.9864870  41.2984230
  14.6195600  26.5561520  41.4043920  13.8731060  25.4192070  42.0692540
  14.8636660  26.8414970  46.1426160  15.2345490  26.0582290  45.7362130
  15.5038590  27.5304070  45.9643460  11.8470420  28.2251550  51.5556480
  11.0330260  28.6548710  51.8182270  12.2544620  28.8369960  50.9425530
  13.9095860  26.2799240  38.4556750  14.1844700  27.1878120  38.3275970
  13.7206600  26.2161770  39.3918740  10.3071470  19.3044090  39.7510380
  10.7256350  19.1175070  38.9107040  10.0007530  18.4523140  40.0613310
  13.8061200  24.2168230  43.4486180  13.4304800  23.4496160  43.0167470
  13.0764320  24.5990930  43.9361110  13.1960820  23.3639750  53.0825700
  12.9646910  23.1352500  52.1823650  13.4565370  24.2839300  53.0370590
  13.0812160  22.4425720  46.7493420  13.6049640  21.9488370  46.1183590
  13.6671580  22.5776080  47.4940990  13.2601880  22.5265590  50.2712970
  12.3104590  22.4929130  50.3857960  13.4414890  23.4365700  50.0362740
  12.5712130  21.6999070  42.6885830  13.0671250  21.4669940  43.4734710
  12.3728200  20.8610910  42.2723470  13.9999290  20.3360020  45.2223510
  13.8898570  20.1816060  46.1605780  14.7606880  19.8080960  44.9798920
  12.3465010  16.2754150  51.6806510  12.9837230  16.8888290  52.0465700
  12.4939900  16.3114810  50.7355740  14.8889560  18.1667940  38.4629650
  15.8138870  18.0349120  38.2547940  14.8665350  18.2460760  39.4166100
  14.9628050  18.9378600  41.0886360  14.1679550  18.8723720  41.6179270
  15.1671330  19.8729240  41.0771710  11.9046470  32.9770150  45.0824750
  12.5005540  32.6554720  44.4059170  12.1624620  32.5041970  45.8738020
   3.5115070  30.9647650  50.8325100   3.2706430  31.2322210  49.9455620
   4.4517710  31.1353380  50.8875960   5.7169490  17.4280340  54.5881610
   5.6558380  18.0202170  55.3377020   6.6569870  17.3206300  54.4431870
   8.3544050  17.0850400  54.2273900   8.9684460  17.4029690  53.5654980
   8.8993610  16.5998990  54.8469760  14.7719230  32.9842030  51.6335740
  14.2777510  33.3810900  50.9162870  14.1632520  32.3591240  52.0273020
   9.0952090  15.6482540  50.5543190   8.2211930  15.9817650  50.3516120
   8.9862840  15.1755720  51.3795060  10.0024070  17.8553410  51.9384910
   9.6737430  17.0405170  51.5586640  10.9506370  17.8123220  51.8150600
  12.4558680  33.6265450  48.9122480  11.9961650  34.3781260  48.5380500
  11.8271140  32.9071920  48.8537280   2.8854400  31.9353690  48.0870610
   3.4019420  31.3241050  47.5618870   3.5351780  32.4382470  48.5781620
   5.6249900  32.8262180  48.9139590   5.9127710  32.5716480  48.0372600
   6.1373120  32.2739540  49.5045160   6.8426910  16.5652380  49.4936100
   6.0598700  17.0397880  49.7732860   6.5489840  15.6607210  49.3849280
  11.3947980  17.2675480  47.5385190  11.8356070  17.2120580  46.6906790
  11.1255570  18.1833490  47.6095370  13.2586550  16.8990720  45.5494010
  13.1974950  15.9551940  45.4025030  14.0378580  17.0070810  46.0947470
   4.7281130  18.9839130  45.0052130   3.9155640  18.6096020  44.6648010
   5.2322770  18.2284210  45.3073320   9.2306110  15.6481580  46.2435200
   9.8335480  16.2201790  46.7183720   8.4899100  16.2121020  46.0209100
  12.3740710  16.0503140  41.5175480  12.5691340  16.9486590  41.7842910
  11.5870580  15.8190220  42.0108430   2.7530310  17.1339050  43.6097180
   2.1233050  16.4326360  43.7767310   2.2135450  17.8943180  43.3930340
  13.9267320  33.2903850  43.2782040  14.1019510  32.6041590  42.6342960
  13.2288890  33.8150900  42.8858710   1.7694970  33.6798690  40.8317350
   2.5013790  33.3957970  40.2841240   2.0288640  33.4411970  41.7216730
   8.3859480  23.8469080  26.9864880   8.3053530  22.9323690  26.7156590
   7.9723900  24.3436150  26.2804590   6.5177520  25.6248100  28.8674150
   5.7419620  25.1448540  29.1572720   7.1690450  24.9453750  28.6930310
  10.5384950  30.0308290  27.6473280  10.0766480  29.2595530  27.9760450
  11.3510500  30.0574360  28.1525730   6.7648260  32.3166300  27.2677270
   6.1459700  32.7723800  26.6971710   7.6200040  32.4717760  26.8666970
   5.9586510  28.3005290  28.8744310   5.8894790  27.3595230  28.7133440
   6.7206370  28.3906700  29.4466880   6.9891680  21.1075670  29.1013240
   7.3656500  20.2347550  28.9886910   6.8911190  21.4434370  28.2103680
  10.7715800  18.6026110  26.0341580  11.5925420  18.1122680  26.0767060
  10.8049880  19.1923770  26.7873420   2.9604420  22.4487670  28.8955860
   3.4682640  22.9468640  29.5360880   3.4917660  21.6722870  28.7195220
  15.0615350  20.6192860  32.5985210  14.3567520  21.0074570  32.0800320
  15.3273270  21.3143150  33.2006140   7.6311610  27.2005540  24.6609180
   7.0128880  27.6654990  24.0971900   8.1434860  27.8933020  25.0778690
   2.4943370  26.7281410  31.3392780   2.1612750  27.3550330  31.9813850
   2.6710050  27.2543290  30.5594450  11.0077280  20.5426490  28.8069120
  10.3032850  20.8311380  29.3872230  11.3689440  21.3526600  28.4468680
  12.6240060  30.1601620  31.0696600  11.9403580  30.8300730  31.0613270
  13.1634350  30.3582270  30.3041460  14.0764200  19.9881280  29.1978330
  13.1289110  20.0220260  29.3293760  14.4014190  20.8020230  29.5827690
   4.6083740  16.2878460  27.4934320   4.9158720  15.7325350  26.7769820
   3.6784440  16.4222920  27.3107310  10.1598800  32.0045750  29.7841780
  10.1725960  31.6008040  28.9164040   9.6074020  32.7793040  29.6803210
  11.4544220  28.7261970  24.8731950  11.3440550  27.7836300  24.9981370
  11.4512470  29.0877610  25.7594710   9.5584240  26.9075590  31.1124390
   9.9753030  26.6935700  30.2777850  10.2824060  27.1648380  31.6833010
   6.9964500  24.3527290  24.2294440   6.0693780  24.2864670  24.4582910
   7.1489320  25.2907420  24.1149680   6.9833580  20.6244290  21.2261600
   6.0437250  20.7858250  21.3114060   7.3016840  21.3429970  20.6797590
  13.5046340  25.3062810  31.2040630  12.6764970  25.3755900  30.7290760
  14.0996820  25.8917120  30.7356460  11.0261790  25.9147590  24.7329690
  10.4074210  25.5767140  24.0855990  11.0086240  25.2707350  25.4408880
  10.4688350  22.0932130  32.1495500  10.0559530  22.9185840  32.4035490
   9.7364300  21.5077170  31.9571860   2.6021140  24.8792030  27.0114170
   2.1978140  24.1669280  26.5160070   2.6884260  24.5345270  27.9002210
   3.0702840  28.5659590  29.1753380   2.7731130  27.9605060  28.4961160
   4.0202660  28.6036900  29.0642740  11.1588450  32.1391460  32.8376480
  10.6819010  32.9463650  32.6449090  10.4750240  31.4869790  32.9902690
   9.2026490  25.1534400  21.7402440   9.6419770  24.3156830  21.5940260
   9.9154910  25.7863800  21.8266580   7.3121870  30.0930470  25.7083680
   7.7517780  30.8354800  25.2939070   7.2508760  30.3357040  26.6322640
   2.7872840  31.1176300  36.6103700   2.7588270  31.5219250  35.7432130
   2.6237810  30.1886660  36.4475300  12.7843630  16.4077210  20.0543480
  12.4716290  16.5004040  20.9542550  13.5456100  16.9858240  20.0040910
  14.7387660  31.9003400  37.9067870  15.2147380  32.3786290  38.5856950
  15.3594820  31.8320890  37.1813370  14.1420910  29.0916250  35.0667880
  14.2683970  28.8528130  34.1485060  14.1842290  28.2600790  35.5389960
   8.0037650  32.7944250  33.6362690   8.5182320  32.7052260  34.4385120
   7.1606730  33.1403950  33.9290600   9.9792050  33.0799590  23.0646690
   9.8193190  32.7902530  23.9628520   9.8138760  32.3039720  22.5291920
   2.4580430  32.8598120  24.8418310   2.2822910  31.9433660  24.6286110
   1.6036170  33.2185410  25.0816110   9.6818180  30.5887150  21.6244690
   8.9883340  30.5864440  20.9646970  10.4241040  30.1646470  21.1938860
   9.2468110  32.2149860  25.6993180   9.7025060  31.4339240  26.0131800
   9.5860630  32.9256680  26.2434360  13.9944920  21.1448710  36.0317620
  13.3789190  21.6528380  35.5033080  13.6741340  20.2447040  35.9743560
   6.0559240  19.9840600  33.4979810   5.5938610  20.1923620  34.3099750
   5.6537350  19.1699950  33.1950480  11.0563750  21.2049550  34.6276470
  10.2057340  20.9055300  34.9485540  10.8965540  21.4491560  33.7160290
   8.1513460  22.7051300  36.7275260   8.4766870  21.8715050  36.3877490
   8.9393790  23.2279820  36.8753590   4.8848250  16.7382780  22.7750320
   4.2602430  16.7342650  23.5003630   4.7978370  15.8713740  22.3786290
   3.8065330  17.6619410  29.7534090   4.1037660  18.5682240  29.6726110
   4.3550890  17.1738190  29.1393660   8.7901410  22.2469020  24.2216390
   8.1910300  22.9704820  24.0380010   9.3381020  22.1845800  23.4392840
   4.0002860  23.1391230  36.2886010   3.9046460  22.1985960  36.1386410
   4.8434840  23.3606300  35.8934080   7.3966280  20.8832560  26.2519670
   7.7895850  21.2004760  25.4388360   7.7583130  20.0044440  26.3664190
   5.7058450  19.6339870  37.5116530   5.0156770  19.4412070  38.1462620
   6.4490750  19.9174510  38.0440830   7.9821420  23.4738310  30.3470450
   7.2502540  23.9825120  30.6960550   7.5845760  22.6568290  30.0459230
   4.4198810  20.1492510  28.7522940   4.4234870  19.7082460  27.9027480
   5.3149930  20.4709840  28.8594760   4.4818960  21.1504590  21.7429700
   4.6031780  21.1091070  22.6915520   4.0967470  22.0128740  21.5876430
   8.4447330  18.9271990  29.7593390   8.4620070  19.3780640  30.6035240
   8.1962910  18.0277630  29.9726830   3.4940460  23.4605730  21.1413000
   2.9257360  23.0123980  20.5148910   4.2029460  23.8198510  20.6078150
  11.8718080  16.3404170  35.5979770  12.1963850  15.6093830  36.1237750
  11.9074590  16.0217810  34.6960760   4.7206780  24.2094290  30.4988350
   5.0876910  23.7352860  31.2449690   4.5311840  25.0835860  30.8396690
   2.5106150  23.2502930  32.8172560   2.2063220  24.1294910  33.0422920
   3.4652610  23.3102720  32.8530000  11.7975920  26.4529280  29.2065800
  12.5175040  26.9484570  28.8161910  11.5957740  25.7747170  28.5619670
   7.2585860  17.8467240  23.3495190   6.4450470  17.3480410  23.2740500
   7.0647810  18.6865490  22.9331540   7.1794720  26.5238340  35.0934800
   7.1132030  25.6034010  34.8392390   6.5499860  26.6213780  35.8079440
   9.9734250  22.2186890  21.6457350  10.8613870  22.5304120  21.4708690
   9.9439340  21.3459140  21.2537930   5.9694840  28.3910580  22.3245520
   6.3110540  29.1352810  21.8288840   5.1407550  28.7041700  22.6870350
   1.7683000  24.5489910  36.8483470   1.4683140  24.6947090  35.9511290
   2.5394240  23.9895200  36.7556860   7.1111450  29.3458910  34.8438600
   7.1255990  28.4139870  34.6257510   6.4036550  29.4318670  35.4828370
  12.2448520  23.5298730  21.1137210  12.1612240  23.9612950  20.2633650
  12.9642710  23.9897080  21.5464030  13.3222660  25.9866250  34.1907180
  12.5970850  26.5795030  33.9936570  13.8498120  25.9789790  33.3920550
  13.2735770  30.3840990  23.8419340  12.6311930  29.7296610  24.1163060
  12.8866430  30.7896080  23.0660010   8.8522250  27.7126420  27.6891030
   9.2046070  27.1154550  27.0292400   7.9684580  27.3870650  27.8599280
   4.9385530  28.4724110  25.0961440   5.6256660  29.0193320  25.4769030
   4.1517950  29.0164840  25.1311050   4.2412740  25.4770140  24.7086800
   4.6975520  26.2875390  24.9346990   3.8900950  25.1593280  25.5405290
   6.5445350  30.9876480  31.9379100   7.1887570  31.1935860  32.6152520
   6.9074790  30.2264880  31.4849950   7.8177430  28.9908830  30.6556550
   8.4599660  28.2901990  30.7688720   8.3426780  29.7707270  30.4753440
  11.6633150  29.2757450  20.3795690  11.4370730  28.5587890  20.9720330
  11.2729350  29.0269890  19.5417440   9.5915050  29.7903730  33.8592610
   9.9271290  30.3770420  34.5370530   8.6715390  29.6596440  34.0890400
  11.2449400  27.1929390  22.0409850  10.9571100  27.6542080  22.8287730
  12.0401570  26.7327160  22.3094070   5.4203630  29.8395060  37.0280670
   5.1000500  29.1204300  37.5726360   4.7461990  30.5150130  37.1016730
   3.4617800  30.6855510  21.9713820   3.4527900  31.4185200  21.3558330
   2.5416160  30.4387090  22.0640780   8.6357230  20.0721220  32.3917470
   9.0038050  19.2516430  32.7197040   7.7755430  20.1323110  32.8073120
  12.0019260  19.0278160  23.2005030  11.3732420  19.1323830  22.4863260
  11.5071180  19.2474940  23.9898910   6.4477400  30.7483750  20.6339010
   6.5489380  30.5447740  19.7040990   5.5479140  30.4942030  20.8386790
   3.9703290  21.3064110  24.6162910   3.2619440  21.7750450  25.0576520
   4.2547770  20.6486120  25.2508100   5.5959220  22.7260810  32.6155440
   6.0944470  23.2006630  33.2807290   5.7382170  21.8024330  32.8225470
   8.0018720  18.0314770  26.0558700   7.8786500  18.0500900  25.1068210
   8.9503280  18.0793710  26.1757100   5.0895510  33.2670070  25.3286680
   5.3437010  33.2291460  24.4066050   4.1407990  33.1403400  25.3214930
   2.1738310  19.6149190  21.9913620   3.0228840  20.0519340  21.9253810
   1.8069580  19.9269450  22.8185680  12.8026080  18.9428770  33.4583830
  12.2999680  19.6834170  33.7977640  13.6182740  19.3312770  33.1420620
  11.0948090  24.1861950  26.9045190  10.1538230  24.2012180  27.0792880
  11.4092160  23.3997910  27.3505490  13.0973670  31.3570800  28.5799450
  13.2221090  32.1801970  29.0523260  13.9639230  31.1461530  28.2323600
   3.6793510  32.6232320  20.0742150   4.4722120  32.9121150  19.6223940
   3.1597860  32.1924490  19.3954630   8.4114110  28.7427950  37.3877570
   7.8052270  28.7659550  36.6473320   8.1068220  28.0110990  37.9244820
   9.8414480  32.4708240  35.9986980  10.7936230  32.3866260  35.9487220
   9.6942700  33.1349950  36.6720770  12.7323680  31.8502450  21.4978890
  12.4465190  31.4367590  20.6833070  12.5343230  32.7790160  21.3779410
   4.1970910  27.8435730  19.9384500   4.0921550  27.2288080  20.6645880
   4.0295130  27.3201620  19.1547510   4.3485230  26.5292530  35.9173730
   3.5830900  27.0977530  35.8328400   4.5301190  26.2368740  35.0241960
   7.4373640  26.9055760  20.5426490   6.8883740  27.3525060  21.1869230
   8.0592900  26.4005010  21.0664160  11.4908580  28.2597860  36.4748750
  12.2318050  28.5973620  35.9716210  10.7281260  28.4289920  35.9218520
   3.1048760  25.8646680  22.4391790   3.5265180  25.6986550  23.2823180
   3.2299600  25.0546910  21.9446930   5.6176400  24.8884290  19.6868890
   6.1382060  24.1733310  19.3210040   6.2644800  25.5270160  19.9869400
  10.1654240  26.3112690  35.0103960  10.5795260  26.4657770  35.8594380
   9.2305240  26.4367910  35.1729740  10.6376410  23.6508850  37.0143110
  11.2197180  22.8961170  36.9263590  10.8138180  24.1816290  36.2374590
   4.5209920  17.3678840  32.3587450   4.0727220  17.3903100  31.5133000
   3.8875120  16.9697860  32.9557750   4.9269470  26.2633170  32.9799890
   5.3457580  27.1065900  32.8076130   4.0078100  26.4005210  32.7506670
   7.2633370  23.9949350  34.3637730   7.3829580  23.3990490  35.1032570
   8.1227370  24.0319040  33.9439030   9.6021270  24.5486540  32.9400240
   9.0756490  25.0729160  32.3365380   9.9452610  25.1813930  33.5709970
   2.0007660  21.9379910  19.3849950   1.7996720  21.0747270  19.7463290
   1.8299710  21.8513270  18.4471550   2.7776890  32.5686180  34.0957620
   2.2397980  33.2932240  33.7766320   3.0310850  32.0916520  33.3054960
   4.0302140  20.5370700  35.6213550   4.6201830  20.2286550  36.3091370
   3.2122380  20.0650450  35.7773450   8.8495570  20.1536510  35.8546570
   8.1611090  19.4918050  35.7896560   9.5701590  19.7074780  36.2995030
   9.4795970  16.7488140  21.9136830   9.7598260  15.9056040  22.2696250
   8.7061700  16.9811250  22.4275580   5.6339100  33.8037390  34.3544270
   5.5597800  34.7072530  34.6616640   4.7317940  33.4849290  34.3266340
   4.0175390  17.9815150  20.3584030   3.6697390  17.3039140  19.7786480
   4.2188160  17.5204660  21.1727420   6.1824430  32.9695900  21.9770630
   7.0775220  33.3080870  21.9989390   6.2142060  32.2475310  21.3494910
  13.1618780  31.4999570  34.6836830  12.5620770  31.5592130  33.9400750
  13.2912680  30.5604550  34.8133680  14.4020230  29.2417390  20.0206540
  13.5713190  29.3094040  20.4913770  14.5792060  30.1321510  19.7173400
  13.8576690  25.9864870  22.5240740  14.6195600  26.5561520  22.6300430
  13.8731060  25.4192070  23.2949050  14.8636660  26.8414970  27.3682670
  15.2345490  26.0582290  26.9618640  15.5038590  27.5304070  27.1899970
  11.8470420  28.2251550  32.7812990  11.0330260  28.6548710  33.0438780
  12.2544620  28.8369960  32.1682040  13.9095860  26.2799240  19.6813260
  14.1844700  27.1878120  19.5532480  13.7206600  26.2161770  20.6175250
  10.3071470  19.3044090  20.9766890  10.7256350  19.1175070  20.1363550
  10.0007530  18.4523140  21.2869820  13.8061200  24.2168230  24.6742690
  13.4304800  23.4496160  24.2423980  13.0764320  24.5990930  25.1617620
  13.1960820  23.3639750  34.3082210  12.9646910  23.1352500  33.4080160
  13.4565370  24.2839300  34.2627100  11.6348890  18.5896180  37.0861910
  12.5119070  18.5979580  37.4695910  11.6469730  17.8527020  36.4754260
  13.0812160  22.4425720  27.9749930  13.6049640  21.9488370  27.3440100
  13.6671580  22.5776080  28.7197500  13.2601880  22.5265590  31.4969480
  12.3104590  22.4929130  31.6114470  13.4414890  23.4365700  31.2619250
  12.5712130  21.6999070  23.9142340  13.0671250  21.4669940  24.6991220
  12.3728200  20.8610910  23.4979980  13.9999290  20.3360020  26.4480020
  13.8898570  20.1816060  27.3862290  14.7606880  19.8080960  26.2055430
  12.3465010  16.2754150  32.9063020  12.9837230  16.8888290  33.2722210
  12.4939900  16.3114810  31.9612250  14.8889560  18.1667940  19.6886160
  15.8138870  18.0349120  19.4804450  14.8665350  18.2460760  20.6422610
  14.9628050  18.9378600  22.3142870  14.1679550  18.8723720  22.8435780
  15.1671330  19.8729240  22.3028220  11.9046470  32.9770150  26.3081260
  12.5005540  32.6554720  25.6315680  12.1624620  32.5041970  27.0994530
   3.5115070  30.9647650  32.0581610   3.2706430  31.2322210  31.1712130
   4.4517710  31.1353380  32.1132470   5.7169490  17.4280340  35.8138120
   5.6558380  18.0202170  36.5633530   6.6569870  17.3206300  35.6688380
   8.3544050  17.0850400  35.4530410   8.9684460  17.4029690  34.7911490
   8.8993610  16.5998990  36.0726270  14.7719230  32.9842030  32.8592250
  14.2777510  33.3810900  32.1419380  14.1632520  32.3591240  33.2529530
   9.0952090  15.6482540  31.7799700   8.2211930  15.9817650  31.5772630
   8.9862840  15.1755720  32.6051570  10.0024070  17.8553410  33.1641420
   9.6737430  17.0405170  32.7843150  10.9506370  17.8123220  33.0407110
  12.4558680  33.6265450  30.1378990  11.9961650  34.3781260  29.7637010
  11.8271140  32.9071920  30.0793790   2.8854400  31.9353690  29.3127120
   3.4019420  31.3241050  28.7875380   3.5351780  32.4382470  29.8038130
   5.6249900  32.8262180  30.1396100   5.9127710  32.5716480  29.2629110
   6.1373120  32.2739540  30.7301670   6.8426910  16.5652380  30.7192610
   6.0598700  17.0397880  30.9989370   6.5489840  15.6607210  30.6105790
  11.3947980  17.2675480  28.7641700  11.8356070  17.2120580  27.9163300
  11.1255570  18.1833490  28.8351880  13.2586550  16.8990720  26.7750520
  13.1974950  15.9551940  26.6281540  14.0378580  17.0070810  27.3203980
   4.7281130  18.9839130  26.2308640   3.9155640  18.6096020  25.8904520
   5.2322770  18.2284210  26.5329830   9.2306110  15.6481580  27.4691710
   9.8335480  16.2201790  27.9440230   8.4899100  16.2121020  27.2465610
  12.3740710  16.0503140  22.7431990  12.5691340  16.9486590  23.0099420
  11.5870580  15.8190220  23.2364940   2.7530310  17.1339050  24.8353690
   2.1233050  16.4326360  25.0023820   2.2135450  17.8943180  24.6186850
   5.6922260  33.7478280  37.5064300   6.6189570  33.5122550  37.5500260
   5.6772690  34.5750280  37.0250330  13.9267320  33.2903850  24.5038550
  14.1019510  32.6041590  23.8599470  13.2288890  33.8150900  24.1115220
   2.8785870  16.4123030  37.2706180   2.5970140  16.9156630  36.5067000
   3.2605570  15.6144780  36.9048310   1.7694970  33.6798690  22.0573860
   2.5013790  33.3957970  21.5097750   2.0288640  33.4411970  22.9473240
   9.4801330  15.8276610  37.8486650   9.3666780  16.1471220  38.7438170
  10.2971070  16.2289120  37.5523930  12.2599820  32.9748140  37.3305340
  13.0525140  32.4797370  37.1231300  12.5532970  33.6538280  37.9380950
   8.3859480  23.8469080   8.2121390   8.3053530  22.9323690   7.9413100
   7.9723900  24.3436150   7.5061100   6.5177520  25.6248100  10.0930660
   5.7419620  25.1448540  10.3829230   7.1690450  24.9453750   9.9186820
  10.5384950  30.0308290   8.8729790  10.0766480  29.2595530   9.2016960
  11.3510500  30.0574360   9.3782240   6.7648260  32.3166300   8.4933780
   6.1459700  32.7723800   7.9228220   7.6200040  32.4717760   8.0923480
   5.9586510  28.3005290  10.1000820   5.8894790  27.3595230   9.9389950
   6.7206370  28.3906700  10.6723390   6.9891680  21.1075670  10.3269750
   7.3656500  20.2347550  10.2143420   6.8911190  21.4434370   9.4360190
  10.7715800  18.6026110   7.2598090  11.5925420  18.1122680   7.3023570
  10.8049880  19.1923770   8.0129930   2.9604420  22.4487670  10.1212370
   3.4682640  22.9468640  10.7617390   3.4917660  21.6722870   9.9451730
  15.0615350  20.6192860  13.8241720  14.3567520  21.0074570  13.3056830
  15.3273270  21.3143150  14.4262650   7.6311610  27.2005540   5.8865690
   7.0128880  27.6654990   5.3228410   8.1434860  27.8933020   6.3035200
   2.4943370  26.7281410  12.5649290   2.1612750  27.3550330  13.2070360
   2.6710050  27.2543290  11.7850960  11.0077280  20.5426490  10.0325630
  10.3032850  20.8311380  10.6128740  11.3689440  21.3526600   9.6725190
  12.6240060  30.1601620  12.2953110  11.9403580  30.8300730  12.2869780
  13.1634350  30.3582270  11.5297970  14.0764200  19.9881280  10.4234840
  13.1289110  20.0220260  10.5550270  14.4014190  20.8020230  10.8084200
   4.6083740  16.2878460   8.7190830   4.9158720  15.7325350   8.0026330
   3.6784440  16.4222920   8.5363820  10.1598800  32.0045750  11.0098290
  10.1725960  31.6008040  10.1420550   9.6074020  32.7793040  10.9059720
  11.4544220  28.7261970   6.0988460  11.3440550  27.7836300   6.2237880
  11.4512470  29.0877610   6.9851220   9.5584240  26.9075590  12.3380900
   9.9753030  26.6935700  11.5034360  10.2824060  27.1648380  12.9089520
   6.9964500  24.3527290   5.4550950   6.0693780  24.2864670   5.6839420
   7.1489320  25.2907420   5.3406190   6.9833580  20.6244290   2.4518110
   6.0437250  20.7858250   2.5370570   7.3016840  21.3429970   1.9054100
  13.5046340  25.3062810  12.4297140  12.6764970  25.3755900  11.9547270
  14.0996820  25.8917120  11.9612970  11.0261790  25.9147590   5.9586200
  10.4074210  25.5767140   5.3112500  11.0086240  25.2707350   6.6665390
  10.4688350  22.0932130  13.3752010  10.0559530  22.9185840  13.6292000
   9.7364300  21.5077170  13.1828370   2.6021140  24.8792030   8.2370680
   2.1978140  24.1669280   7.7416580   2.6884260  24.5345270   9.1258720
   3.0702840  28.5659590  10.4009890   2.7731130  27.9605060   9.7217670
   4.0202660  28.6036900  10.2899250  11.1588450  32.1391460  14.0632990
  10.6819010  32.9463650  13.8705600  10.4750240  31.4869790  14.2159200
   9.2026490  25.1534400   2.9658950   9.6419770  24.3156830   2.8196770
   9.9154910  25.7863800   3.0523090   7.3121870  30.0930470   6.9340190
   7.7517780  30.8354800   6.5195580   7.2508760  30.3357040   7.8579150
   2.7872840  31.1176300  17.8360210   2.7588270  31.5219250  16.9688640
   2.6237810  30.1886660  17.6731810  14.7387660  31.9003400  19.1324380
  15.2147380  32.3786290  19.8113460  15.3594820  31.8320890  18.4069880
  14.1420910  29.0916250  16.2924390  14.2683970  28.8528130  15.3741570
  14.1842290  28.2600790  16.7646470   8.0037650  32.7944250  14.8619200
   8.5182320  32.7052260  15.6641630   7.1606730  33.1403950  15.1547110
   9.9792050  33.0799590   4.2903200   9.8193190  32.7902530   5.1885030
   9.8138760  32.3039720   3.7548430   2.4580430  32.8598120   6.0674820
   2.2822910  31.9433660   5.8542620   1.6036170  33.2185410   6.3072620
   9.6818180  30.5887150   2.8501200   8.9883340  30.5864440   2.1903480
  10.4241040  30.1646470   2.4195370   9.2468110  32.2149860   6.9249690
   9.7025060  31.4339240   7.2388310   9.5860630  32.9256680   7.4690870
  13.9944920  21.1448710  17.2574130  13.3789190  21.6528380  16.7289590
  13.6741340  20.2447040  17.2000070   6.0559240  19.9840600  14.7236320
   5.5938610  20.1923620  15.5356260   5.6537350  19.1699950  14.4206990
  11.0563750  21.2049550  15.8532980  10.2057340  20.9055300  16.1742050
  10.8965540  21.4491560  14.9416800   8.1513460  22.7051300  17.9531770
   8.4766870  21.8715050  17.6134000   8.9393790  23.2279820  18.1010100
   4.8848250  16.7382780   4.0006830   4.2602430  16.7342650   4.7260140
   4.7978370  15.8713740   3.6042800   3.8065330  17.6619410  10.9790600
   4.1037660  18.5682240  10.8982620   4.3550890  17.1738190  10.3650170
   8.7901410  22.2469020   5.4472900   8.1910300  22.9704820   5.2636520
   9.3381020  22.1845800   4.6649350   4.0002860  23.1391230  17.5142520
   3.9046460  22.1985960  17.3642920   4.8434840  23.3606300  17.1190590
   7.3966280  20.8832560   7.4776180   7.7895850  21.2004760   6.6644870
   7.7583130  20.0044440   7.5920700   5.7058450  19.6339870  18.7373040
   5.0156770  19.4412070  19.3719130   6.4490750  19.9174510  19.2697340
   7.9821420  23.4738310  11.5726960   7.2502540  23.9825120  11.9217060
   7.5845760  22.6568290  11.2715740   4.4198810  20.1492510   9.9779450
   4.4234870  19.7082460   9.1283990   5.3149930  20.4709840  10.0851270
   4.4818960  21.1504590   2.9686210   4.6031780  21.1091070   3.9172030
   4.0967470  22.0128740   2.8132940   8.4447330  18.9271990  10.9849900
   8.4620070  19.3780640  11.8291750   8.1962910  18.0277630  11.1983340
   3.4940460  23.4605730   2.3669510   2.9257360  23.0123980   1.7405420
   4.2029460  23.8198510   1.8334660  11.8718080  16.3404170  16.8236280
  12.1963850  15.6093830  17.3494260  11.9074590  16.0217810  15.9217270
   4.7206780  24.2094290  11.7244860   5.0876910  23.7352860  12.4706200
   4.5311840  25.0835860  12.0653200   2.5106150  23.2502930  14.0429070
   2.2063220  24.1294910  14.2679430   3.4652610  23.3102720  14.0786510
  11.7975920  26.4529280  10.4322310  12.5175040  26.9484570  10.0418420
  11.5957740  25.7747170   9.7876180   7.2585860  17.8467240   4.5751700
   6.4450470  17.3480410   4.4997010   7.0647810  18.6865490   4.1588050
   7.1794720  26.5238340  16.3191310   7.1132030  25.6034010  16.0648900
   6.5499860  26.6213780  17.0335950   9.9734250  22.2186890   2.8713860
  10.8613870  22.5304120   2.6965200   9.9439340  21.3459140   2.4794440
   5.9694840  28.3910580   3.5502030   6.3110540  29.1352810   3.0545350
   5.1407550  28.7041700   3.9126860   1.7683000  24.5489910  18.0739980
   1.4683140  24.6947090  17.1767800   2.5394240  23.9895200  17.9813370
   7.1111450  29.3458910  16.0695110   7.1255990  28.4139870  15.8514020
   6.4036550  29.4318670  16.7084880  13.3222660  25.9866250  15.4163690
  12.5970850  26.5795030  15.2193080  13.8498120  25.9789790  14.6177060
  13.2735770  30.3840990   5.0675850  12.6311930  29.7296610   5.3419570
  12.8866430  30.7896080   4.2916520   8.8522250  27.7126420   8.9147540
   9.2046070  27.1154550   8.2548910   7.9684580  27.3870650   9.0855790
   4.9385530  28.4724110   6.3217950   5.6256660  29.0193320   6.7025540
   4.1517950  29.0164840   6.3567560   4.2412740  25.4770140   5.9343310
   4.6975520  26.2875390   6.1603500   3.8900950  25.1593280   6.7661800
   6.5445350  30.9876480  13.1635610   7.1887570  31.1935860  13.8409030
   6.9074790  30.2264880  12.7106460   7.8177430  28.9908830  11.8813060
   8.4599660  28.2901990  11.9945230   8.3426780  29.7707270  11.7009950
   9.5915050  29.7903730  15.0849120   9.9271290  30.3770420  15.7627040
   8.6715390  29.6596440  15.3146910  11.2449400  27.1929390   3.2666360
  10.9571100  27.6542080   4.0544240  12.0401570  26.7327160   3.5350580
   5.4203630  29.8395060  18.2537180   5.1000500  29.1204300  18.7982870
   4.7461990  30.5150130  18.3273240   3.4617800  30.6855510   3.1970330
   3.4527900  31.4185200   2.5814840   2.5416160  30.4387090   3.2897290
   8.6357230  20.0721220  13.6173980   9.0038050  19.2516430  13.9453550
   7.7755430  20.1323110  14.0329630  12.0019260  19.0278160   4.4261540
  11.3732420  19.1323830   3.7119770  11.5071180  19.2474940   5.2155420
   3.9703290  21.3064110   5.8419420   3.2619440  21.7750450   6.2833030
   4.2547770  20.6486120   6.4764610   5.5959220  22.7260810  13.8411950
   6.0944470  23.2006630  14.5063800   5.7382170  21.8024330  14.0481980
   8.0018720  18.0314770   7.2815210   7.8786500  18.0500900   6.3324720
   8.9503280  18.0793710   7.4013610   5.0895510  33.2670070   6.5543190
   5.3437010  33.2291460   5.6322560   4.1407990  33.1403400   6.5471440
   2.1738310  19.6149190   3.2170130   3.0228840  20.0519340   3.1510320
   1.8069580  19.9269450   4.0442190  12.8026080  18.9428770  14.6840340
  12.2999680  19.6834170  15.0234150  13.6182740  19.3312770  14.3677130
  11.0948090  24.1861950   8.1301700  10.1538230  24.2012180   8.3049390
  11.4092160  23.3997910   8.5762000  13.0973670  31.3570800   9.8055960
  13.2221090  32.1801970  10.2779770  13.9639230  31.1461530   9.4580110
   8.4114110  28.7427950  18.6134080   7.8052270  28.7659550  17.8729830
   8.1068220  28.0110990  19.1501330   9.8414480  32.4708240  17.2243490
  10.7936230  32.3866260  17.1743730   9.6942700  33.1349950  17.8977280
  12.7323680  31.8502450   2.7235400  12.4465190  31.4367590   1.9089580
  12.5343230  32.7790160   2.6035920   4.3485230  26.5292530  17.1430240
   3.5830900  27.0977530  17.0584910   4.5301190  26.2368740  16.2498470
   7.4373640  26.9055760   1.7683000   6.8883740  27.3525060   2.4125740
   8.0592900  26.4005010   2.2920670  11.4908580  28.2597860  17.7005260
  12.2318050  28.5973620  17.1972720  10.7281260  28.4289920  17.1475030
   3.1048760  25.8646680   3.6648300   3.5265180  25.6986550   4.5079690
   3.2299600  25.0546910   3.1703440  10.1654240  26.3112690  16.2360470
  10.5795260  26.4657770  17.0850890   9.2305240  26.4367910  16.3986250
  10.6376410  23.6508850  18.2399620  11.2197180  22.8961170  18.1520100
  10.8138180  24.1816290  17.4631100   4.5209920  17.3678840  13.5843960
   4.0727220  17.3903100  12.7389510   3.8875120  16.9697860  14.1814260
   4.9269470  26.2633170  14.2056400   5.3457580  27.1065900  14.0332640
   4.0078100  26.4005210  13.9763180   7.2633370  23.9949350  15.5894240
   7.3829580  23.3990490  16.3289080   8.1227370  24.0319040  15.1695540
   9.6021270  24.5486540  14.1656750   9.0756490  25.0729160  13.5621890
   9.9452610  25.1813930  14.7966480   2.7776890  32.5686180  15.3214130
   2.2397980  33.2932240  15.0022830   3.0310850  32.0916520  14.5311470
   4.0302140  20.5370700  16.8470060   4.6201830  20.2286550  17.5347880
   3.2122380  20.0650450  17.0029960   8.8495570  20.1536510  17.0803080
   8.1611090  19.4918050  17.0153070   9.5701590  19.7074780  17.5251540
   9.4795970  16.7488140   3.1393340   9.7598260  15.9056040   3.4952760
   8.7061700  16.9811250   3.6532090   5.6339100  33.8037390  15.5800780
   5.5597800  34.7072530  15.8873150   4.7317940  33.4849290  15.5522850
   6.1824430  32.9695900   3.2027140   7.0775220  33.3080870   3.2245900
   6.2142060  32.2475310   2.5751420  13.1618780  31.4999570  15.9093340
  12.5620770  31.5592130  15.1657260  13.2912680  30.5604550  16.0390190
  13.8576690  25.9864870   3.7497250  14.6195600  26.5561520   3.8556940
  13.8731060  25.4192070   4.5205560  14.8636660  26.8414970   8.5939180
  15.2345490  26.0582290   8.1875150  15.5038590  27.5304070   8.4156480
  11.8470420  28.2251550  14.0069500  11.0330260  28.6548710  14.2695290
  12.2544620  28.8369960  13.3938550  13.8061200  24.2168230   5.8999200
  13.4304800  23.4496160   5.4680490  13.0764320  24.5990930   6.3874130
  13.1960820  23.3639750  15.5338720  12.9646910  23.1352500  14.6336670
  13.4565370  24.2839300  15.4883610  11.6348890  18.5896180  18.3118420
  12.5119070  18.5979580  18.6952420  11.6469730  17.8527020  17.7010770
  13.0812160  22.4425720   9.2006440  13.6049640  21.9488370   8.5696610
  13.6671580  22.5776080   9.9454010  13.2601880  22.5265590  12.7225990
  12.3104590  22.4929130  12.8370980  13.4414890  23.4365700  12.4875760
  12.5712130  21.6999070   5.1398850  13.0671250  21.4669940   5.9247730
  12.3728200  20.8610910   4.7236490  13.9999290  20.3360020   7.6736530
  13.8898570  20.1816060   8.6118800  14.7606880  19.8080960   7.4311940
  12.3465010  16.2754150  14.1319530  12.9837230  16.8888290  14.4978720
  12.4939900  16.3114810  13.1868760  14.9628050  18.9378600   3.5399380
  14.1679550  18.8723720   4.0692290  15.1671330  19.8729240   3.5284730
  11.9046470  32.9770150   7.5337770  12.5005540  32.6554720   6.8572190
  12.1624620  32.5041970   8.3251040   3.5115070  30.9647650  13.2838120
   3.2706430  31.2322210  12.3968640   4.4517710  31.1353380  13.3388980
   5.7169490  17.4280340  17.0394630   5.6558380  18.0202170  17.7890040
   6.6569870  17.3206300  16.8944890   8.3544050  17.0850400  16.6786920
   8.9684460  17.4029690  16.0168000   8.8993610  16.5998990  17.2982780
  14.7719230  32.9842030  14.0848760  14.2777510  33.3810900  13.3675890
  14.1632520  32.3591240  14.4786040   9.0952090  15.6482540  13.0056210
   8.2211930  15.9817650  12.8029140   8.9862840  15.1755720  13.8308080
  10.0024070  17.8553410  14.3897930   9.6737430  17.0405170  14.0099660
  10.9506370  17.8123220  14.2663620  12.4558680  33.6265450  11.3635500
  11.9961650  34.3781260  10.9893520  11.8271140  32.9071920  11.3050300
   2.8854400  31.9353690  10.5383630   3.4019420  31.3241050  10.0131890
   3.5351780  32.4382470  11.0294640   5.6249900  32.8262180  11.3652610
   5.9127710  32.5716480  10.4885620   6.1373120  32.2739540  11.9558180
   6.8426910  16.5652380  11.9449120   6.0598700  17.0397880  12.2245880
   6.5489840  15.6607210  11.8362300  11.3947980  17.2675480   9.9898210
  11.8356070  17.2120580   9.1419810  11.1255570  18.1833490  10.0608390
  13.2586550  16.8990720   8.0007030  13.1974950  15.9551940   7.8538050
  14.0378580  17.0070810   8.5460490   4.7281130  18.9839130   7.4565150
   3.9155640  18.6096020   7.1161030   5.2322770  18.2284210   7.7586340
   9.2306110  15.6481580   8.6948220   9.8335480  16.2201790   9.1696740
   8.4899100  16.2121020   8.4722120  12.3740710  16.0503140   3.9688500
  12.5691340  16.9486590   4.2355930  11.5870580  15.8190220   4.4621450
   2.7530310  17.1339050   6.0610200   2.1233050  16.4326360   6.2280330
   2.2135450  17.8943180   5.8443360   5.6922260  33.7478280  18.7320810
   6.6189570  33.5122550  18.7756770   5.6772690  34.5750280  18.2506840
  13.9267320  33.2903850   5.7295060  14.1019510  32.6041590   5.0855980
  13.2288890  33.8150900   5.3371730   2.8785870  16.4123030  18.4962690
   2.5970140  16.9156630  17.7323510   3.2605570  15.6144780  18.1304820
   1.7694970  33.6798690   3.2830370   2.5013790  33.3957970   2.7354260
   2.0288640  33.4411970   4.1729750   9.4801330  15.8276610  19.0743160
   9.3666780  16.1471220  19.9694680  10.2971070  16.2289120  18.7780440
  12.2599820  32.9748140  18.5561850  13.0525140  32.4797370  18.3487810
  12.5532970  33.6538280  19.1637460   8.3859480   5.0725590  45.7608370
   8.3053530   4.1580200  45.4900080   7.9723900   5.5692660  45.0548080
   6.5177520   6.8504610  47.6417640   5.7419620   6.3705050  47.9316210
   7.1690450   6.1710260  47.4673800  10.5384950  11.2564800  46.4216770
  10.0766480  10.4852040  46.7503940  11.3510500  11.2830870  46.9269220
   6.7648260  13.5422810  46.0420760   6.1459700  13.9980310  45.4715200
   7.6200040  13.6974270  45.6410460   5.9586510   9.5261800  47.6487800
   5.8894790   8.5851740  47.4876930   6.7206370   9.6163210  48.2210370
   2.9604420   3.6744180  47.6699350   3.4682640   4.1725150  48.3104370
   3.4917660   2.8979380  47.4938710  15.0615350   1.8449370  51.3728700
  14.3567520   2.2331080  50.8543810  15.3273270   2.5399660  51.9749630
   7.6311610   8.4262050  43.4352670   7.0128880   8.8911500  42.8715390
   8.1434860   9.1189530  43.8522180   2.4943370   7.9537920  50.1136270
   2.1612750   8.5806840  50.7557340   2.6710050   8.4799800  49.3337940
  11.0077280   1.7683000  47.5812610  10.3032850   2.0567890  48.1615720
  11.3689440   2.5783110  47.2212170  12.6240060  11.3858130  49.8440090
  11.9403580  12.0557240  49.8356760  13.1634350  11.5838780  49.0784950
  10.1598800  13.2302260  48.5585270  10.1725960  12.8264550  47.6907530
   9.6074020  14.0049550  48.4546700  11.4544220   9.9518480  43.6475440
  11.3440550   9.0092810  43.7724860  11.4512470  10.3134120  44.5338200
   9.5584240   8.1332100  49.8867880   9.9753030   7.9192210  49.0521340
  10.2824060   8.3904890  50.4576500   6.9964500   5.5783800  43.0037930
   6.0693780   5.5121180  43.2326400   7.1489320   6.5163930  42.8893170
   6.9833580   1.8500800  40.0005090   6.0437250   2.0114760  40.0857550
   7.3016840   2.5686480  39.4541080  13.5046340   6.5319320  49.9784120
  12.6764970   6.6012410  49.5034250  14.0996820   7.1173630  49.5099950
  11.0261790   7.1404100  43.5073180  10.4074210   6.8023650  42.8599480
  11.0086240   6.4963860  44.2152370  10.4688350   3.3188640  50.9238990
  10.0559530   4.1442350  51.1778980   9.7364300   2.7333680  50.7315350
   2.6021140   6.1048540  45.7857660   2.1978140   5.3925790  45.2903560
   2.6884260   5.7601780  46.6745700   3.0702840   9.7916100  47.9496870
   2.7731130   9.1861570  47.2704650   4.0202660   9.8293410  47.8386230
  11.1588450  13.3647970  51.6119970  10.6819010  14.1720160  51.4192580
  10.4750240  12.7126300  51.7646180   9.2026490   6.3790910  40.5145930
   9.6419770   5.5413340  40.3683750   9.9154910   7.0120310  40.6010070
   7.3121870  11.3186980  44.4827170   7.7517780  12.0611310  44.0682560
   7.2508760  11.5613550  45.4066130   2.7872840  12.3432810  55.3847190
   2.7588270  12.7475760  54.5175620   2.6237810  11.4143170  55.2218790
  14.1420910  10.3172760  53.8411370  14.2683970  10.0784640  52.9228550
  14.1842290   9.4857300  54.3133450   8.0037650  14.0200760  52.4106180
   8.5182320  13.9308770  53.2128610   7.1606730  14.3660460  52.7034090
   9.9792050  14.3056100  41.8390180   9.8193190  14.0159040  42.7372010
   9.8138760  13.5296230  41.3035410   2.4580430  14.0854630  43.6161800
   2.2822910  13.1690170  43.4029600   1.6036170  14.4441920  43.8559600
   9.6818180  11.8143660  40.3988180   8.9883340  11.8120950  39.7390460
  10.4241040  11.3902980  39.9682350   9.2468110  13.4406370  44.4736670
   9.7025060  12.6595750  44.7875290   9.5860630  14.1513190  45.0177850
  11.0563750   2.4306060  53.4019960  10.2057340   2.1311810  53.7229030
  10.8965540   2.6748070  52.4903780   8.1513460   3.9307810  55.5018750
   8.4766870   3.0971560  55.1620980   8.9393790   4.4536330  55.6497080
   8.7901410   3.4725530  42.9959880   8.1910300   4.1961330  42.8123500
   9.3381020   3.4102310  42.2136330   4.0002860   4.3647740  55.0629500
   3.9046460   3.4242470  54.9129900   4.8434840   4.5862810  54.6677570
   7.9821420   4.6994820  49.1213940   7.2502540   5.2081630  49.4704040
   7.5845760   3.8824800  48.8202720   4.4818960   2.3761100  40.5173190
   4.6031780   2.3347580  41.4659010   4.0967470   3.2385250  40.3619920
   3.4940460   4.6862240  39.9156490   2.9257360   4.2380490  39.2892400
   4.2029460   5.0455020  39.3821640   4.7206780   5.4350800  49.2731840
   5.0876910   4.9609370  50.0193180   4.5311840   6.3092370  49.6140180
   2.5106150   4.4759440  51.5916050   2.2063220   5.3551420  51.8166410
   3.4652610   4.5359230  51.6273490  11.7975920   7.6785790  47.9809290
  12.5175040   8.1741080  47.5905400  11.5957740   7.0003680  47.3363160
   7.1794720   7.7494850  53.8678290   7.1132030   6.8290520  53.6135880
   6.5499860   7.8470290  54.5822930   9.9734250   3.4443400  40.4200840
  10.8613870   3.7560630  40.2452180   9.9439340   2.5715650  40.0281420
   5.9694840   9.6167090  41.0989010   6.3110540  10.3609320  40.6032330
   5.1407550   9.9298210  41.4613840   1.7683000   5.7746420  55.6226960
   1.4683140   5.9203600  54.7254780   2.5394240   5.2151710  55.5300350
   7.1111450  10.5715420  53.6182090   7.1255990   9.6396380  53.4001000
   6.4036550  10.6575180  54.2571860  12.2448520   4.7555240  39.8880700
  12.1612240   5.1869460  39.0377140  12.9642710   5.2153590  40.3207520
  13.3222660   7.2122760  52.9650670  12.5970850   7.8051540  52.7680060
  13.8498120   7.2046300  52.1664040  13.2735770  11.6097500  42.6162830
  12.6311930  10.9553120  42.8906550  12.8866430  12.0152590  41.8403500
   8.8522250   8.9382930  46.4634520   9.2046070   8.3411060  45.8035890
   7.9684580   8.6127160  46.6342770   4.9385530   9.6980620  43.8704930
   5.6256660  10.2449830  44.2512520   4.1517950  10.2421350  43.9054540
   4.2412740   6.7026650  43.4830290   4.6975520   7.5131900  43.7090480
   3.8900950   6.3849790  44.3148780   6.5445350  12.2132990  50.7122590
   7.1887570  12.4192370  51.3896010   6.9074790  11.4521390  50.2593440
   7.8177430  10.2165340  49.4300040   8.4599660   9.5158500  49.5432210
   8.3426780  10.9963780  49.2496930  11.6633150  10.5013960  39.1539180
  11.4370730   9.7844400  39.7463820  11.2729350  10.2526400  38.3160930
   9.5915050  11.0160240  52.6336100   9.9271290  11.6026930  53.3114020
   8.6715390  10.8852950  52.8633890  11.2449400   8.4185900  40.8153340
  10.9571100   8.8798590  41.6031220  12.0401570   7.9583670  41.0837560
   3.4617800  11.9112020  40.7457310   3.4527900  12.6441710  40.1301820
   2.5416160  11.6643600  40.8384270   6.4477400  11.9740260  39.4082500
   6.5489380  11.7704250  38.4784480   5.5479140  11.7198540  39.6130280
   3.9703290   2.5320620  43.3906400   3.2619440   3.0006960  43.8320010
   4.2547770   1.8742630  44.0251590   5.5959220   3.9517320  51.3898930
   6.0944470   4.4263140  52.0550780   5.7382170   3.0280840  51.5968960
   5.0895510  14.4926580  44.1030170   5.3437010  14.4547970  43.1809540
   4.1407990  14.3659910  44.0958420  11.0948090   5.4118460  45.6788680
  10.1538230   5.4268690  45.8536370  11.4092160   4.6254420  46.1248980
  13.0973670  12.5827310  47.3542940  13.2221090  13.4058480  47.8266750
  13.9639230  12.3718040  47.0067090   3.6793510  13.8488830  38.8485640
   4.4722120  14.1377660  38.3967430   3.1597860  13.4181000  38.1698120
   9.8414480  13.6964750  54.7730470  10.7936230  13.6122770  54.7230710
   9.6942700  14.3606460  55.4464260  12.7323680  13.0758960  40.2722380
  12.4465190  12.6624100  39.4576560  12.5343230  14.0046670  40.1522900
   4.1970910   9.0692240  38.7127990   4.0921550   8.4544590  39.4389370
   4.0295130   8.5458130  37.9291000   4.3485230   7.7549040  54.6917220
   3.5830900   8.3234040  54.6071890   4.5301190   7.4625250  53.7985450
   7.4373640   8.1312270  39.3169980   6.8883740   8.5781570  39.9612720
   8.0592900   7.6261520  39.8407650  11.4908580   9.4854370  55.2492240
  12.2318050   9.8230130  54.7459700  10.7281260   9.6546430  54.6962010
   3.1048760   7.0903190  41.2135280   3.5265180   6.9243060  42.0566670
   3.2299600   6.2803420  40.7190420   5.6176400   6.1140800  38.4612380
   6.1382060   5.3989820  38.0953530   6.2644800   6.7526670  38.7612890
  10.1654240   7.5369200  53.7847450  10.5795260   7.6914280  54.6337870
   9.2305240   7.6624420  53.9473230   4.9269470   7.4889680  51.7543380
   5.3457580   8.3322410  51.5819620   4.0078100   7.6261720  51.5250160
   7.2633370   5.2205860  53.1381220   7.3829580   4.6247000  53.8776060
   8.1227370   5.2575550  52.7182520   9.6021270   5.7743050  51.7143730
   9.0756490   6.2985670  51.1108870   9.9452610   6.4070440  52.3453460
   2.0007660   3.1636420  38.1593440   1.7996720   2.3003780  38.5206780
   1.8299710   3.0769780  37.2215040   2.7776890  13.7942690  52.8701110
   2.2397980  14.5188750  52.5509810   3.0310850  13.3173030  52.0798450
   5.6339100  15.0293900  53.1287760   5.5597800  15.9329040  53.4360130
   4.7317940  14.7105800  53.1009830   6.1824430  14.1952410  40.7514120
   7.0775220  14.5337380  40.7732880   6.2142060  13.4731820  40.1238400
  13.1618780  12.7256080  53.4580320  12.5620770  12.7848640  52.7144240
  13.2912680  11.7861060  53.5877170  14.4020230  10.4673900  38.7950030
  13.5713190  10.5350550  39.2657260  14.5792060  11.3578020  38.4916890
  13.8576690   7.2121380  41.2984230  14.6195600   7.7818030  41.4043920
  13.8731060   6.6448580  42.0692540  14.8636660   8.0671480  46.1426160
  15.2345490   7.2838800  45.7362130  15.5038590   8.7560580  45.9643460
  11.8470420   9.4508060  51.5556480  11.0330260   9.8805220  51.8182270
  12.2544620  10.0626470  50.9425530  13.9095860   7.5055750  38.4556750
  14.1844700   8.4134630  38.3275970  13.7206600   7.4418280  39.3918740
  13.8061200   5.4424740  43.4486180  13.4304800   4.6752670  43.0167470
  13.0764320   5.8247440  43.9361110  13.1960820   4.5896260  53.0825700
  12.9646910   4.3609010  52.1823650  13.4565370   5.5095810  53.0370590
  13.0812160   3.6682230  46.7493420  13.6049640   3.1744880  46.1183590
  13.6671580   3.8032590  47.4940990  13.2601880   3.7522100  50.2712970
  12.3104590   3.7185640  50.3857960  13.4414890   4.6622210  50.0362740
  12.5712130   2.9255580  42.6885830  13.0671250   2.6926450  43.4734710
  12.3728200   2.0867420  42.2723470  11.9046470  14.2026660  45.0824750
  12.5005540  13.8811230  44.4059170  12.1624620  13.7298480  45.8738020
   3.5115070  12.1904160  50.8325100   3.2706430  12.4578720  49.9455620
   4.4517710  12.3609890  50.8875960  14.7719230  14.2098540  51.6335740
  14.2777510  14.6067410  50.9162870  14.1632520  13.5847750  52.0273020
  12.4558680  14.8521960  48.9122480  11.9961650  15.6037770  48.5380500
  11.8271140  14.1328430  48.8537280   2.8854400  13.1610200  48.0870610
   3.4019420  12.5497560  47.5618870   3.5351780  13.6638980  48.5781620
   5.6249900  14.0518690  48.9139590   5.9127710  13.7972990  48.0372600
   6.1373120  13.4996050  49.5045160  13.9267320  14.5160360  43.2782040
  14.1019510  13.8298100  42.6342960  13.2288890  15.0407410  42.8858710
   1.7694970  14.9055200  40.8317350   2.5013790  14.6214480  40.2841240
   2.0288640  14.6668480  41.7216730   8.3859480   5.0725590  26.9864880
   8.3053530   4.1580200  26.7156590   7.9723900   5.5692660  26.2804590
   6.5177520   6.8504610  28.8674150   5.7419620   6.3705050  29.1572720
   7.1690450   6.1710260  28.6930310  10.5384950  11.2564800  27.6473280
  10.0766480  10.4852040  27.9760450  11.3510500  11.2830870  28.1525730
   6.7648260  13.5422810  27.2677270   6.1459700  13.9980310  26.6971710
   7.6200040  13.6974270  26.8666970   5.9586510   9.5261800  28.8744310
   5.8894790   8.5851740  28.7133440   6.7206370   9.6163210  29.4466880
   2.9604420   3.6744180  28.8955860   3.4682640   4.1725150  29.5360880
   3.4917660   2.8979380  28.7195220  15.0615350   1.8449370  32.5985210
  14.3567520   2.2331080  32.0800320  15.3273270   2.5399660  33.2006140
   7.6311610   8.4262050  24.6609180   7.0128880   8.8911500  24.0971900
   8.1434860   9.1189530  25.0778690   2.4943370   7.9537920  31.3392780
   2.1612750   8.5806840  31.9813850   2.6710050   8.4799800  30.5594450
  11.0077280   1.7683000  28.8069120  10.3032850   2.0567890  29.3872230
  11.3689440   2.5783110  28.4468680  12.6240060  11.3858130  31.0696600
  11.9403580  12.0557240  31.0613270  13.1634350  11.5838780  30.3041460
  10.1598800  13.2302260  29.7841780  10.1725960  12.8264550  28.9164040
   9.6074020  14.0049550  29.6803210  11.4544220   9.9518480  24.8731950
  11.3440550   9.0092810  24.9981370  11.4512470  10.3134120  25.7594710
   9.5584240   8.1332100  31.1124390   9.9753030   7.9192210  30.2777850
  10.2824060   8.3904890  31.6833010   6.9964500   5.5783800  24.2294440
   6.0693780   5.5121180  24.4582910   7.1489320   6.5163930  24.1149680
   6.9833580   1.8500800  21.2261600   6.0437250   2.0114760  21.3114060
   7.3016840   2.5686480  20.6797590  13.5046340   6.5319320  31.2040630
  12.6764970   6.6012410  30.7290760  14.0996820   7.1173630  30.7356460
  11.0261790   7.1404100  24.7329690  10.4074210   6.8023650  24.0855990
  11.0086240   6.4963860  25.4408880  10.4688350   3.3188640  32.1495500
  10.0559530   4.1442350  32.4035490   9.7364300   2.7333680  31.9571860
   2.6021140   6.1048540  27.0114170   2.1978140   5.3925790  26.5160070
   2.6884260   5.7601780  27.9002210   3.0702840   9.7916100  29.1753380
   2.7731130   9.1861570  28.4961160   4.0202660   9.8293410  29.0642740
  11.1588450  13.3647970  32.8376480  10.6819010  14.1720160  32.6449090
  10.4750240  12.7126300  32.9902690   9.2026490   6.3790910  21.7402440
   9.6419770   5.5413340  21.5940260   9.9154910   7.0120310  21.8266580
   7.3121870  11.3186980  25.7083680   7.7517780  12.0611310  25.2939070
   7.2508760  11.5613550  26.6322640   2.7872840  12.3432810  36.6103700
   2.7588270  12.7475760  35.7432130   2.6237810  11.4143170  36.4475300
  14.7387660  13.1259910  37.9067870  15.2147380  13.6042800  38.5856950
  15.3594820  13.0577400  37.1813370  14.1420910  10.3172760  35.0667880
  14.2683970  10.0784640  34.1485060  14.1842290   9.4857300  35.5389960
   8.0037650  14.0200760  33.6362690   8.5182320  13.9308770  34.4385120
   7.1606730  14.3660460  33.9290600   9.9792050  14.3056100  23.0646690
   9.8193190  14.0159040  23.9628520   9.8138760  13.5296230  22.5291920
   2.4580430  14.0854630  24.8418310   2.2822910  13.1690170  24.6286110
   1.6036170  14.4441920  25.0816110   9.6818180  11.8143660  21.6244690
   8.9883340  11.8120950  20.9646970  10.4241040  11.3902980  21.1938860
   9.2468110  13.4406370  25.6993180   9.7025060  12.6595750  26.0131800
   9.5860630  14.1513190  26.2434360  11.0563750   2.4306060  34.6276470
  10.2057340   2.1311810  34.9485540  10.8965540   2.6748070  33.7160290
   8.1513460   3.9307810  36.7275260   8.4766870   3.0971560  36.3877490
   8.9393790   4.4536330  36.8753590   8.7901410   3.4725530  24.2216390
   8.1910300   4.1961330  24.0380010   9.3381020   3.4102310  23.4392840
   4.0002860   4.3647740  36.2886010   3.9046460   3.4242470  36.1386410
   4.8434840   4.5862810  35.8934080   7.9821420   4.6994820  30.3470450
   7.2502540   5.2081630  30.6960550   7.5845760   3.8824800  30.0459230
   4.4818960   2.3761100  21.7429700   4.6031780   2.3347580  22.6915520
   4.0967470   3.2385250  21.5876430   3.4940460   4.6862240  21.1413000
   2.9257360   4.2380490  20.5148910   4.2029460   5.0455020  20.6078150
   4.7206780   5.4350800  30.4988350   5.0876910   4.9609370  31.2449690
   4.5311840   6.3092370  30.8396690   2.5106150   4.4759440  32.8172560
   2.2063220   5.3551420  33.0422920   3.4652610   4.5359230  32.8530000
  11.7975920   7.6785790  29.2065800  12.5175040   8.1741080  28.8161910
  11.5957740   7.0003680  28.5619670   7.1794720   7.7494850  35.0934800
   7.1132030   6.8290520  34.8392390   6.5499860   7.8470290  35.8079440
   9.9734250   3.4443400  21.6457350  10.8613870   3.7560630  21.4708690
   9.9439340   2.5715650  21.2537930   5.9694840   9.6167090  22.3245520
   6.3110540  10.3609320  21.8288840   5.1407550   9.9298210  22.6870350
   1.7683000   5.7746420  36.8483470   1.4683140   5.9203600  35.9511290
   2.5394240   5.2151710  36.7556860   7.1111450  10.5715420  34.8438600
   7.1255990   9.6396380  34.6257510   6.4036550  10.6575180  35.4828370
  12.2448520   4.7555240  21.1137210  12.1612240   5.1869460  20.2633650
  12.9642710   5.2153590  21.5464030  13.3222660   7.2122760  34.1907180
  12.5970850   7.8051540  33.9936570  13.8498120   7.2046300  33.3920550
  13.2735770  11.6097500  23.8419340  12.6311930  10.9553120  24.1163060
  12.8866430  12.0152590  23.0660010   8.8522250   8.9382930  27.6891030
   9.2046070   8.3411060  27.0292400   7.9684580   8.6127160  27.8599280
   4.9385530   9.6980620  25.0961440   5.6256660  10.2449830  25.4769030
   4.1517950  10.2421350  25.1311050   4.2412740   6.7026650  24.7086800
   4.6975520   7.5131900  24.9346990   3.8900950   6.3849790  25.5405290
   6.5445350  12.2132990  31.9379100   7.1887570  12.4192370  32.6152520
   6.9074790  11.4521390  31.4849950   7.8177430  10.2165340  30.6556550
   8.4599660   9.5158500  30.7688720   8.3426780  10.9963780  30.4753440
  11.6633150  10.5013960  20.3795690  11.4370730   9.7844400  20.9720330
  11.2729350  10.2526400  19.5417440   9.5915050  11.0160240  33.8592610
   9.9271290  11.6026930  34.5370530   8.6715390  10.8852950  34.0890400
  11.2449400   8.4185900  22.0409850  10.9571100   8.8798590  22.8287730
  12.0401570   7.9583670  22.3094070   5.4203630  11.0651570  37.0280670
   5.1000500  10.3460810  37.5726360   4.7461990  11.7406640  37.1016730
   3.4617800  11.9112020  21.9713820   3.4527900  12.6441710  21.3558330
   2.5416160  11.6643600  22.0640780   6.4477400  11.9740260  20.6339010
   6.5489380  11.7704250  19.7040990   5.5479140  11.7198540  20.8386790
   3.9703290   2.5320620  24.6162910   3.2619440   3.0006960  25.0576520
   4.2547770   1.8742630  25.2508100   5.5959220   3.9517320  32.6155440
   6.0944470   4.4263140  33.2807290   5.7382170   3.0280840  32.8225470
   5.0895510  14.4926580  25.3286680   5.3437010  14.4547970  24.4066050
   4.1407990  14.3659910  25.3214930  11.0948090   5.4118460  26.9045190
  10.1538230   5.4268690  27.0792880  11.4092160   4.6254420  27.3505490
  13.0973670  12.5827310  28.5799450  13.2221090  13.4058480  29.0523260
  13.9639230  12.3718040  28.2323600   3.6793510  13.8488830  20.0742150
   4.4722120  14.1377660  19.6223940   3.1597860  13.4181000  19.3954630
   8.4114110   9.9684460  37.3877570   7.8052270   9.9916060  36.6473320
   8.1068220   9.2367500  37.9244820   9.8414480  13.6964750  35.9986980
  10.7936230  13.6122770  35.9487220   9.6942700  14.3606460  36.6720770
  12.7323680  13.0758960  21.4978890  12.4465190  12.6624100  20.6833070
  12.5343230  14.0046670  21.3779410   4.1970910   9.0692240  19.9384500
   4.0921550   8.4544590  20.6645880   4.0295130   8.5458130  19.1547510
   4.3485230   7.7549040  35.9173730   3.5830900   8.3234040  35.8328400
   4.5301190   7.4625250  35.0241960   7.4373640   8.1312270  20.5426490
   6.8883740   8.5781570  21.1869230   8.0592900   7.6261520  21.0664160
  11.4908580   9.4854370  36.4748750  12.2318050   9.8230130  35.9716210
  10.7281260   9.6546430  35.9218520   3.1048760   7.0903190  22.4391790
   3.5265180   6.9243060  23.2823180   3.2299600   6.2803420  21.9446930
   5.6176400   6.1140800  19.6868890   6.1382060   5.3989820  19.3210040
   6.2644800   6.7526670  19.9869400  10.1654240   7.5369200  35.0103960
  10.5795260   7.6914280  35.8594380   9.2305240   7.6624420  35.1729740
  10.6376410   4.8765360  37.0143110  11.2197180   4.1217680  36.9263590
  10.8138180   5.4072800  36.2374590   4.9269470   7.4889680  32.9799890
   5.3457580   8.3322410  32.8076130   4.0078100   7.6261720  32.7506670
   7.2633370   5.2205860  34.3637730   7.3829580   4.6247000  35.1032570
   8.1227370   5.2575550  33.9439030   9.6021270   5.7743050  32.9400240
   9.0756490   6.2985670  32.3365380   9.9452610   6.4070440  33.5709970
   2.0007660   3.1636420  19.3849950   1.7996720   2.3003780  19.7463290
   1.8299710   3.0769780  18.4471550   2.7776890  13.7942690  34.0957620
   2.2397980  14.5188750  33.7766320   3.0310850  13.3173030  33.3054960
   5.6339100  15.0293900  34.3544270   5.5597800  15.9329040  34.6616640
   4.7317940  14.7105800  34.3266340   6.1824430  14.1952410  21.9770630
   7.0775220  14.5337380  21.9989390   6.2142060  13.4731820  21.3494910
  13.1618780  12.7256080  34.6836830  12.5620770  12.7848640  33.9400750
  13.2912680  11.7861060  34.8133680  14.4020230  10.4673900  20.0206540
  13.5713190  10.5350550  20.4913770  14.5792060  11.3578020  19.7173400
  13.8576690   7.2121380  22.5240740  14.6195600   7.7818030  22.6300430
  13.8731060   6.6448580  23.2949050  14.8636660   8.0671480  27.3682670
  15.2345490   7.2838800  26.9618640  15.5038590   8.7560580  27.1899970
  11.8470420   9.4508060  32.7812990  11.0330260   9.8805220  33.0438780
  12.2544620  10.0626470  32.1682040  13.9095860   7.5055750  19.6813260
  14.1844700   8.4134630  19.5532480  13.7206600   7.4418280  20.6175250
  13.8061200   5.4424740  24.6742690  13.4304800   4.6752670  24.2423980
  13.0764320   5.8247440  25.1617620  13.1960820   4.5896260  34.3082210
  12.9646910   4.3609010  33.4080160  13.4565370   5.5095810  34.2627100
  13.0812160   3.6682230  27.9749930  13.6049640   3.1744880  27.3440100
  13.6671580   3.8032590  28.7197500  13.2601880   3.7522100  31.4969480
  12.3104590   3.7185640  31.6114470  13.4414890   4.6622210  31.2619250
  12.5712130   2.9255580  23.9142340  13.0671250   2.6926450  24.6991220
  12.3728200   2.0867420  23.4979980  11.9046470  14.2026660  26.3081260
  12.5005540  13.8811230  25.6315680  12.1624620  13.7298480  27.0994530
   3.5115070  12.1904160  32.0581610   3.2706430  12.4578720  31.1712130
   4.4517710  12.3609890  32.1132470  14.7719230  14.2098540  32.8592250
  14.2777510  14.6067410  32.1419380  14.1632520  13.5847750  33.2529530
  12.4558680  14.8521960  30.1378990  11.9961650  15.6037770  29.7637010
  11.8271140  14.1328430  30.0793790   2.8854400  13.1610200  29.3127120
   3.4019420  12.5497560  28.7875380   3.5351780  13.6638980  29.8038130
   5.6249900  14.0518690  30.1396100   5.9127710  13.7972990  29.2629110
   6.1373120  13.4996050  30.7301670   5.6922260  14.9734790  37.5064300
   6.6189570  14.7379060  37.5500260   5.6772690  15.8006790  37.0250330
  13.9267320  14.5160360  24.5038550  14.1019510  13.8298100  23.8599470
  13.2288890  15.0407410  24.1115220   1.7694970  14.9055200  22.0573860
   2.5013790  14.6214480  21.5097750   2.0288640  14.6668480  22.9473240
  12.2599820  14.2004650  37.3305340  13.0525140  13.7053880  37.1231300
  12.5532970  14.8794790  37.9380950   8.3859480   5.0725590   8.2121390
   8.3053530   4.1580200   7.9413100   7.9723900   5.5692660   7.5061100
   6.5177520   6.8504610  10.0930660   5.7419620   6.3705050  10.3829230
   7.1690450   6.1710260   9.9186820  10.5384950  11.2564800   8.8729790
  10.0766480  10.4852040   9.2016960  11.3510500  11.2830870   9.3782240
   6.7648260  13.5422810   8.4933780   6.1459700  13.9980310   7.9228220
   7.6200040  13.6974270   8.0923480   5.9586510   9.5261800  10.1000820
   5.8894790   8.5851740   9.9389950   6.7206370   9.6163210  10.6723390
   2.9604420   3.6744180  10.1212370   3.4682640   4.1725150  10.7617390
   3.4917660   2.8979380   9.9451730  15.0615350   1.8449370  13.8241720
  14.3567520   2.2331080  13.3056830  15.3273270   2.5399660  14.4262650
   7.6311610   8.4262050   5.8865690   7.0128880   8.8911500   5.3228410
   8.1434860   9.1189530   6.3035200   2.4943370   7.9537920  12.5649290
   2.1612750   8.5806840  13.2070360   2.6710050   8.4799800  11.7850960
  11.0077280   1.7683000  10.0325630  10.3032850   2.0567890  10.6128740
  11.3689440   2.5783110   9.6725190  12.6240060  11.3858130  12.2953110
  11.9403580  12.0557240  12.2869780  13.1634350  11.5838780  11.5297970
  10.1598800  13.2302260  11.0098290  10.1725960  12.8264550  10.1420550
   9.6074020  14.0049550  10.9059720  11.4544220   9.9518480   6.0988460
  11.3440550   9.0092810   6.2237880  11.4512470  10.3134120   6.9851220
   9.5584240   8.1332100  12.3380900   9.9753030   7.9192210  11.5034360
  10.2824060   8.3904890  12.9089520   6.9964500   5.5783800   5.4550950
   6.0693780   5.5121180   5.6839420   7.1489320   6.5163930   5.3406190
   6.9833580   1.8500800   2.4518110   6.0437250   2.0114760   2.5370570
   7.3016840   2.5686480   1.9054100  13.5046340   6.5319320  12.4297140
  12.6764970   6.6012410  11.9547270  14.0996820   7.1173630  11.9612970
  11.0261790   7.1404100   5.9586200  10.4074210   6.8023650   5.3112500
  11.0086240   6.4963860   6.6665390  10.4688350   3.3188640  13.3752010
  10.0559530   4.1442350  13.6292000   9.7364300   2.7333680  13.1828370
   2.6021140   6.1048540   8.2370680   2.1978140   5.3925790   7.7416580
   2.6884260   5.7601780   9.1258720   3.0702840   9.7916100  10.4009890
   2.7731130   9.1861570   9.7217670   4.0202660   9.8293410  10.2899250
  11.1588450  13.3647970  14.0632990  10.6819010  14.1720160  13.8705600
  10.4750240  12.7126300  14.2159200   9.2026490   6.3790910   2.9658950
   9.6419770   5.5413340   2.8196770   9.9154910   7.0120310   3.0523090
   7.3121870  11.3186980   6.9340190   7.7517780  12.0611310   6.5195580
   7.2508760  11.5613550   7.8579150   2.7872840  12.3432810  17.8360210
   2.7588270  12.7475760  16.9688640   2.6237810  11.4143170  17.6731810
  14.7387660  13.1259910  19.1324380  15.2147380  13.6042800  19.8113460
  15.3594820  13.0577400  18.4069880  14.1420910  10.3172760  16.2924390
  14.2683970  10.0784640  15.3741570  14.1842290   9.4857300  16.7646470
   8.0037650  14.0200760  14.8619200   8.5182320  13.9308770  15.6641630
   7.1606730  14.3660460  15.1547110   9.9792050  14.3056100   4.2903200
   9.8193190  14.0159040   5.1885030   9.8138760  13.5296230   3.7548430
   2.4580430  14.0854630   6.0674820   2.2822910  13.1690170   5.8542620
   1.6036170  14.4441920   6.3072620   9.6818180  11.8143660   2.8501200
   8.9883340  11.8120950   2.1903480  10.4241040  11.3902980   2.4195370
   9.2468110  13.4406370   6.9249690   9.7025060  12.6595750   7.2388310
   9.5860630  14.1513190   7.4690870  11.0563750   2.4306060  15.8532980
  10.2057340   2.1311810  16.1742050  10.8965540   2.6748070  14.9416800
   8.1513460   3.9307810  17.9531770   8.4766870   3.0971560  17.6134000
   8.9393790   4.4536330  18.1010100   8.7901410   3.4725530   5.4472900
   8.1910300   4.1961330   5.2636520   9.3381020   3.4102310   4.6649350
   4.0002860   4.3647740  17.5142520   3.9046460   3.4242470  17.3642920
   4.8434840   4.5862810  17.1190590   7.9821420   4.6994820  11.5726960
   7.2502540   5.2081630  11.9217060   7.5845760   3.8824800  11.2715740
   4.4818960   2.3761100   2.9686210   4.6031780   2.3347580   3.9172030
   4.0967470   3.2385250   2.8132940   3.4940460   4.6862240   2.3669510
   2.9257360   4.2380490   1.7405420   4.2029460   5.0455020   1.8334660
   4.7206780   5.4350800  11.7244860   5.0876910   4.9609370  12.4706200
   4.5311840   6.3092370  12.0653200   2.5106150   4.4759440  14.0429070
   2.2063220   5.3551420  14.2679430   3.4652610   4.5359230  14.0786510
  11.7975920   7.6785790  10.4322310  12.5175040   8.1741080  10.0418420
  11.5957740   7.0003680   9.7876180   7.1794720   7.7494850  16.3191310
   7.1132030   6.8290520  16.0648900   6.5499860   7.8470290  17.0335950
   9.9734250   3.4443400   2.8713860  10.8613870   3.7560630   2.6965200
   9.9439340   2.5715650   2.4794440   5.9694840   9.6167090   3.5502030
   6.3110540  10.3609320   3.0545350   5.1407550   9.9298210   3.9126860
   1.7683000   5.7746420  18.0739980   1.4683140   5.9203600  17.1767800
   2.5394240   5.2151710  17.9813370   7.1111450  10.5715420  16.0695110
   7.1255990   9.6396380  15.8514020   6.4036550  10.6575180  16.7084880
  13.3222660   7.2122760  15.4163690  12.5970850   7.8051540  15.2193080
  13.8498120   7.2046300  14.6177060  13.2735770  11.6097500   5.0675850
  12.6311930  10.9553120   5.3419570  12.8866430  12.0152590   4.2916520
   8.8522250   8.9382930   8.9147540   9.2046070   8.3411060   8.2548910
   7.9684580   8.6127160   9.0855790   4.9385530   9.6980620   6.3217950
   5.6256660  10.2449830   6.7025540   4.1517950  10.2421350   6.3567560
   4.2412740   6.7026650   5.9343310   4.6975520   7.5131900   6.1603500
   3.8900950   6.3849790   6.7661800   6.5445350  12.2132990  13.1635610
   7.1887570  12.4192370  13.8409030   6.9074790  11.4521390  12.7106460
   7.8177430  10.2165340  11.8813060   8.4599660   9.5158500  11.9945230
   8.3426780  10.9963780  11.7009950   9.5915050  11.0160240  15.0849120
   9.9271290  11.6026930  15.7627040   8.6715390  10.8852950  15.3146910
  11.2449400   8.4185900   3.2666360  10.9571100   8.8798590   4.0544240
  12.0401570   7.9583670   3.5350580   5.4203630  11.0651570  18.2537180
   5.1000500  10.3460810  18.7982870   4.7461990  11.7406640  18.3273240
   3.4617800  11.9112020   3.1970330   3.4527900  12.6441710   2.5814840
   2.5416160  11.6643600   3.2897290   3.9703290   2.5320620   5.8419420
   3.2619440   3.0006960   6.2833030   4.2547770   1.8742630   6.4764610
   5.5959220   3.9517320  13.8411950   6.0944470   4.4263140  14.5063800
   5.7382170   3.0280840  14.0481980   5.0895510  14.4926580   6.5543190
   5.3437010  14.4547970   5.6322560   4.1407990  14.3659910   6.5471440
  11.0948090   5.4118460   8.1301700  10.1538230   5.4268690   8.3049390
  11.4092160   4.6254420   8.5762000  13.0973670  12.5827310   9.8055960
  13.2221090  13.4058480  10.2779770  13.9639230  12.3718040   9.4580110
   8.4114110   9.9684460  18.6134080   7.8052270   9.9916060  17.8729830
   8.1068220   9.2367500  19.1501330   9.8414480  13.6964750  17.2243490
  10.7936230  13.6122770  17.1743730   9.6942700  14.3606460  17.8977280
  12.7323680  13.0758960   2.7235400  12.4465190  12.6624100   1.9089580
  12.5343230  14.0046670   2.6035920   4.3485230   7.7549040  17.1430240
   3.5830900   8.3234040  17.0584910   4.5301190   7.4625250  16.2498470
   7.4373640   8.1312270   1.7683000   6.8883740   8.5781570   2.4125740
   8.0592900   7.6261520   2.2920670  11.4908580   9.4854370  17.7005260
  12.2318050   9.8230130  17.1972720  10.7281260   9.6546430  17.1475030
   3.1048760   7.0903190   3.6648300   3.5265180   6.9243060   4.5079690
   3.2299600   6.2803420   3.1703440  10.1654240   7.5369200  16.2360470
  10.5795260   7.6914280  17.0850890   9.2305240   7.6624420  16.3986250
  10.6376410   4.8765360  18.2399620  11.2197180   4.1217680  18.1520100
  10.8138180   5.4072800  17.4631100   4.9269470   7.4889680  14.2056400
   5.3457580   8.3322410  14.0332640   4.0078100   7.6261720  13.9763180
   7.2633370   5.2205860  15.5894240   7.3829580   4.6247000  16.3289080
   8.1227370   5.2575550  15.1695540   9.6021270   5.7743050  14.1656750
   9.0756490   6.2985670  13.5621890   9.9452610   6.4070440  14.7966480
   2.7776890  13.7942690  15.3214130   2.2397980  14.5188750  15.0022830
   3.0310850  13.3173030  14.5311470   5.6339100  15.0293900  15.5800780
   5.5597800  15.9329040  15.8873150   4.7317940  14.7105800  15.5522850
   6.1824430  14.1952410   3.2027140   7.0775220  14.5337380   3.2245900
   6.2142060  13.4731820   2.5751420  13.1618780  12.7256080  15.9093340
  12.5620770  12.7848640  15.1657260  13.2912680  11.7861060  16.0390190
  13.8576690   7.2121380   3.7497250  14.6195600   7.7818030   3.8556940
  13.8731060   6.6448580   4.5205560  14.8636660   8.0671480   8.5939180
  15.2345490   7.2838800   8.1875150  15.5038590   8.7560580   8.4156480
  11.8470420   9.4508060  14.0069500  11.0330260   9.8805220  14.2695290
  12.2544620  10.0626470  13.3938550  13.8061200   5.4424740   5.8999200
  13.4304800   4.6752670   5.4680490  13.0764320   5.8247440   6.3874130
  13.1960820   4.5896260  15.5338720  12.9646910   4.3609010  14.6336670
  13.4565370   5.5095810  15.4883610  13.0812160   3.6682230   9.2006440
  13.6049640   3.1744880   8.5696610  13.6671580   3.8032590   9.9454010
  13.2601880   3.7522100  12.7225990  12.3104590   3.7185640  12.8370980
  13.4414890   4.6622210  12.4875760  12.5712130   2.9255580   5.1398850
  13.0671250   2.6926450   5.9247730  12.3728200   2.0867420   4.7236490
  11.9046470  14.2026660   7.5337770  12.5005540  13.8811230   6.8572190
  12.1624620  13.7298480   8.3251040   3.5115070  12.1904160  13.2838120
   3.2706430  12.4578720  12.3968640   4.4517710  12.3609890  13.3388980
  14.7719230  14.2098540  14.0848760  14.2777510  14.6067410  13.3675890
  14.1632520  13.5847750  14.4786040  12.4558680  14.8521960  11.3635500
  11.9961650  15.6037770  10.9893520  11.8271140  14.1328430  11.3050300
   2.8854400  13.1610200  10.5383630   3.4019420  12.5497560  10.0131890
   3.5351780  13.6638980  11.0294640   5.6249900  14.0518690  11.3652610
   5.9127710  13.7972990  10.4885620   6.1373120  13.4996050  11.9558180
   5.6922260  14.9734790  18.7320810   6.6189570  14.7379060  18.7756770
   5.6772690  15.8006790  18.2506840  13.9267320  14.5160360   5.7295060
  14.1019510  13.8298100   5.0855980  13.2288890  15.0407410   5.3371730
   1.7694970  14.9055200   3.2830370   2.5013790  14.6214480   2.7354260
   2.0288640  14.6668480   4.1729750  12.2599820  14.2004650  18.5561850
  13.0525140  13.7053880  18.3487810  12.5532970  14.8794790  19.1637460
  67.6828520  68.0597930  57.3909960  90.0000000  90.0000000  90.0000000
