GROningen MAchine for Chemical Simulation
20938
    1CPH     CC    1   4.263   2.507   2.573
    1CPH    HC1    2   4.313   2.488   2.478
    1CPH    HC2    3   4.308   2.462   2.662
    2MNF      O    4   4.017   3.070   2.644
    2MNF      C    5   4.071   2.966   2.679
    2MNF     C1    6   4.004   2.846   2.744
    2MNF      H    7   3.956   2.878   2.838
    2MNF     C2    8   4.118   2.746   2.775
    2MNF     C3    9   4.078   2.611   2.710
    2MNF     C4   10   4.152   2.582   2.581
    2MNF     C6   11   3.926   2.625   2.684
    2MNF     C7   12   3.904   2.774   2.651
    2MNF     C8   13   3.762   2.826   2.671
    2MNF     H1   14   4.129   2.734   2.883
    2MNF      N   15   4.207   2.937   2.667
    2MNF    C10   16   4.306   3.041   2.631
    2MNF    C11   17   4.309   3.084   2.482
    2MNF    C12   18   4.273   2.977   2.376
    2MNF    C13   19   4.346   2.841   2.384
    2MNF     O1   20   4.482   2.862   2.422
    2MNF    C14   21   4.554   2.744   2.465
    2MNF    C15   22   4.673   2.798   2.549
    2MNF     O2   23   4.623   2.846   2.675
    2MNF    C16   24   4.783   2.691   2.573
    2MNF    C17   25   4.912   2.750   2.635
    2MNF     O3   26   4.887   2.796   2.768
    2MNF     O4   27   4.820   2.635   2.446
    2MNF    C18   28   4.714   2.564   2.381
    2MNF     O5   29   4.763   2.504   2.262
    2MNF    C19   30   4.602   2.663   2.342
    2MNF     O6   31   4.495   2.585   2.285
    2MNF    C20   32   4.244   2.814   2.721
    2MNF     O7   33   4.359   2.772   2.730
    2MNF     H2   34   4.097   2.529   2.780
    2MNF     H3   35   4.109   2.625   2.491
    2MNF     H6   36   3.872   2.600   2.775
    2MNF     H7   37   3.891   2.559   2.603
    2MNF     H8   38   3.934   2.793   2.547
    2MNF     H9   39   3.756   2.934   2.675
    2MNF    H12   40   4.406   3.004   2.657
    2MNF    H13   41   4.288   3.129   2.694
    2MNF    H14   42   4.238   3.167   2.470
    2MNF    H15   43   4.408   3.125   2.460
    2MNF    H16   44   4.165   2.958   2.379
    2MNF    H17   45   4.292   3.020   2.277
    2MNF    H18   46   4.340   2.793   2.287
    2MNF    H19   47   4.295   2.778   2.458
    2MNF    H20   48   4.492   2.680   2.528
    2MNF    H21   49   4.719   2.881   2.493
    2MNF    H22   50   4.531   2.814   2.686
    2MNF    H23   51   4.745   2.613   2.639
    2MNF    H24   52   4.990   2.672   2.636
    2MNF    H25   53   4.948   2.832   2.572
    2MNF    H26   54   4.798   2.837   2.766
    2MNF    H27   55   4.674   2.486   2.448
    2MNF    H28   56   4.681   2.486   2.213
    2MNF    H29   57   4.644   2.733   2.268
    2MNF    H30   58   4.428   2.645   2.246
    3MON      O   59   3.194   2.631   2.405
    3MON      C   60   3.291   2.692   2.448
    3MON     C1   61   3.305   2.755   2.585
    3MON      H   62   3.216   2.816   2.608
    3MON     C2   63   3.432   2.843   2.577
    3MON     C3   64   3.514   2.816   2.707
    3MON     C4   65   3.650   2.753   2.682
    3MON     C6   66   3.424   2.727   2.795
    3MON     C7   67   3.332   2.652   2.697
    3MON     C8   68   3.203   2.597   2.755
    3MON     H1   69   3.403   2.949   2.571
    3MON      N   70   3.407   2.720   2.377
    3MON    C10   71   3.419   2.689   2.233
    3MON    C11   72   3.447   2.540   2.199
    3MON    C12   73   3.542   2.463   2.295
    3MON    C13   74   3.677   2.529   2.328
    3MON     O1   75   3.730   2.589   2.208
    3MON    C14   76   3.847   2.673   2.227
    3MON    C15   77   3.839   2.789   2.124
    3MON     O2   78   3.731   2.877   2.157
    3MON    C16   79   3.973   2.870   2.119
    3MON    C17   80   3.978   2.971   2.003
    3MON     O3   81   3.886   3.078   2.027
    3MON     O4   82   4.083   2.779   2.101
    3MON    C18   83   4.097   2.680   2.204
    3MON     O5   84   4.212   2.601   2.180
    3MON    C19   85   3.974   2.589   2.201
    3MON     O6   86   3.989   2.486   2.300
    3MON    C20   87   3.496   2.805   2.443
    3MON     O7   88   3.600   2.848   2.398
    3MON     H2   89   3.529   2.912   2.759
    3MON     H3   90   3.652   2.644   2.677
    3MON     H6   91   3.363   2.791   2.860
    3MON     H7   92   3.481   2.659   2.859
    3MON     H8   93   3.389   2.568   2.653
    3MON     H9   94   3.130   2.564   2.680
    3MON    H12   95   3.500   2.749   2.191
    3MON    H13   96   3.327   2.719   2.182
    3MON    H14   97   3.352   2.487   2.198
    3MON    H15   98   3.487   2.534   2.097
    3MON    H16   99   3.489   2.445   2.389
    3MON    H17  100   3.561   2.364   2.252
    3MON    H18  101   3.745   2.453   2.368
    3MON    H19  102   3.663   2.604   2.406
    3MON    H20  103   3.850   2.715   2.329
    3MON    H21  104   3.823   2.745   2.025
    3MON    H22  105   3.696   2.854   2.246
    3MON    H23  106   3.986   2.925   2.213
    3MON    H24  107   4.080   3.011   1.995
    3MON    H25  108   3.954   2.920   1.909
    3MON    H26  109   3.804   3.037   2.061
    3MON    H27  110   4.106   2.730   2.302
    3MON    H28  111   4.188   2.516   2.222
    3MON    H29  112   3.967   2.545   2.100
    3MON    H30  113   3.911   2.428   2.292
    4MON      O  114   3.039   2.293   3.333
    4MON      C  115   3.060   2.312   3.214
    4MON     C1  116   2.963   2.374   3.114
    4MON      H  117   2.876   2.309   3.102
    4MON     C2  118   3.042   2.383   2.980
    4MON     C3  119   3.040   2.531   2.934
    4MON     C4  120   3.172   2.585   2.885
    4MON     C6  121   2.981   2.615   3.051
    4MON     C7  122   2.921   2.518   3.155
    4MON     C8  123   2.771   2.533   3.176
    4MON     H1  124   2.996   2.318   2.904
    4MON      N  125   3.179   2.289   3.148
    4MON    C10  126   3.292   2.218   3.211
    4MON    C11  127   3.373   2.303   3.313
    4MON    C12  128   3.404   2.450   3.274
    4MON    C13  129   3.480   2.473   3.141
    4MON     O1  130   3.585   2.376   3.129
    4MON    C14  131   3.675   2.394   3.018
    4MON    C15  132   3.624   2.319   2.892
    4MON     O2  133   3.512   2.388   2.835
    4MON    C16  134   3.736   2.310   2.784
    4MON    C17  135   3.698   2.221   2.663
    4MON     O3  136   3.604   2.291   2.581
    4MON     O4  137   3.855   2.254   2.842
    4MON    C18  138   3.911   2.332   2.949
    4MON     O5  139   4.030   2.271   2.995
    4MON    C19  140   3.810   2.336   3.065
    4MON     O6  141   3.862   2.416   3.171
    4MON    C20  142   3.180   2.324   3.013
    4MON     O7  143   3.271   2.306   2.935
    4MON     H2  144   2.969   2.538   2.851
    4MON     H3  145   3.243   2.614   2.963
    4MON     H6  146   2.906   2.686   3.014
    4MON     H7  147   3.060   2.674   3.099
    4MON     H8  148   2.969   2.541   3.251
    4MON     H9  149   2.746   2.560   3.279
    4MON    H12  150   3.361   2.184   3.133
    4MON    H13  151   3.253   2.129   3.262
    4MON    H14  152   3.316   2.306   3.407
    4MON    H15  153   3.466   2.250   3.336
    4MON    H16  154   3.311   2.507   3.271
    4MON    H17  155   3.464   2.494   3.354
    4MON    H18  156   3.520   2.575   3.140
    4MON    H19  157   3.410   2.465   3.057
    4MON    H20  158   3.689   2.500   2.995
    4MON    H21  159   3.596   2.217   2.921
    4MON    H22  160   3.430   2.356   2.881
    4MON    H23  161   3.757   2.410   2.746
    4MON    H24  162   3.789   2.199   2.605
    4MON    H25  163   3.657   2.126   2.698
    4MON    H26  164   3.533   2.321   2.641
    4MON    H27  165   3.933   2.434   2.914
    4MON    H28  166   4.037   2.304   3.086
    4MON    H29  167   3.794   2.232   3.097
    4MON    H30  168   3.790   2.420   3.238
    5MON      O  169   2.238   2.428   2.978
    5MON      C  170   2.354   2.391   2.964
    5MON     C1  171   2.452   2.442   2.857
    5MON      H  172   2.417   2.407   2.759
    5MON     C2  173   2.585   2.371   2.893
    5MON     C3  174   2.681   2.482   2.941
    5MON     C4  175   2.671   2.517   3.088
    5MON     C6  176   2.635   2.603   2.858
    5MON     C7  177   2.480   2.594   2.853
    5MON     C8  178   2.407   2.664   2.738
    5MON     H1  179   2.625   2.321   2.804
    5MON      N  180   2.419   2.292   3.038
    5MON    C10  181   2.349   2.201   3.131
    5MON    C11  182   2.325   2.254   3.275
    5MON    C12  183   2.429   2.350   3.337
    5MON    C13  184   2.576   2.302   3.348
    5MON     O1  185   2.581   2.174   3.413
    5MON    C14  186   2.714   2.133   3.453
    5MON    C15  187   2.774   2.031   3.352
    5MON     O2  188   2.802   2.094   3.227
    5MON    C16  189   2.907   1.973   3.410
    5MON    C17  190   2.971   1.864   3.322
    5MON     O3  191   3.025   1.924   3.203
    5MON     O4  192   2.880   1.915   3.540
    5MON    C18  193   2.835   2.010   3.638
    5MON     O5  194   2.813   1.943   3.761
    5MON    C19  195   2.700   2.068   3.592
    5MON     O6  196   2.654   2.165   3.686
    5MON    C20  197   2.550   2.268   2.999
    5MON     O7  198   2.624   2.181   3.040
    5MON     H2  199   2.782   2.453   2.914
    5MON     H3  200   2.569   2.534   3.124
    5MON     H6  201   2.678   2.589   2.759
    5MON     H7  202   2.671   2.698   2.900
    5MON     H8  203   2.442   2.637   2.947
    5MON     H9  204   2.299   2.650   2.746
    5MON    H12  205   2.408   2.109   3.139
    5MON    H13  206   2.253   2.172   3.087
    5MON    H14  207   2.229   2.307   3.274
    5MON    H15  208   2.311   2.168   3.341
    5MON    H16  209   2.427   2.444   3.281
    5MON    H17  210   2.394   2.376   3.438
    5MON    H18  211   2.631   2.376   3.407
    5MON    H19  212   2.623   2.298   3.250
    5MON    H20  213   2.782   2.219   3.461
    5MON    H21  214   2.703   1.948   3.339
    5MON    H22  215   2.717   2.115   3.181
    5MON    H23  216   2.980   2.055   3.422
    5MON    H24  217   3.050   1.814   3.378
    5MON    H25  218   2.895   1.789   3.296
    5MON    H26  219   2.958   1.989   3.174
    5MON    H27  220   2.909   2.090   3.651
    5MON    H28  221   2.753   2.005   3.807
    5MON    H29  222   2.629   1.984   3.584
    5MON    H30  223   2.577   2.209   3.642
    6MON      O  224   2.571   2.653   2.147
    6MON      C  225   2.592   2.641   2.267
    6MON     C1  226   2.662   2.741   2.358
    6MON      H  227   2.764   2.754   2.323
    6MON     C2  228   2.663   2.676   2.498
    6MON     C3  229   2.594   2.775   2.595
    6MON     C4  230   2.451   2.736   2.632
    6MON     C6  231   2.600   2.910   2.520
    6MON     C7  232   2.592   2.878   2.369
    6MON     C8  233   2.650   2.977   2.267
    6MON     H1  234   2.767   2.659   2.529
    6MON      N  235   2.555   2.532   2.345
    6MON    C10  236   2.493   2.410   2.288
    6MON    C11  237   2.345   2.426   2.248
    6MON    C12  238   2.256   2.515   2.337
    6MON    C13  239   2.243   2.474   2.485
    6MON     O1  240   2.192   2.340   2.493
    6MON    C14  241   2.155   2.299   2.626
    6MON    C15  242   2.222   2.163   2.657
    6MON     O2  243   2.364   2.179   2.659
    6MON    C16  244   2.170   2.110   2.794
    6MON    C17  245   2.225   1.971   2.832
    6MON     O3  246   2.362   1.982   2.872
    6MON     O4  247   2.026   2.101   2.789
    6MON    C18  248   1.960   2.227   2.770
    6MON     O5  249   1.820   2.206   2.767
    6MON    C19  250   2.002   2.285   2.633
    6MON     O6  251   1.940   2.413   2.613
    6MON    C20  252   2.596   2.540   2.478
    6MON     O7  253   2.584   2.451   2.562
    6MON     H2  254   2.653   2.790   2.685
    6MON     H3  255   2.376   2.774   2.563
    6MON     H6  256   2.697   2.952   2.544
    6MON     H7  257   2.522   2.980   2.553
    6MON     H8  258   2.486   2.863   2.345
    6MON     H9  259   2.636   2.941   2.165
    6MON    H12  260   2.501   2.330   2.362
    6MON    H13  261   2.552   2.379   2.201
    6MON    H14  262   2.342   2.468   2.146
    6MON    H15  263   2.300   2.326   2.239
    6MON    H16  264   2.293   2.618   2.333
    6MON    H17  265   2.155   2.518   2.294
    6MON    H18  266   2.175   2.544   2.535
    6MON    H19  267   2.340   2.480   2.535
    6MON    H20  268   2.187   2.372   2.702
    6MON    H21  269   2.192   2.091   2.580
    6MON    H22  270   2.388   2.225   2.576
    6MON    H23  271   2.198   2.181   2.873
    6MON    H24  272   2.166   1.931   2.915
    6MON    H25  273   2.215   1.903   2.747
    6MON    H26  274   2.408   2.031   2.800
    6MON    H27  275   1.986   2.297   2.851
    6MON    H28  276   1.787   2.288   2.726
    6MON    H29  277   1.970   2.214   2.556
    6MON    H30  278   1.973   2.445   2.527
    7MON      O  279   3.174   3.259   2.279
    7MON      C  280   3.085   3.198   2.337
    7MON     C1  281   2.982   3.259   2.432
    7MON      H  282   3.034   3.294   2.522
    7MON     C2  283   2.888   3.141   2.468
    7MON     C3  284   2.748   3.173   2.407
    7MON     C4  285   2.716   3.094   2.281
    7MON     C6  286   2.749   3.325   2.381
    7MON     C7  287   2.896   3.370   2.368
    7MON     C8  288   2.923   3.505   2.430
    7MON     H1  289   2.880   3.131   2.577
    7MON      N  290   3.063   3.061   2.332
    7MON    C10  291   3.160   2.969   2.267
    7MON    C11  292   3.148   2.962   2.113
    7MON    C12  293   3.006   2.939   2.057
    7MON    C13  294   2.936   2.812   2.107
    7MON     O1  295   3.000   2.695   2.052
    7MON    C14  296   2.927   2.572   2.072
    7MON    C15  297   2.975   2.498   2.199
    7MON     O2  298   2.943   2.571   2.317
    7MON    C16  299   2.911   2.356   2.207
    7MON    C17  300   2.964   2.270   2.323
    7MON     O3  301   2.919   2.323   2.448
    7MON     O4  302   2.940   2.285   2.084
    7MON    C18  303   2.886   2.346   1.966
    7MON     O5  304   2.921   2.268   1.853
    7MON    C19  305   2.952   2.485   1.948
    7MON     O6  306   2.897   2.550   1.833
    7MON    C20  307   2.960   3.017   2.414
    7MON     O7  308   2.938   2.901   2.445
    7MON     H2  309   2.669   3.155   2.480
    7MON     H3  310   2.749   3.143   2.189
    7MON     H6  311   2.702   3.375   2.466
    7MON     H7  312   2.691   3.352   2.292
    7MON     H8  313   2.920   3.374   2.260
    7MON     H9  314   2.973   3.577   2.364
    7MON    H12  315   3.144   2.869   2.307
    7MON    H13  316   3.261   3.000   2.294
    7MON    H14  317   3.186   3.056   2.071
    7MON    H15  318   3.215   2.883   2.075
    7MON    H16  319   2.944   3.025   2.082
    7MON    H17  320   3.011   2.936   1.947
    7MON    H18  321   2.831   2.815   2.074
    7MON    H19  322   2.938   2.809   2.216
    7MON    H20  323   2.819   2.591   2.080
    7MON    H21  324   3.084   2.484   2.192
    7MON    H22  325   3.026   2.614   2.347
    7MON    H23  326   2.802   2.366   2.218
    7MON    H24  327   2.929   2.167   2.311
    7MON    H25  328   3.074   2.268   2.320
    7MON    H26  329   2.922   2.420   2.439
    7MON    H27  330   2.777   2.356   1.973
    7MON    H28  331   2.911   2.331   1.780
    7MON    H29  332   3.060   2.470   1.936
    7MON    H30  333   2.923   2.644   1.839
    8MON      O  334   2.581   3.801   2.926
    8MON      C  335   2.636   3.773   2.821
    8MON     C1  336   2.783   3.793   2.787
    8MON      H  337   2.812   3.897   2.809
    8MON     C2  338   2.794   3.765   2.635
    8MON     C3  339   2.921   3.677   2.615
    8MON     C4  340   2.891   3.541   2.556
    8MON     C6  341   2.987   3.666   2.755
    8MON     C7  342   2.876   3.693   2.859
    8MON     C8  343   2.923   3.749   2.992
    8MON     H1  344   2.805   3.860   2.581
    8MON      N  345   2.573   3.720   2.708
    8MON    C10  346   2.427   3.732   2.691
    8MON    C11  347   2.341   3.629   2.769
    8MON    C12  348   2.391   3.483   2.772
    8MON    C13  349   2.436   3.423   2.638
    8MON     O1  350   2.343   3.458   2.534
    8MON    C14  351   2.387   3.428   2.400
    8MON    C15  352   2.332   3.536   2.305
    8MON     O2  353   2.393   3.663   2.333
    8MON    C16  354   2.357   3.499   2.156
    8MON    C17  355   2.285   3.592   2.056
    8MON     O3  356   2.345   3.722   2.059
    8MON     O4  357   2.308   3.365   2.131
    8MON    C18  358   2.369   3.262   2.210
    8MON     O5  359   2.315   3.137   2.175
    8MON    C19  360   2.334   3.289   2.358
    8MON     O6  361   2.391   3.185   2.439
    8MON    C20  362   2.658   3.705   2.598
    8MON     O7  363   2.625   3.662   2.488
    8MON     H2  364   2.990   3.730   2.548
    8MON     H3  365   2.841   3.471   2.622
    8MON     H6  366   3.065   3.744   2.763
    8MON     H7  367   3.036   3.569   2.771
    8MON     H8  368   2.820   3.600   2.876
    8MON     H9  369   2.843   3.798   3.049
    8MON    H12  370   2.403   3.722   2.585
    8MON    H13  371   2.396   3.833   2.720
    8MON    H14  372   2.332   3.664   2.873
    8MON    H15  373   2.239   3.631   2.728
    8MON    H16  374   2.474   3.476   2.843
    8MON    H17  375   2.311   3.420   2.813
    8MON    H18  376   2.445   3.314   2.649
    8MON    H19  377   2.536   3.461   2.614
    8MON    H20  378   2.496   3.429   2.393
    8MON    H21  379   2.223   3.544   2.320
    8MON    H22  380   2.475   3.647   2.387
    8MON    H23  381   2.465   3.502   2.135
    8MON    H24  382   2.293   3.550   1.955
    8MON    H25  383   2.179   3.598   2.081
    8MON    H26  384   2.359   3.744   2.154
    8MON    H27  385   2.478   3.262   2.195
    8MON    H28  386   2.332   3.084   2.255
    8MON    H29  387   2.225   3.289   2.366
    8MON    H30  388   2.367   3.207   2.531
    9MON      O  389   3.404   3.549   3.360
    9MON      C  390   3.291   3.588   3.339
    9MON     C1  391   3.243   3.733   3.345
    9MON      H  392   3.247   3.767   3.448
    9MON     C2  393   3.096   3.729   3.296
    9MON     C3  394   3.085   3.820   3.171
    9MON     C4  395   3.047   3.748   3.042
    9MON     C6  396   3.220   3.895   3.156
    9MON     C7  397   3.322   3.827   3.250
    9MON     C8  398   3.412   3.923   3.326
    9MON     H1  399   3.031   3.767   3.376
    9MON      N  400   3.182   3.510   3.304
    9MON    C10  401   3.181   3.364   3.331
    9MON    C11  402   3.260   3.276   3.231
    9MON    C12  403   3.264   3.321   3.083
    9MON    C13  404   3.128   3.356   3.018
    9MON     O1  405   3.031   3.256   3.053
    9MON    C14  406   2.894   3.293   3.028
    9MON    C15  407   2.804   3.228   3.136
    9MON     O2  408   2.829   3.288   3.264
    9MON    C16  409   2.652   3.241   3.101
    9MON    C17  410   2.561   3.156   3.193
    9MON     O3  411   2.560   3.209   3.325
    9MON     O4  412   2.629   3.197   2.966
    9MON    C18  413   2.703   3.268   2.866
    9MON     O5  414   2.671   3.220   2.738
    9MON    C19  415   2.852   3.238   2.890
    9MON     O6  416   2.931   3.295   2.785
    9MON    C20  417   3.065   3.581   3.277
    9MON     O7  418   2.957   3.533   3.247
    9MON     H2  419   3.007   3.895   3.192
    9MON     H3  420   3.129   3.700   2.989
    9MON     H6  421   3.207   4.000   3.181
    9MON     H7  422   3.256   3.892   3.053
    9MON     H8  423   3.386   3.764   3.187
    9MON     H9  424   3.518   3.905   3.310
    9MON    H12  425   3.077   3.330   3.331
    9MON    H13  426   3.219   3.347   3.432
    9MON    H14  427   3.364   3.271   3.266
    9MON    H15  428   3.221   3.174   3.237
    9MON    H16  429   3.329   3.409   3.074
    9MON    H17  430   3.311   3.242   3.024
    9MON    H18  431   3.142   3.363   2.909
    9MON    H19  432   3.097   3.455   3.052
    9MON    H20  433   2.880   3.402   3.031
    9MON    H21  434   2.828   3.121   3.142
    9MON    H22  435   2.870   3.377   3.250
    9MON    H23  436   2.622   3.347   3.111
    9MON    H24  437   2.459   3.156   3.152
    9MON    H25  438   2.597   3.052   3.193
    9MON    H26  439   2.653   3.234   3.347
    9MON    H27  440   2.684   3.376   2.873
    9MON    H28  441   2.754   3.240   2.691
    9MON    H29  442   2.863   3.128   2.892
    9MON    H30  443   3.023   3.285   2.816
   10MON      O  444   3.468   4.250   3.775
   10MON      C  445   3.386   4.171   3.730
   10MON     C1  446   3.259   4.205   3.653
   10MON      H  447   3.185   4.244   3.724
   10MON     C2  448   3.210   4.069   3.600
   10MON     C3  449   3.237   4.069   3.448
   10MON     C4  450   3.377   4.023   3.410
   10MON     C6  451   3.223   4.218   3.410
   10MON     C7  452   3.279   4.299   3.530
   10MON     C8  453   3.214   4.436   3.553
   10MON     H1  454   3.102   4.057   3.620
   10MON      N  455   3.391   4.032   3.743
   10MON    C10  456   3.480   3.964   3.840
   10MON    C11  457   3.625   3.940   3.791
   10MON    C12  458   3.644   3.886   3.647
   10MON    C13  459   3.570   3.756   3.608
   10MON     O1  460   3.579   3.662   3.716
   10MON    C14  461   3.536   3.528   3.683
   10MON    C15  462   3.391   3.502   3.732
   10MON     O2  463   3.297   3.578   3.656
   10MON    C16  464   3.358   3.350   3.717
   10MON    C17  465   3.219   3.311   3.773
   10MON     O3  466   3.116   3.363   3.689
   10MON     O4  467   3.457   3.273   3.787
   10MON    C18  468   3.590   3.286   3.736
   10MON     O5  469   3.678   3.205   3.811
   10MON    C19  470   3.634   3.433   3.754
   10MON     O6  471   3.766   3.451   3.700
   10MON    C20  472   3.287   3.965   3.680
   10MON     O7  473   3.260   3.847   3.691
   10MON     H2  474   3.160   4.009   3.398
   10MON     H3  475   3.457   4.081   3.455
   10MON     H6  476   3.117   4.241   3.395
   10MON     H7  477   3.276   4.239   3.317
   10MON     H8  478   3.387   4.314   3.516
   10MON     H9  479   3.187   4.455   3.657
   10MON    H12  480   3.436   3.867   3.866
   10MON    H13  481   3.483   4.023   3.932
   10MON    H14  482   3.679   4.036   3.798
   10MON    H15  483   3.675   3.873   3.862
   10MON    H16  484   3.618   3.965   3.575
   10MON    H17  485   3.752   3.869   3.632
   10MON    H18  486   3.616   3.716   3.517
   10MON    H19  487   3.465   3.778   3.584
   10MON    H20  488   3.542   3.510   3.574
   10MON    H21  489   3.385   3.527   3.839
   10MON    H22  490   3.306   3.673   3.681
   10MON    H23  491   3.360   3.324   3.610
   10MON    H24  492   3.212   3.202   3.778
   10MON    H25  493   3.210   3.349   3.876
   10MON    H26  494   3.142   3.456   3.670
   10MON    H27  495   3.594   3.258   3.630
   10MON    H28  496   3.764   3.247   3.795
   10MON    H29  497   3.633   3.455   3.862
   10MON    H30  498   3.780   3.548   3.698
   11MNL      O  499   2.886   4.849   3.244
   11MNL      C  500   2.938   4.739   3.250
   11MNL     C1  501   3.074   4.699   3.192
   11MNL      H  502   3.072   4.711   3.083
   11MNL     C2  503   3.092   4.550   3.230
   11MNL     C3  504   3.220   4.540   3.317
   11MNL     C4  505   3.189   4.535   3.466
   11MNL     C6  506   3.299   4.668   3.282
   11MNL     C7  507   3.192   4.777   3.256
   11MNL     C8  508   3.236   4.894   3.170
   11MNL     H1  509   3.103   4.490   3.138
   11MNL      N  510   2.884   4.626   3.310
   11MNL    C10  511   2.744   4.623   3.360
   11MNL    C11  512   2.720   4.696   3.494
   11MNL    C12  513   2.824   4.672   3.607
   11MNL    C13  514   2.853   4.526   3.646
   11MNL     O1  515   2.730   4.454   3.656
   11MNL    C14  516   2.738   4.317   3.703
   11MNL    C15  517   2.773   4.220   3.587
   11MNL     O2  518   2.910   4.236   3.551
   11MNL    C16  519   2.748   4.071   3.626
   11MNL    C17  520   2.758   3.974   3.506
   11MNL     O3  521   2.888   3.981   3.447
   11MNL     O4  522   2.615   4.058   3.679
   11MNL    C18  523   2.590   4.135   3.798
   11MNL     O5  524   2.458   4.110   3.842
   11MNL    C19  525   2.600   4.284   3.762
   11MNL     O6  526   2.578   4.364   3.879
   11MNL    C20  527   2.961   4.511   3.299
   11MNL     O7  528   2.929   4.399   3.334
   11MNL     H2  529   3.280   4.454   3.287
   11MNL     H3  530   3.144   4.626   3.505
   11MNL     H6  531   3.356   4.649   3.190
   11MNL     H7  532   3.369   4.697   3.360
   11MNL     H8  533   3.159   4.816   3.353
   11MNL     H9  534   3.155   4.964   3.146
   11MNL    H12  535   2.714   4.518   3.372
   11MNL    H13  536   2.679   4.666   3.283
   11MNL    H14  537   2.717   4.803   3.474
   11MNL    H15  538   2.620   4.669   3.531
   11MNL    H16  539   2.919   4.721   3.580
   11MNL    H17  540   2.789   4.725   3.697
   11MNL    H18  541   2.907   4.524   3.741
   11MNL    H19  542   2.919   4.482   3.570
   11MNL    H20  543   2.813   4.308   3.783
   11MNL    H21  544   2.707   4.244   3.502
   11MNL    H22  545   2.915   4.308   3.483
   11MNL    H23  546   2.821   4.041   3.702
   11MNL    H24  547   2.738   3.872   3.541
   11MNL    H25  548   2.681   3.999   3.433
   11MNL    H26  549   2.917   4.074   3.460
   11MNL    H27  550   2.661   4.108   3.877
   11MNL    H28  551   2.439   4.187   3.899
   11MNL    H29  552   2.523   4.305   3.686
   11MNL    H30  553   2.597   4.456   3.853
   12CPT     CC  554   3.360   4.918   3.123
   12CPT    HC1  555   3.444   4.854   3.144
   12CPT    HC2  556   3.380   5.006   3.063
   13WAT      O  557   6.471   6.140   4.576
   13WAT     H1  558   6.463   6.048   4.549
   13WAT     H2  559   6.430   6.189   4.505
   14WAT      O  560   6.284   6.317   4.764
   14WAT     H1  561   6.207   6.269   4.793
   14WAT     H2  562   6.349   6.249   4.747
   15WAT      O  563   5.686   6.349   4.852
   15WAT     H1  564   5.603   6.323   4.892
   15WAT     H2  565   5.747   6.356   4.926
   16WAT      O  566   5.527   5.845   4.230
   16WAT     H1  567   5.438   5.879   4.220
   16WAT     H2  568   5.555   5.825   4.141
   17WAT      O  569   5.323   6.105   4.819
   17WAT     H1  570   5.380   6.028   4.819
   17WAT     H2  571   5.323   6.135   4.728
   18WAT      O  572   6.228   6.585   4.765
   18WAT     H1  573   6.221   6.491   4.749
   18WAT     H2  574   6.304   6.594   4.822
   19WAT      O  575   5.447   5.645   4.997
   19WAT     H1  576   5.429   5.556   5.025
   19WAT     H2  577   5.407   5.700   5.065
   20WAT      O  578   6.331   5.866   4.788
   20WAT     H1  579   6.369   5.778   4.776
   20WAT     H2  580   6.321   5.899   4.698
   21WAT      O  581   5.744   5.703   4.334
   21WAT     H1  582   5.755   5.793   4.364
   21WAT     H2  583   5.653   5.698   4.305
   22WAT      O  584   5.509   5.895   4.858
   22WAT     H1  585   5.577   5.921   4.920
   22WAT     H2  586   5.478   5.811   4.892
   23WAT      O  587   5.928   6.000   4.767
   23WAT     H1  588   5.979   6.050   4.831
   23WAT     H2  589   5.981   5.922   4.749
   24WAT      O  590   5.757   5.464   5.194
   24WAT     H1  591   5.757   5.515   5.113
   24WAT     H2  592   5.674   5.416   5.191
   25WAT      O  593   6.395   6.475   4.344
   25WAT     H1  594   6.334   6.521   4.287
   25WAT     H2  595   6.447   6.544   4.385
   26WAT      O  596   5.882   6.428   5.011
   26WAT     H1  597   5.848   6.490   5.076
   26WAT     H2  598   5.899   6.480   4.933
   27WAT      O  599   5.725   5.635   4.994
   27WAT     H1  600   5.759   5.719   4.965
   27WAT     H2  601   5.631   5.650   5.006
   28WAT      O  602   5.332   6.543   4.081
   28WAT     H1  603   5.295   6.592   4.008
   28WAT     H2  604   5.358   6.611   4.144
   29WAT      O  605   6.093   5.384   4.627
   29WAT     H1  606   6.124   5.328   4.555
   29WAT     H2  607   6.000   5.397   4.609
   30WAT      O  608   6.332   6.190   4.300
   30WAT     H1  609   6.239   6.184   4.323
   30WAT     H2  610   6.347   6.284   4.289
   31WAT      O  611   6.331   5.817   4.000
   31WAT     H1  612   6.237   5.833   4.009
   31WAT     H2  613   6.362   5.889   3.945
   32WAT      O  614   5.893   6.243   4.579
   32WAT     H1  615   5.852   6.172   4.529
   32WAT     H2  616   5.901   6.208   4.667
   33WAT      O  617   5.939   6.611   4.795
   33WAT     H1  618   5.910   6.551   4.727
   33WAT     H2  619   6.034   6.615   4.784
   34WAT      O  620   5.764   5.920   4.957
   34WAT     H1  621   5.819   5.931   4.879
   34WAT     H2  622   5.815   5.958   5.028
   35WAT      O  623   5.849   6.585   5.460
   35WAT     H1  624   5.759   6.608   5.485
   35WAT     H2  625   5.851   6.598   5.365
   36WAT      O  626   6.553   6.270   4.051
   36WAT     H1  627   6.597   6.186   4.037
   36WAT     H2  628   6.624   6.334   4.060
   37WAT      O  629   5.731   6.272   5.318
   37WAT     H1  630   5.717   6.360   5.354
   37WAT     H2  631   5.643   6.238   5.303
   38WAT      O  632   5.563   6.132   4.329
   38WAT     H1  633   5.551   6.205   4.267
   38WAT     H2  634   5.532   6.055   4.281
   39WAT      O  635   5.326   6.449   4.909
   39WAT     H1  636   5.334   6.463   4.815
   39WAT     H2  637   5.388   6.379   4.929
   40WAT      O  638   5.451   6.619   4.550
   40WAT     H1  639   5.410   6.634   4.465
   40WAT     H2  640   5.540   6.591   4.530
   41WAT      O  641   5.332   6.554   5.163
   41WAT     H1  642   5.348   6.507   5.081
   41WAT     H2  643   5.379   6.503   5.230
   42WAT      O  644   5.809   5.467   4.667
   42WAT     H1  645   5.765   5.545   4.634
   42WAT     H2  646   5.865   5.499   4.738
   43WAT      O  647   6.238   5.753   5.227
   43WAT     H1  648   6.192   5.774   5.308
   43WAT     H2  649   6.198   5.672   5.197
   44WAT      O  650   6.447   6.025   5.550
   44WAT     H1  651   6.480   5.942   5.516
   44WAT     H2  652   6.526   6.078   5.565
   45WAT      O  653   6.121   5.429   4.155
   45WAT     H1  654   6.058   5.428   4.227
   45WAT     H2  655   6.112   5.342   4.115
   46WAT      O  656   6.013   5.521   4.853
   46WAT     H1  657   6.043   5.612   4.845
   46WAT     H2  658   6.068   5.472   4.791
   47WAT      O  659   5.788   5.979   4.440
   47WAT     H1  660   5.766   5.957   4.530
   47WAT     H2  661   5.710   6.022   4.405
   48WAT      O  662   6.511   5.980   4.300
   48WAT     H1  663   6.451   6.052   4.281
   48WAT     H2  664   6.566   5.973   4.221
   49WAT      O  665   6.032   6.069   5.506
   49WAT     H1  666   6.023   5.975   5.491
   49WAT     H2  667   6.117   6.091   5.467
   50WAT      O  668   6.372   5.843   4.503
   50WAT     H1  669   6.411   5.875   4.421
   50WAT     H2  670   6.408   5.755   4.514
   51WAT      O  671   5.545   5.710   5.322
   51WAT     H1  672   5.506   5.795   5.342
   51WAT     H2  673   5.477   5.646   5.341
   52WAT      O  674   5.276   5.502   4.725
   52WAT     H1  675   5.247   5.559   4.796
   52WAT     H2  676   5.350   5.454   4.761
   53WAT      O  677   5.294   5.896   3.846
   53WAT     H1  678   5.286   5.991   3.860
   53WAT     H2  679   5.259   5.882   3.758
   54WAT      O  680   6.431   6.102   4.912
   54WAT     H1  681   6.357   6.153   4.947
   54WAT     H2  682   6.391   6.021   4.882
   55WAT      O  683   6.074   5.770   4.753
   55WAT     H1  684   6.075   5.726   4.668
   55WAT     H2  685   6.164   5.802   4.763
   56WAT      O  686   5.659   5.758   4.649
   56WAT     H1  687   5.625   5.806   4.724
   56WAT     H2  688   5.583   5.713   4.613
   57WAT      O  689   6.080   5.870   4.052
   57WAT     H1  690   6.093   5.866   4.147
   57WAT     H2  691   6.042   5.956   4.036
   58WAT      O  692   6.477   5.648   4.853
   58WAT     H1  693   6.479   5.693   4.938
   58WAT     H2  694   6.452   5.558   4.875
   59WAT      O  695   5.982   6.101   3.992
   59WAT     H1  696   5.925   6.056   3.929
   59WAT     H2  697   6.053   6.137   3.938
   60WAT      O  698   5.489   6.491   5.379
   60WAT     H1  699   5.451   6.427   5.439
   60WAT     H2  700   5.521   6.561   5.436
   61WAT      O  701   6.104   6.176   4.927
   61WAT     H1  702   6.141   6.128   5.002
   61WAT     H2  703   6.085   6.263   4.961
   62WAT      O  704   5.391   5.650   4.540
   62WAT     H1  705   5.362   5.614   4.624
   62WAT     H2  706   5.385   5.577   4.479
   63WAT      O  707   5.883   6.080   5.159
   63WAT     H1  708   5.853   6.168   5.182
   63WAT     H2  709   5.979   6.086   5.163
   64WAT      O  710   5.736   6.501   4.219
   64WAT     H1  711   5.659   6.446   4.203
   64WAT     H2  712   5.809   6.449   4.185
   65WAT      O  713   6.358   5.540   4.212
   65WAT     H1  714   6.277   5.490   4.205
   65WAT     H2  715   6.339   5.624   4.171
   66WAT      O  716   6.350   6.407   5.387
   66WAT     H1  717   6.344   6.315   5.361
   66WAT     H2  718   6.287   6.417   5.458
   67WAT      O  719   5.741   6.467   4.583
   67WAT     H1  720   5.792   6.387   4.577
   67WAT     H2  721   5.695   6.461   4.667
   68WAT      O  722   5.489   6.164   5.274
   68WAT     H1  723   5.453   6.230   5.333
   68WAT     H2  724   5.460   6.081   5.311
   69WAT      O  725   5.809   6.210   5.562
   69WAT     H1  726   5.779   6.224   5.473
   69WAT     H2  727   5.886   6.154   5.553
   70WAT      O  728   6.518   6.526   4.646
   70WAT     H1  729   6.553   6.466   4.580
   70WAT     H2  730   6.429   6.494   4.663
   71WAT      O  731   5.340   6.164   3.936
   71WAT     H1  732   5.427   6.192   3.965
   71WAT     H2  733   5.291   6.245   3.925
   72WAT      O  734   6.056   6.303   4.348
   72WAT     H1  735   6.102   6.384   4.371
   72WAT     H2  736   6.021   6.271   4.431
   73WAT      O  737   5.647   5.337   4.396
   73WAT     H1  738   5.634   5.336   4.490
   73WAT     H2  739   5.564   5.371   4.360
   74WAT      O  740   5.346   5.513   5.342
   74WAT     H1  741   5.275   5.533   5.402
   74WAT     H2  742   5.388   5.435   5.379
   75WAT      O  743   5.539   6.346   4.149
   75WAT     H1  744   5.478   6.420   4.150
   75WAT     H2  745   5.586   6.355   4.066
   76WAT      O  746   6.496   5.762   5.117
   76WAT     H1  747   6.533   5.680   5.149
   76WAT     H2  748   6.410   5.768   5.158
   77WAT      O  749   6.029   5.886   4.339
   77WAT     H1  750   5.958   5.932   4.383
   77WAT     H2  751   6.058   5.820   4.403
   78WAT      O  752   6.192   6.027   5.139
   78WAT     H1  753   6.242   6.075   5.206
   78WAT     H2  754   6.206   5.935   5.160
   79WAT      O  755   6.432   5.558   4.483
   79WAT     H1  756   6.420   5.560   4.388
   79WAT     H2  757   6.527   5.563   4.495
   80WAT      O  758   5.850   5.716   4.077
   80WAT     H1  759   5.935   5.760   4.070
   80WAT     H2  760   5.813   5.748   4.159
   81WAT      O  761   5.740   6.342   3.924
   81WAT     H1  762   5.816   6.330   3.980
   81WAT     H2  763   5.747   6.272   3.859
   82WAT      O  764   5.609   6.085   3.992
   82WAT     H1  765   5.617   5.990   4.003
   82WAT     H2  766   5.698   6.118   4.003
   83WAT      O  767   6.052   6.539   3.871
   83WAT     H1  768   6.042   6.478   3.944
   83WAT     H2  769   6.035   6.487   3.793
   84WAT      O  770   6.067   6.408   5.469
   84WAT     H1  771   5.991   6.465   5.461
   84WAT     H2  772   6.085   6.379   5.380
   85WAT      O  773   6.376   6.445   3.932
   85WAT     H1  774   6.321   6.490   3.996
   85WAT     H2  775   6.438   6.395   3.984
   86WAT      O  776   5.943   6.341   4.121
   86WAT     H1  777   5.985   6.325   4.206
   86WAT     H2  778   5.955   6.260   4.072
   87WAT      O  779   5.759   5.939   5.402
   87WAT     H1  780   5.706   5.890   5.339
   87WAT     H2  781   5.826   5.982   5.349
   88WAT      O  782   6.194   6.244   3.846
   88WAT     H1  783   6.246   6.172   3.810
   88WAT     H2  784   6.259   6.308   3.876
   89WAT      O  785   5.808   5.636   5.410
   89WAT     H1  786   5.798   5.574   5.338
   89WAT     H2  787   5.750   5.709   5.387
   90WAT      O  788   6.084   5.492   5.113
   90WAT     H1  789   6.040   5.494   5.029
   90WAT     H2  790   6.021   5.452   5.173
   91WAT      O  791   6.125   6.381   5.175
   91WAT     H1  792   6.167   6.466   5.158
   91WAT     H2  793   6.033   6.395   5.153
   92WAT      O  794   6.359   6.154   5.314
   92WAT     H1  795   6.371   6.095   5.388
   92WAT     H2  796   6.445   6.158   5.272
   93WAT      O  797   5.832   5.949   3.816
   93WAT     H1  798   5.812   5.862   3.852
   93WAT     H2  799   5.815   5.940   3.722
   94WAT      O  800   6.035   5.809   5.440
   94WAT     H1  801   6.094   5.778   5.508
   94WAT     H2  802   5.954   5.761   5.455
   95WAT      O  803   6.517   5.770   5.463
   95WAT     H1  804   6.448   5.704   5.456
   95WAT     H2  805   6.589   5.726   5.507
   96WAT      O  806   6.580   5.430   4.069
   96WAT     H1  807   6.608   5.345   4.104
   96WAT     H2  808   6.503   5.453   4.120
   97WAT      O  809   5.712   5.659   3.815
   97WAT     H1  810   5.742   5.659   3.724
   97WAT     H2  811   5.786   5.624   3.864
   98WAT      O  812   6.034   5.553   3.913
   98WAT     H1  813   5.999   5.485   3.855
   98WAT     H2  814   6.054   5.507   3.995
   99WAT      O  815   5.615   6.589   3.898
   99WAT     H1  816   5.658   6.643   3.964
   99WAT     H2  817   5.663   6.507   3.899
  100WAT      O  818   5.368   6.206   4.553
  100WAT     H1  819   5.303   6.179   4.489
  100WAT     H2  820   5.452   6.195   4.508
  101WAT      O  821   5.472   6.244   5.007
  101WAT     H1  822   5.509   6.236   5.095
  101WAT     H2  823   5.415   6.168   4.997
  102WAT      O  824   5.427   5.936   5.398
  102WAT     H1  825   5.338   5.932   5.431
  102WAT     H2  826   5.481   5.955   5.474
  103WAT      O  827   5.289   5.927   4.147
  103WAT     H1  828   5.199   5.953   4.130
  103WAT     H2  829   5.338   5.954   4.069
  104WAT      O  830   5.544   5.833   3.938
  104WAT     H1  831   5.615   5.790   3.890
  104WAT     H2  832   5.472   5.839   3.875
  105WAT      O  833   5.509   5.438   3.842
  105WAT     H1  834   5.581   5.492   3.874
  105WAT     H2  835   5.536   5.411   3.755
  106WAT      O  836   5.477   5.363   4.832
  106WAT     H1  837   5.542   5.308   4.788
  106WAT     H2  838   5.519   5.388   4.915
  107WAT      O  839   5.453   5.379   5.107
  107WAT     H1  840   5.418   5.424   5.183
  107WAT     H2  841   5.420   5.289   5.115
  108WAT      O  842   6.204   5.498   5.459
  108WAT     H1  843   6.198   5.557   5.534
  108WAT     H2  844   6.298   5.487   5.444
  109WAT      O  845   6.468   5.463   5.423
  109WAT     H1  846   6.529   5.495   5.357
  109WAT     H2  847   6.522   5.415   5.485
  110WAT      O  848   5.520   5.331   5.434
  110WAT     H1  849   5.575   5.313   5.358
  110WAT     H2  850   5.527   5.252   5.488
  111WAT      O  851   6.542   5.320   5.055
  111WAT     H1  852   6.454   5.353   5.035
  111WAT     H2  853   6.531   5.272   5.138
  112WAT      O  854   6.317   5.411   4.949
  112WAT     H1  855   6.238   5.459   4.977
  112WAT     H2  856   6.287   5.321   4.938
  113WAT      O  857   5.451   5.442   4.201
  113WAT     H1  858   5.527   5.453   4.144
  113WAT     H2  859   5.405   5.526   4.197
  114WAT      O  860   6.105   5.653   4.501
  114WAT     H1  861   6.024   5.616   4.466
  114WAT     H2  862   6.156   5.578   4.531
  115WAT      O  863   6.555   5.320   4.624
  115WAT     H1  864   6.616   5.377   4.672
  115WAT     H2  865   6.481   5.376   4.602
  116WAT      O  866   5.688   5.495   4.056
  116WAT     H1  867   5.741   5.416   4.043
  116WAT     H2  868   5.752   5.562   4.079
  117WAT      O  869   5.908   5.468   4.361
  117WAT     H1  870   5.845   5.398   4.378
  117WAT     H2  871   5.854   5.544   4.339
  118WAT      O  872   6.471   6.140   2.699
  118WAT     H1  873   6.463   6.048   2.672
  118WAT     H2  874   6.430   6.189   2.628
  119WAT      O  875   6.284   6.317   2.887
  119WAT     H1  876   6.207   6.269   2.916
  119WAT     H2  877   6.349   6.249   2.869
  120WAT      O  878   5.686   6.349   2.974
  120WAT     H1  879   5.603   6.323   3.014
  120WAT     H2  880   5.747   6.356   3.048
  121WAT      O  881   5.527   5.845   2.353
  121WAT     H1  882   5.438   5.879   2.343
  121WAT     H2  883   5.555   5.825   2.264
  122WAT      O  884   5.323   6.105   2.941
  122WAT     H1  885   5.380   6.028   2.941
  122WAT     H2  886   5.323   6.135   2.850
  123WAT      O  887   6.228   6.585   2.887
  123WAT     H1  888   6.221   6.491   2.871
  123WAT     H2  889   6.304   6.594   2.945
  124WAT      O  890   5.447   5.645   3.120
  124WAT     H1  891   5.429   5.556   3.148
  124WAT     H2  892   5.407   5.700   3.187
  125WAT      O  893   6.331   5.866   2.910
  125WAT     H1  894   6.369   5.778   2.899
  125WAT     H2  895   6.321   5.899   2.821
  126WAT      O  896   5.744   5.703   2.456
  126WAT     H1  897   5.755   5.793   2.487
  126WAT     H2  898   5.653   5.698   2.427
  127WAT      O  899   5.509   5.895   2.981
  127WAT     H1  900   5.577   5.921   3.043
  127WAT     H2  901   5.478   5.811   3.014
  128WAT      O  902   5.928   6.000   2.890
  128WAT     H1  903   5.979   6.050   2.954
  128WAT     H2  904   5.981   5.922   2.872
  129WAT      O  905   5.757   5.464   3.316
  129WAT     H1  906   5.757   5.515   3.236
  129WAT     H2  907   5.674   5.416   3.314
  130WAT      O  908   6.395   6.475   2.466
  130WAT     H1  909   6.334   6.521   2.410
  130WAT     H2  910   6.447   6.544   2.508
  131WAT      O  911   5.882   6.428   3.134
  131WAT     H1  912   5.848   6.490   3.198
  131WAT     H2  913   5.899   6.480   3.056
  132WAT      O  914   5.725   5.635   3.117
  132WAT     H1  915   5.759   5.719   3.087
  132WAT     H2  916   5.631   5.650   3.129
  133WAT      O  917   5.332   6.543   2.203
  133WAT     H1  918   5.295   6.592   2.130
  133WAT     H2  919   5.358   6.611   2.267
  134WAT      O  920   6.093   5.384   2.749
  134WAT     H1  921   6.124   5.328   2.678
  134WAT     H2  922   6.000   5.397   2.731
  135WAT      O  923   6.332   6.190   2.423
  135WAT     H1  924   6.239   6.184   2.446
  135WAT     H2  925   6.347   6.284   2.411
  136WAT      O  926   6.331   5.817   2.123
  136WAT     H1  927   6.237   5.833   2.131
  136WAT     H2  928   6.362   5.889   2.068
  137WAT      O  929   5.893   6.243   2.701
  137WAT     H1  930   5.852   6.172   2.652
  137WAT     H2  931   5.901   6.208   2.790
  138WAT      O  932   5.939   6.611   2.918
  138WAT     H1  933   5.910   6.551   2.850
  138WAT     H2  934   6.034   6.615   2.906
  139WAT      O  935   5.764   5.920   3.079
  139WAT     H1  936   5.819   5.931   3.002
  139WAT     H2  937   5.815   5.958   3.151
  140WAT      O  938   5.849   6.585   3.583
  140WAT     H1  939   5.759   6.608   3.607
  140WAT     H2  940   5.851   6.598   3.488
  141WAT      O  941   6.553   6.270   2.174
  141WAT     H1  942   6.597   6.186   2.159
  141WAT     H2  943   6.624   6.334   2.183
  142WAT      O  944   5.731   6.272   3.440
  142WAT     H1  945   5.717   6.360   3.477
  142WAT     H2  946   5.643   6.238   3.426
  143WAT      O  947   5.563   6.132   2.451
  143WAT     H1  948   5.551   6.205   2.390
  143WAT     H2  949   5.532   6.055   2.403
  144WAT      O  950   5.326   6.449   3.032
  144WAT     H1  951   5.334   6.463   2.937
  144WAT     H2  952   5.388   6.379   3.051
  145WAT      O  953   5.451   6.619   2.673
  145WAT     H1  954   5.410   6.634   2.587
  145WAT     H2  955   5.540   6.591   2.653
  146WAT      O  956   5.332   6.554   3.286
  146WAT     H1  957   5.348   6.507   3.204
  146WAT     H2  958   5.379   6.503   3.352
  147WAT      O  959   5.809   5.467   2.789
  147WAT     H1  960   5.765   5.545   2.756
  147WAT     H2  961   5.865   5.499   2.860
  148WAT      O  962   6.238   5.753   3.350
  148WAT     H1  963   6.192   5.774   3.431
  148WAT     H2  964   6.198   5.672   3.320
  149WAT      O  965   6.447   6.025   3.673
  149WAT     H1  966   6.480   5.942   3.639
  149WAT     H2  967   6.526   6.078   3.688
  150WAT      O  968   6.121   5.429   2.278
  150WAT     H1  969   6.058   5.428   2.350
  150WAT     H2  970   6.112   5.342   2.238
  151WAT      O  971   6.013   5.521   2.975
  151WAT     H1  972   6.043   5.612   2.967
  151WAT     H2  973   6.068   5.472   2.914
  152WAT      O  974   5.788   5.979   2.562
  152WAT     H1  975   5.766   5.957   2.653
  152WAT     H2  976   5.710   6.022   2.528
  153WAT      O  977   6.511   5.980   2.422
  153WAT     H1  978   6.451   6.052   2.404
  153WAT     H2  979   6.566   5.973   2.344
  154WAT      O  980   6.032   6.069   3.629
  154WAT     H1  981   6.023   5.975   3.614
  154WAT     H2  982   6.117   6.091   3.589
  155WAT      O  983   6.372   5.843   2.625
  155WAT     H1  984   6.411   5.875   2.544
  155WAT     H2  985   6.408   5.755   2.637
  156WAT      O  986   5.545   5.710   3.444
  156WAT     H1  987   5.506   5.795   3.465
  156WAT     H2  988   5.477   5.646   3.463
  157WAT      O  989   6.203   5.718   3.751
  157WAT     H1  990   6.134   5.699   3.815
  157WAT     H2  991   6.277   5.747   3.804
  158WAT      O  992   5.276   5.502   2.847
  158WAT     H1  993   5.247   5.559   2.919
  158WAT     H2  994   5.350   5.454   2.884
  159WAT      O  995   5.294   5.896   1.969
  159WAT     H1  996   5.286   5.991   1.983
  159WAT     H2  997   5.259   5.882   1.881
  160WAT      O  998   6.431   6.102   3.035
  160WAT     H1  999   6.357   6.153   3.070
  160WAT     H2 1000   6.391   6.021   3.005
  161WAT      O 1001   6.074   5.770   2.875
  161WAT     H1 1002   6.075   5.726   2.790
  161WAT     H2 1003   6.164   5.802   2.886
  162WAT      O 1004   5.659   5.758   2.771
  162WAT     H1 1005   5.625   5.806   2.847
  162WAT     H2 1006   5.583   5.713   2.735
  163WAT      O 1007   6.080   5.870   2.174
  163WAT     H1 1008   6.093   5.866   2.269
  163WAT     H2 1009   6.042   5.956   2.159
  164WAT      O 1010   6.477   5.648   2.976
  164WAT     H1 1011   6.479   5.693   3.060
  164WAT     H2 1012   6.452   5.558   2.997
  165WAT      O 1013   5.982   6.101   2.114
  165WAT     H1 1014   5.925   6.056   2.051
  165WAT     H2 1015   6.053   6.137   2.061
  166WAT      O 1016   5.489   6.491   3.502
  166WAT     H1 1017   5.451   6.427   3.562
  166WAT     H2 1018   5.521   6.561   3.559
  167WAT      O 1019   6.104   6.176   3.050
  167WAT     H1 1020   6.141   6.128   3.124
  167WAT     H2 1021   6.085   6.263   3.084
  168WAT      O 1022   5.391   5.650   2.663
  168WAT     H1 1023   5.362   5.614   2.747
  168WAT     H2 1024   5.385   5.577   2.601
  169WAT      O 1025   5.883   6.080   3.282
  169WAT     H1 1026   5.853   6.168   3.304
  169WAT     H2 1027   5.979   6.086   3.285
  170WAT      O 1028   5.736   6.501   2.341
  170WAT     H1 1029   5.659   6.446   2.325
  170WAT     H2 1030   5.809   6.449   2.308
  171WAT      O 1031   6.358   5.540   2.335
  171WAT     H1 1032   6.277   5.490   2.327
  171WAT     H2 1033   6.339   5.624   2.293
  172WAT      O 1034   6.350   6.407   3.509
  172WAT     H1 1035   6.344   6.315   3.484
  172WAT     H2 1036   6.287   6.417   3.581
  173WAT      O 1037   5.741   6.467   2.705
  173WAT     H1 1038   5.792   6.387   2.700
  173WAT     H2 1039   5.695   6.461   2.789
  174WAT      O 1040   5.489   6.164   3.396
  174WAT     H1 1041   5.453   6.230   3.455
  174WAT     H2 1042   5.460   6.081   3.434
  175WAT      O 1043   5.809   6.210   3.685
  175WAT     H1 1044   5.779   6.224   3.595
  175WAT     H2 1045   5.886   6.154   3.676
  176WAT      O 1046   6.518   6.526   2.769
  176WAT     H1 1047   6.553   6.466   2.703
  176WAT     H2 1048   6.429   6.494   2.786
  177WAT      O 1049   5.340   6.164   2.059
  177WAT     H1 1050   5.427   6.192   2.087
  177WAT     H2 1051   5.291   6.245   2.047
  178WAT      O 1052   6.056   6.303   2.471
  178WAT     H1 1053   6.102   6.384   2.493
  178WAT     H2 1054   6.021   6.271   2.554
  179WAT      O 1055   5.647   5.337   2.518
  179WAT     H1 1056   5.634   5.336   2.613
  179WAT     H2 1057   5.564   5.371   2.483
  180WAT      O 1058   5.346   5.513   3.464
  180WAT     H1 1059   5.275   5.533   3.525
  180WAT     H2 1060   5.388   5.435   3.501
  181WAT      O 1061   5.539   6.346   2.272
  181WAT     H1 1062   5.478   6.420   2.273
  181WAT     H2 1063   5.586   6.355   2.189
  182WAT      O 1064   6.496   5.762   3.239
  182WAT     H1 1065   6.533   5.680   3.272
  182WAT     H2 1066   6.410   5.768   3.281
  183WAT      O 1067   6.029   5.886   2.462
  183WAT     H1 1068   5.958   5.932   2.506
  183WAT     H2 1069   6.058   5.820   2.525
  184WAT      O 1070   6.192   6.027   3.262
  184WAT     H1 1071   6.242   6.075   3.328
  184WAT     H2 1072   6.206   5.935   3.282
  185WAT      O 1073   6.432   5.558   2.606
  185WAT     H1 1074   6.420   5.560   2.511
  185WAT     H2 1075   6.527   5.563   2.618
  186WAT      O 1076   5.850   5.716   2.199
  186WAT     H1 1077   5.935   5.760   2.193
  186WAT     H2 1078   5.813   5.748   2.282
  187WAT      O 1079   5.740   6.342   2.046
  187WAT     H1 1080   5.816   6.330   2.103
  187WAT     H2 1081   5.747   6.272   1.981
  188WAT      O 1082   5.609   6.085   2.115
  188WAT     H1 1083   5.617   5.990   2.126
  188WAT     H2 1084   5.698   6.118   2.125
  189WAT      O 1085   6.473   6.629   3.739
  189WAT     H1 1086   6.413   6.631   3.665
  189WAT     H2 1087   6.443   6.556   3.792
  190WAT      O 1088   5.362   6.267   3.638
  190WAT     H1 1089   5.412   6.209   3.696
  190WAT     H2 1090   5.288   6.295   3.692
  191WAT      O 1091   6.052   6.539   1.994
  191WAT     H1 1092   6.042   6.478   2.066
  191WAT     H2 1093   6.035   6.487   1.915
  192WAT      O 1094   6.067   6.408   3.592
  192WAT     H1 1095   5.991   6.465   3.583
  192WAT     H2 1096   6.085   6.379   3.502
  193WAT      O 1097   6.376   6.445   2.054
  193WAT     H1 1098   6.321   6.490   2.119
  193WAT     H2 1099   6.438   6.395   2.107
  194WAT      O 1100   5.565   6.081   3.728
  194WAT     H1 1101   5.569   6.052   3.819
  194WAT     H2 1102   5.650   6.121   3.712
  195WAT      O 1103   5.943   6.341   2.244
  195WAT     H1 1104   5.985   6.325   2.328
  195WAT     H2 1105   5.955   6.260   2.194
  196WAT      O 1106   5.759   5.939   3.525
  196WAT     H1 1107   5.706   5.890   3.462
  196WAT     H2 1108   5.826   5.982   3.471
  197WAT      O 1109   6.194   6.244   1.969
  197WAT     H1 1110   6.246   6.172   1.932
  197WAT     H2 1111   6.259   6.308   1.999
  198WAT      O 1112   5.808   5.636   3.533
  198WAT     H1 1113   5.798   5.574   3.460
  198WAT     H2 1114   5.750   5.709   3.510
  199WAT      O 1115   6.084   5.492   3.236
  199WAT     H1 1116   6.040   5.494   3.151
  199WAT     H2 1117   6.021   5.452   3.296
  200WAT      O 1118   6.125   6.381   3.298
  200WAT     H1 1119   6.167   6.466   3.281
  200WAT     H2 1120   6.033   6.395   3.275
  201WAT      O 1121   6.359   6.154   3.436
  201WAT     H1 1122   6.371   6.095   3.510
  201WAT     H2 1123   6.445   6.158   3.394
  202WAT      O 1124   5.832   5.949   1.938
  202WAT     H1 1125   5.812   5.862   1.975
  202WAT     H2 1126   5.815   5.940   1.845
  203WAT      O 1127   6.035   5.809   3.562
  203WAT     H1 1128   6.094   5.778   3.631
  203WAT     H2 1129   5.954   5.761   3.578
  204WAT      O 1130   6.517   5.770   3.585
  204WAT     H1 1131   6.448   5.704   3.579
  204WAT     H2 1132   6.589   5.726   3.630
  205WAT      O 1133   6.580   5.430   2.191
  205WAT     H1 1134   6.608   5.345   2.227
  205WAT     H2 1135   6.503   5.453   2.243
  206WAT      O 1136   5.712   5.659   1.937
  206WAT     H1 1137   5.742   5.659   1.846
  206WAT     H2 1138   5.786   5.624   1.987
  207WAT      O 1139   6.034   5.553   2.036
  207WAT     H1 1140   5.999   5.485   1.978
  207WAT     H2 1141   6.054   5.507   2.117
  208WAT      O 1142   5.615   6.589   2.021
  208WAT     H1 1143   5.658   6.643   2.086
  208WAT     H2 1144   5.663   6.507   2.022
  209WAT      O 1145   5.368   6.206   2.675
  209WAT     H1 1146   5.303   6.179   2.611
  209WAT     H2 1147   5.452   6.195   2.631
  210WAT      O 1148   5.472   6.244   3.130
  210WAT     H1 1149   5.509   6.236   3.217
  210WAT     H2 1150   5.415   6.168   3.120
  211WAT      O 1151   5.427   5.936   3.520
  211WAT     H1 1152   5.338   5.932   3.554
  211WAT     H2 1153   5.481   5.955   3.597
  212WAT      O 1154   5.289   5.927   2.270
  212WAT     H1 1155   5.199   5.953   2.252
  212WAT     H2 1156   5.338   5.954   2.192
  213WAT      O 1157   5.544   5.833   2.061
  213WAT     H1 1158   5.615   5.790   2.012
  213WAT     H2 1159   5.472   5.839   1.998
  214WAT      O 1160   5.509   5.438   1.965
  214WAT     H1 1161   5.581   5.492   1.997
  214WAT     H2 1162   5.536   5.411   1.877
  215WAT      O 1163   5.477   5.363   2.955
  215WAT     H1 1164   5.542   5.308   2.911
  215WAT     H2 1165   5.519   5.388   3.037
  216WAT      O 1166   5.453   5.379   3.229
  216WAT     H1 1167   5.418   5.424   3.306
  216WAT     H2 1168   5.420   5.289   3.237
  217WAT      O 1169   6.204   5.498   3.581
  217WAT     H1 1170   6.198   5.557   3.656
  217WAT     H2 1171   6.298   5.487   3.567
  218WAT      O 1172   6.468   5.463   3.545
  218WAT     H1 1173   6.529   5.495   3.479
  218WAT     H2 1174   6.522   5.415   3.607
  219WAT      O 1175   5.520   5.331   3.557
  219WAT     H1 1176   5.575   5.313   3.480
  219WAT     H2 1177   5.527   5.252   3.610
  220WAT      O 1178   6.542   5.320   3.178
  220WAT     H1 1179   6.454   5.353   3.158
  220WAT     H2 1180   6.531   5.272   3.261
  221WAT      O 1181   6.317   5.411   3.072
  221WAT     H1 1182   6.238   5.459   3.100
  221WAT     H2 1183   6.287   5.321   3.061
  222WAT      O 1184   5.451   5.442   2.324
  222WAT     H1 1185   5.527   5.453   2.267
  222WAT     H2 1186   5.405   5.526   2.319
  223WAT      O 1187   6.105   5.653   2.623
  223WAT     H1 1188   6.024   5.616   2.589
  223WAT     H2 1189   6.156   5.578   2.653
  224WAT      O 1190   6.555   5.320   2.747
  224WAT     H1 1191   6.616   5.377   2.794
  224WAT     H2 1192   6.481   5.376   2.725
  225WAT      O 1193   5.688   5.495   2.178
  225WAT     H1 1194   5.741   5.416   2.165
  225WAT     H2 1195   5.752   5.562   2.201
  226WAT      O 1196   5.908   5.468   2.484
  226WAT     H1 1197   5.845   5.398   2.500
  226WAT     H2 1198   5.854   5.544   2.462
  227WAT      O 1199   5.920   5.396   3.727
  227WAT     H1 1200   5.892   5.446   3.651
  227WAT     H2 1201   5.958   5.316   3.690
  228WAT      O 1202   6.471   6.140   0.821
  228WAT     H1 1203   6.463   6.048   0.794
  228WAT     H2 1204   6.430   6.189   0.751
  229WAT      O 1205   6.284   6.317   1.009
  229WAT     H1 1206   6.207   6.269   1.038
  229WAT     H2 1207   6.349   6.249   0.992
  230WAT      O 1208   5.686   6.349   1.097
  230WAT     H1 1209   5.603   6.323   1.137
  230WAT     H2 1210   5.747   6.356   1.171
  231WAT      O 1211   5.527   5.845   0.475
  231WAT     H1 1212   5.438   5.879   0.465
  231WAT     H2 1213   5.555   5.825   0.386
  232WAT      O 1214   5.323   6.105   1.064
  232WAT     H1 1215   5.380   6.028   1.064
  232WAT     H2 1216   5.323   6.135   0.973
  233WAT      O 1217   6.228   6.585   1.010
  233WAT     H1 1218   6.221   6.491   0.994
  233WAT     H2 1219   6.304   6.594   1.067
  234WAT      O 1220   5.447   5.645   1.243
  234WAT     H1 1221   5.429   5.556   1.271
  234WAT     H2 1222   5.407   5.700   1.310
  235WAT      O 1223   6.331   5.866   1.033
  235WAT     H1 1224   6.369   5.778   1.021
  235WAT     H2 1225   6.321   5.899   0.944
  236WAT      O 1226   5.744   5.703   0.579
  236WAT     H1 1227   5.755   5.793   0.610
  236WAT     H2 1228   5.653   5.698   0.550
  237WAT      O 1229   5.509   5.895   1.103
  237WAT     H1 1230   5.577   5.921   1.165
  237WAT     H2 1231   5.478   5.811   1.137
  238WAT      O 1232   5.928   6.000   1.012
  238WAT     H1 1233   5.979   6.050   1.076
  238WAT     H2 1234   5.981   5.922   0.995
  239WAT      O 1235   5.757   5.464   1.439
  239WAT     H1 1236   5.757   5.515   1.358
  239WAT     H2 1237   5.674   5.416   1.436
  240WAT      O 1238   6.395   6.475   0.589
  240WAT     H1 1239   6.334   6.521   0.532
  240WAT     H2 1240   6.447   6.544   0.630
  241WAT      O 1241   5.882   6.428   1.256
  241WAT     H1 1242   5.848   6.490   1.321
  241WAT     H2 1243   5.899   6.480   1.179
  242WAT      O 1244   5.725   5.635   1.239
  242WAT     H1 1245   5.759   5.719   1.210
  242WAT     H2 1246   5.631   5.650   1.251
  243WAT      O 1247   5.332   6.543   0.326
  243WAT     H1 1248   5.295   6.592   0.253
  243WAT     H2 1249   5.358   6.611   0.389
  244WAT      O 1250   6.093   5.384   0.872
  244WAT     H1 1251   6.124   5.328   0.800
  244WAT     H2 1252   6.000   5.397   0.854
  245WAT      O 1253   6.332   6.190   0.546
  245WAT     H1 1254   6.239   6.184   0.568
  245WAT     H2 1255   6.347   6.284   0.534
  246WAT      O 1256   6.331   5.817   0.245
  246WAT     H1 1257   6.237   5.833   0.254
  246WAT     H2 1258   6.362   5.889   0.191
  247WAT      O 1259   5.893   6.243   0.824
  247WAT     H1 1260   5.852   6.172   0.774
  247WAT     H2 1261   5.901   6.208   0.913
  248WAT      O 1262   5.939   6.611   1.040
  248WAT     H1 1263   5.910   6.551   0.972
  248WAT     H2 1264   6.034   6.615   1.029
  249WAT      O 1265   5.764   5.920   1.202
  249WAT     H1 1266   5.819   5.931   1.124
  249WAT     H2 1267   5.815   5.958   1.273
  250WAT      O 1268   5.849   6.585   1.705
  250WAT     H1 1269   5.759   6.608   1.730
  250WAT     H2 1270   5.851   6.598   1.610
  251WAT      O 1271   6.553   6.270   0.297
  251WAT     H1 1272   6.597   6.186   0.282
  251WAT     H2 1273   6.624   6.334   0.305
  252WAT      O 1274   5.731   6.272   1.563
  252WAT     H1 1275   5.717   6.360   1.600
  252WAT     H2 1276   5.643   6.238   1.548
  253WAT      O 1277   5.563   6.132   0.574
  253WAT     H1 1278   5.551   6.205   0.513
  253WAT     H2 1279   5.532   6.055   0.526
  254WAT      O 1280   5.326   6.449   1.154
  254WAT     H1 1281   5.334   6.463   1.060
  254WAT     H2 1282   5.388   6.379   1.174
  255WAT      O 1283   5.451   6.619   0.796
  255WAT     H1 1284   5.410   6.634   0.710
  255WAT     H2 1285   5.540   6.591   0.775
  256WAT      O 1286   5.332   6.554   1.408
  256WAT     H1 1287   5.348   6.507   1.327
  256WAT     H2 1288   5.379   6.503   1.475
  257WAT      O 1289   5.809   5.467   0.912
  257WAT     H1 1290   5.765   5.545   0.879
  257WAT     H2 1291   5.865   5.499   0.983
  258WAT      O 1292   6.238   5.753   1.472
  258WAT     H1 1293   6.192   5.774   1.554
  258WAT     H2 1294   6.198   5.672   1.442
  259WAT      O 1295   6.447   6.025   1.795
  259WAT     H1 1296   6.480   5.942   1.761
  259WAT     H2 1297   6.526   6.078   1.810
  260WAT      O 1298   6.121   5.429   0.400
  260WAT     H1 1299   6.058   5.428   0.473
  260WAT     H2 1300   6.112   5.342   0.360
  261WAT      O 1301   6.013   5.521   1.098
  261WAT     H1 1302   6.043   5.612   1.090
  261WAT     H2 1303   6.068   5.472   1.037
  262WAT      O 1304   5.788   5.979   0.685
  262WAT     H1 1305   5.766   5.957   0.775
  262WAT     H2 1306   5.710   6.022   0.650
  263WAT      O 1307   6.511   5.980   0.545
  263WAT     H1 1308   6.451   6.052   0.526
  263WAT     H2 1309   6.566   5.973   0.466
  264WAT      O 1310   6.032   6.069   1.751
  264WAT     H1 1311   6.023   5.975   1.736
  264WAT     H2 1312   6.117   6.091   1.712
  265WAT      O 1313   6.372   5.843   0.748
  265WAT     H1 1314   6.411   5.875   0.666
  265WAT     H2 1315   6.408   5.755   0.759
  266WAT      O 1316   5.545   5.710   1.567
  266WAT     H1 1317   5.506   5.795   1.587
  266WAT     H2 1318   5.477   5.646   1.586
  267WAT      O 1319   6.203   5.718   1.874
  267WAT     H1 1320   6.134   5.699   1.937
  267WAT     H2 1321   6.277   5.747   1.927
  268WAT      O 1322   5.276   5.502   0.970
  268WAT     H1 1323   5.247   5.559   1.041
  268WAT     H2 1324   5.350   5.454   1.006
  269WAT      O 1325   6.431   6.102   1.157
  269WAT     H1 1326   6.357   6.153   1.192
  269WAT     H2 1327   6.391   6.021   1.127
  270WAT      O 1328   6.074   5.770   0.998
  270WAT     H1 1329   6.075   5.726   0.913
  270WAT     H2 1330   6.164   5.802   1.009
  271WAT      O 1331   5.659   5.758   0.894
  271WAT     H1 1332   5.625   5.806   0.969
  271WAT     H2 1333   5.583   5.713   0.858
  272WAT      O 1334   6.080   5.870   0.297
  272WAT     H1 1335   6.093   5.866   0.392
  272WAT     H2 1336   6.042   5.956   0.281
  273WAT      O 1337   6.477   5.648   1.098
  273WAT     H1 1338   6.479   5.693   1.183
  273WAT     H2 1339   6.452   5.558   1.120
  274WAT      O 1340   5.982   6.101   0.237
  274WAT     H1 1341   5.925   6.056   0.174
  274WAT     H2 1342   6.053   6.137   0.183
  275WAT      O 1343   5.489   6.491   1.624
  275WAT     H1 1344   5.451   6.427   1.684
  275WAT     H2 1345   5.521   6.561   1.681
  276WAT      O 1346   6.104   6.176   1.172
  276WAT     H1 1347   6.141   6.128   1.247
  276WAT     H2 1348   6.085   6.263   1.207
  277WAT      O 1349   5.391   5.650   0.785
  277WAT     H1 1350   5.362   5.614   0.869
  277WAT     H2 1351   5.385   5.577   0.724
  278WAT      O 1352   5.883   6.080   1.404
  278WAT     H1 1353   5.853   6.168   1.427
  278WAT     H2 1354   5.979   6.086   1.408
  279WAT      O 1355   5.736   6.501   0.464
  279WAT     H1 1356   5.659   6.446   0.448
  279WAT     H2 1357   5.809   6.449   0.430
  280WAT      O 1358   6.358   5.540   0.458
  280WAT     H1 1359   6.277   5.490   0.450
  280WAT     H2 1360   6.339   5.624   0.416
  281WAT      O 1361   6.350   6.407   1.632
  281WAT     H1 1362   6.344   6.315   1.606
  281WAT     H2 1363   6.287   6.417   1.703
  282WAT      O 1364   5.741   6.467   0.828
  282WAT     H1 1365   5.792   6.387   0.822
  282WAT     H2 1366   5.695   6.461   0.912
  283WAT      O 1367   5.489   6.164   1.519
  283WAT     H1 1368   5.453   6.230   1.578
  283WAT     H2 1369   5.460   6.081   1.556
  284WAT      O 1370   5.809   6.210   1.807
  284WAT     H1 1371   5.779   6.224   1.718
  284WAT     H2 1372   5.886   6.154   1.798
  285WAT      O 1373   6.518   6.526   0.891
  285WAT     H1 1374   6.553   6.466   0.825
  285WAT     H2 1375   6.429   6.494   0.909
  286WAT      O 1376   5.340   6.164   0.181
  286WAT     H1 1377   5.427   6.192   0.210
  286WAT     H2 1378   5.291   6.245   0.170
  287WAT      O 1379   6.056   6.303   0.593
  287WAT     H1 1380   6.102   6.384   0.616
  287WAT     H2 1381   6.021   6.271   0.677
  288WAT      O 1382   5.647   5.337   0.641
  288WAT     H1 1383   5.634   5.336   0.736
  288WAT     H2 1384   5.564   5.371   0.606
  289WAT      O 1385   5.346   5.513   1.587
  289WAT     H1 1386   5.275   5.533   1.647
  289WAT     H2 1387   5.388   5.435   1.624
  290WAT      O 1388   5.539   6.346   0.394
  290WAT     H1 1389   5.478   6.420   0.395
  290WAT     H2 1390   5.586   6.355   0.312
  291WAT      O 1391   6.496   5.762   1.362
  291WAT     H1 1392   6.533   5.680   1.395
  291WAT     H2 1393   6.410   5.768   1.403
  292WAT      O 1394   6.029   5.886   0.584
  292WAT     H1 1395   5.958   5.932   0.628
  292WAT     H2 1396   6.058   5.820   0.648
  293WAT      O 1397   6.192   6.027   1.384
  293WAT     H1 1398   6.242   6.075   1.451
  293WAT     H2 1399   6.206   5.935   1.405
  294WAT      O 1400   6.432   5.558   0.728
  294WAT     H1 1401   6.420   5.560   0.633
  294WAT     H2 1402   6.527   5.563   0.740
  295WAT      O 1403   5.850   5.716   0.322
  295WAT     H1 1404   5.935   5.760   0.315
  295WAT     H2 1405   5.813   5.748   0.404
  296WAT      O 1406   5.609   6.085   0.237
  296WAT     H1 1407   5.617   5.990   0.249
  296WAT     H2 1408   5.698   6.118   0.248
  297WAT      O 1409   6.473   6.629   1.861
  297WAT     H1 1410   6.413   6.631   1.787
  297WAT     H2 1411   6.443   6.556   1.915
  298WAT      O 1412   5.362   6.267   1.761
  298WAT     H1 1413   5.412   6.209   1.818
  298WAT     H2 1414   5.288   6.295   1.815
  299WAT      O 1415   6.067   6.408   1.714
  299WAT     H1 1416   5.991   6.465   1.706
  299WAT     H2 1417   6.085   6.379   1.625
  300WAT      O 1418   6.376   6.445   0.177
  300WAT     H1 1419   6.321   6.490   0.241
  300WAT     H2 1420   6.438   6.395   0.229
  301WAT      O 1421   5.565   6.081   1.850
  301WAT     H1 1422   5.569   6.052   1.941
  301WAT     H2 1423   5.650   6.121   1.835
  302WAT      O 1424   5.943   6.341   0.366
  302WAT     H1 1425   5.985   6.325   0.451
  302WAT     H2 1426   5.955   6.260   0.317
  303WAT      O 1427   5.759   5.939   1.647
  303WAT     H1 1428   5.706   5.890   1.584
  303WAT     H2 1429   5.826   5.982   1.594
  304WAT      O 1430   5.808   5.636   1.655
  304WAT     H1 1431   5.798   5.574   1.583
  304WAT     H2 1432   5.750   5.709   1.632
  305WAT      O 1433   6.084   5.492   1.358
  305WAT     H1 1434   6.040   5.494   1.274
  305WAT     H2 1435   6.021   5.452   1.418
  306WAT      O 1436   6.125   6.381   1.421
  306WAT     H1 1437   6.167   6.466   1.403
  306WAT     H2 1438   6.033   6.395   1.398
  307WAT      O 1439   6.359   6.154   1.559
  307WAT     H1 1440   6.371   6.095   1.633
  307WAT     H2 1441   6.445   6.158   1.517
  308WAT      O 1442   6.035   5.809   1.685
  308WAT     H1 1443   6.094   5.778   1.753
  308WAT     H2 1444   5.954   5.761   1.700
  309WAT      O 1445   6.517   5.770   1.708
  309WAT     H1 1446   6.448   5.704   1.702
  309WAT     H2 1447   6.589   5.726   1.753
  310WAT      O 1448   6.580   5.430   0.314
  310WAT     H1 1449   6.608   5.345   0.350
  310WAT     H2 1450   6.503   5.453   0.365
  311WAT      O 1451   5.368   6.206   0.798
  311WAT     H1 1452   5.303   6.179   0.734
  311WAT     H2 1453   5.452   6.195   0.753
  312WAT      O 1454   5.472   6.244   1.252
  312WAT     H1 1455   5.509   6.236   1.340
  312WAT     H2 1456   5.415   6.168   1.242
  313WAT      O 1457   5.427   5.936   1.643
  313WAT     H1 1458   5.338   5.932   1.677
  313WAT     H2 1459   5.481   5.955   1.719
  314WAT      O 1460   5.289   5.927   0.392
  314WAT     H1 1461   5.199   5.953   0.375
  314WAT     H2 1462   5.338   5.954   0.314
  315WAT      O 1463   5.477   5.363   1.077
  315WAT     H1 1464   5.542   5.308   1.033
  315WAT     H2 1465   5.519   5.388   1.160
  316WAT      O 1466   5.453   5.379   1.352
  316WAT     H1 1467   5.418   5.424   1.428
  316WAT     H2 1468   5.420   5.289   1.360
  317WAT      O 1469   6.204   5.498   1.704
  317WAT     H1 1470   6.198   5.557   1.779
  317WAT     H2 1471   6.298   5.487   1.689
  318WAT      O 1472   6.468   5.463   1.668
  318WAT     H1 1473   6.529   5.495   1.602
  318WAT     H2 1474   6.522   5.415   1.730
  319WAT      O 1475   5.520   5.331   1.679
  319WAT     H1 1476   5.575   5.313   1.603
  319WAT     H2 1477   5.527   5.252   1.733
  320WAT      O 1478   6.542   5.320   1.301
  320WAT     H1 1479   6.454   5.353   1.280
  320WAT     H2 1480   6.531   5.272   1.383
  321WAT      O 1481   6.317   5.411   1.194
  321WAT     H1 1482   6.238   5.459   1.222
  321WAT     H2 1483   6.287   5.321   1.184
  322WAT      O 1484   5.451   5.442   0.447
  322WAT     H1 1485   5.527   5.453   0.389
  322WAT     H2 1486   5.405   5.526   0.442
  323WAT      O 1487   6.105   5.653   0.746
  323WAT     H1 1488   6.024   5.616   0.712
  323WAT     H2 1489   6.156   5.578   0.776
  324WAT      O 1490   6.555   5.320   0.869
  324WAT     H1 1491   6.616   5.377   0.917
  324WAT     H2 1492   6.481   5.376   0.847
  325WAT      O 1493   5.688   5.495   0.301
  325WAT     H1 1494   5.741   5.416   0.288
  325WAT     H2 1495   5.752   5.562   0.324
  326WAT      O 1496   5.908   5.468   0.606
  326WAT     H1 1497   5.845   5.398   0.623
  326WAT     H2 1498   5.854   5.544   0.584
  327WAT      O 1499   5.920   5.396   1.850
  327WAT     H1 1500   5.892   5.446   1.773
  327WAT     H2 1501   5.958   5.316   1.813
  328WAT      O 1502   6.471   4.262   4.576
  328WAT     H1 1503   6.463   4.171   4.549
  328WAT     H2 1504   6.430   4.312   4.505
  329WAT      O 1505   6.284   4.440   4.764
  329WAT     H1 1506   6.207   4.392   4.793
  329WAT     H2 1507   6.349   4.372   4.747
  330WAT      O 1508   5.686   4.471   4.852
  330WAT     H1 1509   5.603   4.446   4.892
  330WAT     H2 1510   5.747   4.478   4.926
  331WAT      O 1511   5.684   4.875   4.872
  331WAT     H1 1512   5.714   4.785   4.854
  331WAT     H2 1513   5.758   4.930   4.849
  332WAT      O 1514   5.527   3.967   4.230
  332WAT     H1 1515   5.438   4.001   4.220
  332WAT     H2 1516   5.555   3.947   4.141
  333WAT      O 1517   5.323   4.227   4.819
  333WAT     H1 1518   5.380   4.150   4.819
  333WAT     H2 1519   5.323   4.257   4.728
  334WAT      O 1520   6.309   5.109   4.604
  334WAT     H1 1521   6.247   5.155   4.547
  334WAT     H2 1522   6.394   5.125   4.564
  335WAT      O 1523   6.228   4.707   4.765
  335WAT     H1 1524   6.221   4.613   4.749
  335WAT     H2 1525   6.304   4.717   4.822
  336WAT      O 1526   5.447   3.768   4.997
  336WAT     H1 1527   5.429   3.678   5.025
  336WAT     H2 1528   5.407   3.823   5.065
  337WAT      O 1529   6.331   3.988   4.788
  337WAT     H1 1530   6.369   3.901   4.776
  337WAT     H2 1531   6.321   4.022   4.698
  338WAT      O 1532   5.744   3.825   4.334
  338WAT     H1 1533   5.755   3.915   4.364
  338WAT     H2 1534   5.653   3.821   4.305
  339WAT      O 1535   5.509   4.018   4.858
  339WAT     H1 1536   5.577   4.044   4.920
  339WAT     H2 1537   5.478   3.934   4.892
  340WAT      O 1538   5.928   4.122   4.767
  340WAT     H1 1539   5.979   4.172   4.831
  340WAT     H2 1540   5.981   4.045   4.749
  341WAT      O 1541   5.757   3.586   5.194
  341WAT     H1 1542   5.757   3.638   5.113
  341WAT     H2 1543   5.674   3.539   5.191
  342WAT      O 1544   6.395   4.597   4.344
  342WAT     H1 1545   6.334   4.644   4.287
  342WAT     H2 1546   6.447   4.667   4.385
  343WAT      O 1547   5.882   4.550   5.011
  343WAT     H1 1548   5.848   4.613   5.076
  343WAT     H2 1549   5.899   4.603   4.933
  344WAT      O 1550   5.725   3.757   4.994
  344WAT     H1 1551   5.759   3.842   4.965
  344WAT     H2 1552   5.631   3.772   5.006
  345WAT      O 1553   5.803   4.747   5.193
  345WAT     H1 1554   5.865   4.815   5.165
  345WAT     H2 1555   5.717   4.788   5.184
  346WAT      O 1556   5.332   4.666   4.081
  346WAT     H1 1557   5.295   4.715   4.008
  346WAT     H2 1558   5.358   4.733   4.144
  347WAT      O 1559   6.093   3.506   4.627
  347WAT     H1 1560   6.124   3.451   4.555
  347WAT     H2 1561   6.000   3.520   4.609
  348WAT      O 1562   6.332   4.313   4.300
  348WAT     H1 1563   6.239   4.306   4.323
  348WAT     H2 1564   6.347   4.407   4.289
  349WAT      O 1565   6.331   3.940   4.000
  349WAT     H1 1566   6.237   3.956   4.009
  349WAT     H2 1567   6.362   4.012   3.945
  350WAT      O 1568   5.893   4.365   4.579
  350WAT     H1 1569   5.852   4.294   4.529
  350WAT     H2 1570   5.901   4.331   4.667
  351WAT      O 1571   5.939   4.734   4.795
  351WAT     H1 1572   5.910   4.673   4.727
  351WAT     H2 1573   6.034   4.738   4.784
  352WAT      O 1574   5.764   4.043   4.957
  352WAT     H1 1575   5.819   4.054   4.879
  352WAT     H2 1576   5.815   4.080   5.028
  353WAT      O 1577   5.849   4.708   5.460
  353WAT     H1 1578   5.759   4.730   5.485
  353WAT     H2 1579   5.851   4.720   5.365
  354WAT      O 1580   6.553   4.393   4.051
  354WAT     H1 1581   6.597   4.309   4.037
  354WAT     H2 1582   6.624   4.456   4.060
  355WAT      O 1583   5.731   4.395   5.318
  355WAT     H1 1584   5.717   4.482   5.354
  355WAT     H2 1585   5.643   4.361   5.303
  356WAT      O 1586   6.364   4.887   4.448
  356WAT     H1 1587   6.407   4.961   4.407
  356WAT     H2 1588   6.357   4.911   4.541
  357WAT      O 1589   5.911   4.989   5.538
  357WAT     H1 1590   5.908   5.030   5.452
  357WAT     H2 1591   5.895   4.896   5.522
  358WAT      O 1592   5.563   4.255   4.329
  358WAT     H1 1593   5.551   4.327   4.267
  358WAT     H2 1594   5.532   4.178   4.281
  359WAT      O 1595   5.326   4.572   4.909
  359WAT     H1 1596   5.334   4.585   4.815
  359WAT     H2 1597   5.388   4.501   4.929
  360WAT      O 1598   5.451   4.742   4.550
  360WAT     H1 1599   5.410   4.756   4.465
  360WAT     H2 1600   5.540   4.714   4.530
  361WAT      O 1601   6.433   5.157   5.241
  361WAT     H1 1602   6.484   5.148   5.321
  361WAT     H2 1603   6.348   5.191   5.270
  362WAT      O 1604   5.878   5.163   4.362
  362WAT     H1 1605   5.861   5.072   4.340
  362WAT     H2 1606   5.793   5.199   4.386
  363WAT      O 1607   6.557   5.099   4.447
  363WAT     H1 1608   6.603   5.021   4.479
  363WAT     H2 1609   6.591   5.170   4.502
  364WAT      O 1610   5.332   4.676   5.163
  364WAT     H1 1611   5.348   4.629   5.081
  364WAT     H2 1612   5.379   4.625   5.230
  365WAT      O 1613   5.809   3.589   4.667
  365WAT     H1 1614   5.765   3.667   4.634
  365WAT     H2 1615   5.865   3.621   4.738
  366WAT      O 1616   6.238   3.876   5.227
  366WAT     H1 1617   6.192   3.897   5.308
  366WAT     H2 1618   6.198   3.794   5.197
  367WAT      O 1619   6.447   4.148   5.550
  367WAT     H1 1620   6.480   4.065   5.516
  367WAT     H2 1621   6.526   4.200   5.565
  368WAT      O 1622   6.121   3.551   4.155
  368WAT     H1 1623   6.058   3.551   4.227
  368WAT     H2 1624   6.112   3.465   4.115
  369WAT      O 1625   6.013   3.644   4.853
  369WAT     H1 1626   6.043   3.734   4.845
  369WAT     H2 1627   6.068   3.595   4.791
  370WAT      O 1628   5.788   4.101   4.440
  370WAT     H1 1629   5.766   4.080   4.530
  370WAT     H2 1630   5.710   4.145   4.405
  371WAT      O 1631   6.511   4.102   4.300
  371WAT     H1 1632   6.451   4.174   4.281
  371WAT     H2 1633   6.566   4.096   4.221
  372WAT      O 1634   6.032   4.191   5.506
  372WAT     H1 1635   6.023   4.097   5.491
  372WAT     H2 1636   6.117   4.213   5.467
  373WAT      O 1637   6.372   3.966   4.503
  373WAT     H1 1638   6.411   3.997   4.421
  373WAT     H2 1639   6.408   3.878   4.514
  374WAT      O 1640   5.545   3.832   5.322
  374WAT     H1 1641   5.506   3.917   5.342
  374WAT     H2 1642   5.477   3.769   5.341
  375WAT      O 1643   5.276   3.625   4.725
  375WAT     H1 1644   5.247   3.682   4.796
  375WAT     H2 1645   5.350   3.577   4.761
  376WAT      O 1646   5.294   4.019   3.846
  376WAT     H1 1647   5.286   4.113   3.860
  376WAT     H2 1648   5.259   4.005   3.758
  377WAT      O 1649   6.431   4.225   4.912
  377WAT     H1 1650   6.357   4.276   4.947
  377WAT     H2 1651   6.391   4.143   4.882
  378WAT      O 1652   6.074   3.892   4.753
  378WAT     H1 1653   6.075   3.848   4.668
  378WAT     H2 1654   6.164   3.925   4.763
  379WAT      O 1655   5.659   3.881   4.649
  379WAT     H1 1656   5.625   3.928   4.724
  379WAT     H2 1657   5.583   3.835   4.613
  380WAT      O 1658   6.080   3.992   4.052
  380WAT     H1 1659   6.093   3.988   4.147
  380WAT     H2 1660   6.042   4.079   4.036
  381WAT      O 1661   6.477   3.770   4.853
  381WAT     H1 1662   6.479   3.815   4.938
  381WAT     H2 1663   6.452   3.680   4.875
  382WAT      O 1664   5.982   4.223   3.992
  382WAT     H1 1665   5.925   4.179   3.929
  382WAT     H2 1666   6.053   4.259   3.938
  383WAT      O 1667   5.489   4.614   5.379
  383WAT     H1 1668   5.451   4.550   5.439
  383WAT     H2 1669   5.521   4.684   5.436
  384WAT      O 1670   6.104   4.298   4.927
  384WAT     H1 1671   6.141   4.251   5.002
  384WAT     H2 1672   6.085   4.386   4.961
  385WAT      O 1673   5.391   3.773   4.540
  385WAT     H1 1674   5.362   3.736   4.624
  385WAT     H2 1675   5.385   3.700   4.479
  386WAT      O 1676   5.883   4.202   5.159
  386WAT     H1 1677   5.853   4.290   5.182
  386WAT     H2 1678   5.979   4.208   5.163
  387WAT      O 1679   5.736   4.623   4.219
  387WAT     H1 1680   5.659   4.569   4.203
  387WAT     H2 1681   5.809   4.571   4.185
  388WAT      O 1682   6.358   3.662   4.212
  388WAT     H1 1683   6.277   3.612   4.205
  388WAT     H2 1684   6.339   3.746   4.171
  389WAT      O 1685   6.350   4.530   5.387
  389WAT     H1 1686   6.344   4.438   5.361
  389WAT     H2 1687   6.287   4.540   5.458
  390WAT      O 1688   5.741   4.590   4.583
  390WAT     H1 1689   5.792   4.510   4.577
  390WAT     H2 1690   5.695   4.584   4.667
  391WAT      O 1691   6.229   4.717   4.110
  391WAT     H1 1692   6.263   4.791   4.060
  391WAT     H2 1693   6.146   4.748   4.146
  392WAT      O 1694   5.489   4.286   5.274
  392WAT     H1 1695   5.453   4.353   5.333
  392WAT     H2 1696   5.460   4.203   5.311
  393WAT      O 1697   5.809   4.332   5.562
  393WAT     H1 1698   5.779   4.347   5.473
  393WAT     H2 1699   5.886   4.276   5.553
  394WAT      O 1700   6.343   4.812   5.362
  394WAT     H1 1701   6.345   4.719   5.340
  394WAT     H2 1702   6.273   4.821   5.426
  395WAT      O 1703   6.518   4.649   4.646
  395WAT     H1 1704   6.553   4.589   4.580
  395WAT     H2 1705   6.429   4.616   4.663
  396WAT      O 1706   6.126   4.725   4.387
  396WAT     H1 1707   6.195   4.779   4.425
  396WAT     H2 1708   6.047   4.779   4.391
  397WAT      O 1709   5.340   4.286   3.936
  397WAT     H1 1710   5.427   4.315   3.965
  397WAT     H2 1711   5.291   4.368   3.925
  398WAT      O 1712   6.056   4.425   4.348
  398WAT     H1 1713   6.102   4.506   4.371
  398WAT     H2 1714   6.021   4.393   4.431
  399WAT      O 1715   6.287   4.976   5.071
  399WAT     H1 1716   6.351   4.997   5.139
  399WAT     H2 1717   6.323   4.900   5.026
  400WAT      O 1718   5.647   3.460   4.396
  400WAT     H1 1719   5.634   3.459   4.490
  400WAT     H2 1720   5.564   3.493   4.360
  401WAT      O 1721   6.414   4.777   4.943
  401WAT     H1 1722   6.478   4.706   4.954
  401WAT     H2 1723   6.467   4.855   4.925
  402WAT      O 1724   6.591   4.856   5.263
  402WAT     H1 1725   6.625   4.915   5.331
  402WAT     H2 1726   6.499   4.843   5.286
  403WAT      O 1727   5.377   5.208   3.993
  403WAT     H1 1728   5.413   5.268   3.927
  403WAT     H2 1729   5.363   5.262   4.070
  404WAT      O 1730   5.346   3.635   5.342
  404WAT     H1 1731   5.275   3.655   5.402
  404WAT     H2 1732   5.388   3.558   5.379
  405WAT      O 1733   5.375   5.034   5.440
  405WAT     H1 1734   5.386   4.940   5.426
  405WAT     H2 1735   5.310   5.061   5.375
  406WAT      O 1736   5.978   4.946   4.075
  406WAT     H1 1737   5.978   5.019   4.013
  406WAT     H2 1738   5.886   4.921   4.084
  407WAT      O 1739   5.539   4.468   4.149
  407WAT     H1 1740   5.478   4.542   4.150
  407WAT     H2 1741   5.586   4.477   4.066
  408WAT      O 1742   6.496   3.885   5.117
  408WAT     H1 1743   6.533   3.803   5.149
  408WAT     H2 1744   6.410   3.891   5.158
  409WAT      O 1745   6.277   4.952   3.941
  409WAT     H1 1746   6.287   4.932   3.848
  409WAT     H2 1747   6.187   4.927   3.961
  410WAT      O 1748   6.029   4.008   4.339
  410WAT     H1 1749   5.958   4.055   4.383
  410WAT     H2 1750   6.058   3.942   4.403
  411WAT      O 1751   6.192   4.150   5.139
  411WAT     H1 1752   6.242   4.198   5.206
  411WAT     H2 1753   6.206   4.058   5.160
  412WAT      O 1754   6.432   3.681   4.483
  412WAT     H1 1755   6.420   3.682   4.388
  412WAT     H2 1756   6.527   3.685   4.495
  413WAT      O 1757   6.141   5.204   4.410
  413WAT     H1 1758   6.167   5.200   4.318
  413WAT     H2 1759   6.046   5.191   4.410
  414WAT      O 1760   5.850   3.839   4.077
  414WAT     H1 1761   5.935   3.883   4.070
  414WAT     H2 1762   5.813   3.870   4.159
  415WAT      O 1763   5.740   4.464   3.924
  415WAT     H1 1764   5.816   4.453   3.980
  415WAT     H2 1765   5.747   4.395   3.859
  416WAT      O 1766   5.609   4.208   3.992
  416WAT     H1 1767   5.617   4.113   4.003
  416WAT     H2 1768   5.698   4.241   4.003
  417WAT      O 1769   5.689   5.222   4.703
  417WAT     H1 1770   5.763   5.168   4.730
  417WAT     H2 1771   5.728   5.309   4.689
  418WAT      O 1772   5.378   4.829   4.290
  418WAT     H1 1773   5.285   4.853   4.289
  418WAT     H2 1774   5.424   4.912   4.278
  419WAT      O 1775   6.000   5.140   3.885
  419WAT     H1 1776   6.080   5.169   3.840
  419WAT     H2 1777   5.948   5.097   3.817
  420WAT      O 1778   6.052   4.662   3.871
  420WAT     H1 1779   6.042   4.600   3.944
  420WAT     H2 1780   6.035   4.609   3.793
  421WAT      O 1781   6.067   4.530   5.469
  421WAT     H1 1782   5.991   4.587   5.461
  421WAT     H2 1783   6.085   4.501   5.380
  422WAT      O 1784   6.376   4.568   3.932
  422WAT     H1 1785   6.321   4.613   3.996
  422WAT     H2 1786   6.438   4.517   3.984
  423WAT      O 1787   5.943   4.464   4.121
  423WAT     H1 1788   5.985   4.447   4.206
  423WAT     H2 1789   5.955   4.383   4.072
  424WAT      O 1790   5.759   4.062   5.402
  424WAT     H1 1791   5.706   4.013   5.339
  424WAT     H2 1792   5.826   4.105   5.349
  425WAT      O 1793   6.194   4.366   3.846
  425WAT     H1 1794   6.246   4.295   3.810
  425WAT     H2 1795   6.259   4.430   3.876
  426WAT      O 1796   5.808   3.758   5.410
  426WAT     H1 1797   5.798   3.697   5.338
  426WAT     H2 1798   5.750   3.831   5.387
  427WAT      O 1799   6.084   3.614   5.113
  427WAT     H1 1800   6.040   3.616   5.029
  427WAT     H2 1801   6.021   3.574   5.173
  428WAT      O 1802   6.125   4.504   5.175
  428WAT     H1 1803   6.167   4.588   5.158
  428WAT     H2 1804   6.033   4.517   5.153
  429WAT      O 1805   6.359   4.277   5.314
  429WAT     H1 1806   6.371   4.217   5.388
  429WAT     H2 1807   6.445   4.281   5.272
  430WAT      O 1808   5.832   4.071   3.816
  430WAT     H1 1809   5.812   3.985   3.852
  430WAT     H2 1810   5.815   4.063   3.722
  431WAT      O 1811   5.910   5.134   5.287
  431WAT     H1 1812   5.856   5.207   5.255
  431WAT     H2 1813   5.935   5.087   5.208
  432WAT      O 1814   6.035   3.931   5.440
  432WAT     H1 1815   6.094   3.900   5.508
  432WAT     H2 1816   5.954   3.884   5.455
  433WAT      O 1817   6.517   3.893   5.463
  433WAT     H1 1818   6.448   3.827   5.456
  433WAT     H2 1819   6.589   3.848   5.507
  434WAT      O 1820   6.580   3.552   4.069
  434WAT     H1 1821   6.608   3.468   4.104
  434WAT     H2 1822   6.503   3.576   4.120
  435WAT      O 1823   5.712   3.781   3.815
  435WAT     H1 1824   5.742   3.782   3.724
  435WAT     H2 1825   5.786   3.746   3.864
  436WAT      O 1826   6.196   5.258   5.313
  436WAT     H1 1827   6.188   5.348   5.344
  436WAT     H2 1828   6.105   5.226   5.310
  437WAT      O 1829   6.034   3.676   3.913
  437WAT     H1 1830   5.999   3.608   3.855
  437WAT     H2 1831   6.054   3.629   3.995
  438WAT      O 1832   6.251   5.174   4.075
  438WAT     H1 1833   6.340   5.208   4.077
  438WAT     H2 1834   6.254   5.102   4.012
  439WAT      O 1835   5.615   4.712   3.898
  439WAT     H1 1836   5.658   4.766   3.964
  439WAT     H2 1837   5.663   4.629   3.899
  440WAT      O 1838   5.336   4.991   4.643
  440WAT     H1 1839   5.369   4.904   4.620
  440WAT     H2 1840   5.379   5.011   4.726
  441WAT      O 1841   5.796   4.824   4.409
  441WAT     H1 1842   5.766   4.811   4.499
  441WAT     H2 1843   5.785   4.738   4.368
  442WAT      O 1844   5.385   5.077   4.917
  442WAT     H1 1845   5.341   5.095   5.000
  442WAT     H2 1846   5.442   5.153   4.903
  443WAT      O 1847   5.368   4.328   4.553
  443WAT     H1 1848   5.303   4.302   4.489
  443WAT     H2 1849   5.452   4.318   4.508
  444WAT      O 1850   5.472   4.367   5.007
  444WAT     H1 1851   5.509   4.358   5.095
  444WAT     H2 1852   5.415   4.291   4.997
  445WAT      O 1853   5.427   4.058   5.398
  445WAT     H1 1854   5.338   4.055   5.431
  445WAT     H2 1855   5.481   4.078   5.474
  446WAT      O 1856   5.289   4.049   4.147
  446WAT     H1 1857   5.199   4.076   4.130
  446WAT     H2 1858   5.338   4.077   4.069
  447WAT      O 1859   5.544   3.955   3.938
  447WAT     H1 1860   5.615   3.913   3.890
  447WAT     H2 1861   5.472   3.962   3.875
  448WAT      O 1862   5.509   3.561   3.842
  448WAT     H1 1863   5.581   3.615   3.874
  448WAT     H2 1864   5.536   3.533   3.755
  449WAT      O 1865   5.477   3.486   4.832
  449WAT     H1 1866   5.542   3.431   4.788
  449WAT     H2 1867   5.519   3.511   4.915
  450WAT      O 1868   5.453   3.501   5.107
  450WAT     H1 1869   5.418   3.547   5.183
  450WAT     H2 1870   5.420   3.412   5.115
  451WAT      O 1871   5.983   4.974   5.083
  451WAT     H1 1872   5.959   5.001   4.995
  451WAT     H2 1873   6.077   4.991   5.089
  452WAT      O 1874   6.204   3.620   5.459
  452WAT     H1 1875   6.198   3.679   5.534
  452WAT     H2 1876   6.298   3.609   5.444
  453WAT      O 1877   6.468   3.586   5.423
  453WAT     H1 1878   6.529   3.618   5.357
  453WAT     H2 1879   6.522   3.537   5.485
  454WAT      O 1880   5.520   3.454   5.434
  454WAT     H1 1881   5.575   3.436   5.358
  454WAT     H2 1882   5.527   3.375   5.488
  455WAT      O 1883   5.597   5.113   5.235
  455WAT     H1 1884   5.538   5.100   5.309
  455WAT     H2 1885   5.597   5.029   5.189
  456WAT      O 1886   6.542   3.442   5.055
  456WAT     H1 1887   6.454   3.476   5.035
  456WAT     H2 1888   6.531   3.395   5.138
  457WAT      O 1889   5.560   4.850   5.130
  457WAT     H1 1890   5.488   4.788   5.123
  457WAT     H2 1891   5.566   4.889   5.043
  458WAT      O 1892   5.921   5.071   4.809
  458WAT     H1 1893   5.972   5.010   4.756
  458WAT     H2 1894   5.986   5.121   4.858
  459WAT      O 1895   6.195   5.160   4.891
  459WAT     H1 1896   6.224   5.135   4.804
  459WAT     H2 1897   6.246   5.105   4.950
  460WAT      O 1898   6.317   3.534   4.949
  460WAT     H1 1899   6.238   3.581   4.977
  460WAT     H2 1900   6.287   3.444   4.938
  461WAT      O 1901   5.389   5.181   4.451
  461WAT     H1 1902   5.372   5.118   4.521
  461WAT     H2 1903   5.302   5.202   4.416
  462WAT      O 1904   5.451   3.564   4.201
  462WAT     H1 1905   5.527   3.576   4.144
  462WAT     H2 1906   5.405   3.648   4.197
  463WAT      O 1907   6.105   3.776   4.501
  463WAT     H1 1908   6.024   3.738   4.466
  463WAT     H2 1909   6.156   3.700   4.531
  464WAT      O 1910   6.555   3.442   4.624
  464WAT     H1 1911   6.616   3.499   4.672
  464WAT     H2 1912   6.481   3.499   4.602
  465WAT      O 1913   5.549   5.051   4.196
  465WAT     H1 1914   5.497   5.089   4.125
  465WAT     H2 1915   5.542   5.113   4.268
  466WAT      O 1916   5.688   3.617   4.056
  466WAT     H1 1917   5.741   3.538   4.043
  466WAT     H2 1918   5.752   3.685   4.079
  467WAT      O 1919   5.908   3.591   4.361
  467WAT     H1 1920   5.845   3.521   4.378
  467WAT     H2 1921   5.854   3.667   4.339
  468WAT      O 1922   5.809   5.245   4.083
  468WAT     H1 1923   5.882   5.217   4.028
  468WAT     H2 1924   5.835   5.222   4.172
  469WAT      O 1925   5.725   4.857   4.084
  469WAT     H1 1926   5.662   4.904   4.138
  469WAT     H2 1927   5.737   4.773   4.127
  470WAT      O 1928   6.471   4.262   2.699
  470WAT     H1 1929   6.463   4.171   2.672
  470WAT     H2 1930   6.430   4.312   2.628
  471WAT      O 1931   6.284   4.440   2.887
  471WAT     H1 1932   6.207   4.392   2.916
  471WAT     H2 1933   6.349   4.372   2.869
  472WAT      O 1934   5.686   4.471   2.974
  472WAT     H1 1935   5.603   4.446   3.014
  472WAT     H2 1936   5.747   4.478   3.048
  473WAT      O 1937   5.684   4.875   2.994
  473WAT     H1 1938   5.714   4.785   2.976
  473WAT     H2 1939   5.758   4.930   2.971
  474WAT      O 1940   5.527   3.967   2.353
  474WAT     H1 1941   5.438   4.001   2.343
  474WAT     H2 1942   5.555   3.947   2.264
  475WAT      O 1943   5.323   4.227   2.941
  475WAT     H1 1944   5.380   4.150   2.941
  475WAT     H2 1945   5.323   4.257   2.850
  476WAT      O 1946   6.309   5.109   2.727
  476WAT     H1 1947   6.247   5.155   2.670
  476WAT     H2 1948   6.394   5.125   2.687
  477WAT      O 1949   6.228   4.707   2.887
  477WAT     H1 1950   6.221   4.613   2.871
  477WAT     H2 1951   6.304   4.717   2.945
  478WAT      O 1952   5.447   3.768   3.120
  478WAT     H1 1953   5.429   3.678   3.148
  478WAT     H2 1954   5.407   3.823   3.187
  479WAT      O 1955   6.331   3.988   2.910
  479WAT     H1 1956   6.369   3.901   2.899
  479WAT     H2 1957   6.321   4.022   2.821
  480WAT      O 1958   5.744   3.825   2.456
  480WAT     H1 1959   5.755   3.915   2.487
  480WAT     H2 1960   5.653   3.821   2.427
  481WAT      O 1961   5.509   4.018   2.981
  481WAT     H1 1962   5.577   4.044   3.043
  481WAT     H2 1963   5.478   3.934   3.014
  482WAT      O 1964   5.928   4.122   2.890
  482WAT     H1 1965   5.979   4.172   2.954
  482WAT     H2 1966   5.981   4.045   2.872
  483WAT      O 1967   5.757   3.586   3.316
  483WAT     H1 1968   5.757   3.638   3.236
  483WAT     H2 1969   5.674   3.539   3.314
  484WAT      O 1970   6.395   4.597   2.466
  484WAT     H1 1971   6.334   4.644   2.410
  484WAT     H2 1972   6.447   4.667   2.508
  485WAT      O 1973   5.882   4.550   3.134
  485WAT     H1 1974   5.848   4.613   3.198
  485WAT     H2 1975   5.899   4.603   3.056
  486WAT      O 1976   5.725   3.757   3.117
  486WAT     H1 1977   5.759   3.842   3.087
  486WAT     H2 1978   5.631   3.772   3.129
  487WAT      O 1979   5.803   4.747   3.315
  487WAT     H1 1980   5.865   4.815   3.287
  487WAT     H2 1981   5.717   4.788   3.306
  488WAT      O 1982   5.332   4.666   2.203
  488WAT     H1 1983   5.295   4.715   2.130
  488WAT     H2 1984   5.358   4.733   2.267
  489WAT      O 1985   6.093   3.506   2.749
  489WAT     H1 1986   6.124   3.451   2.678
  489WAT     H2 1987   6.000   3.520   2.731
  490WAT      O 1988   6.332   4.313   2.423
  490WAT     H1 1989   6.239   4.306   2.446
  490WAT     H2 1990   6.347   4.407   2.411
  491WAT      O 1991   6.331   3.940   2.123
  491WAT     H1 1992   6.237   3.956   2.131
  491WAT     H2 1993   6.362   4.012   2.068
  492WAT      O 1994   5.893   4.365   2.701
  492WAT     H1 1995   5.852   4.294   2.652
  492WAT     H2 1996   5.901   4.331   2.790
  493WAT      O 1997   5.939   4.734   2.918
  493WAT     H1 1998   5.910   4.673   2.850
  493WAT     H2 1999   6.034   4.738   2.906
  494WAT      O 2000   5.764   4.043   3.079
  494WAT     H1 2001   5.819   4.054   3.002
  494WAT     H2 2002   5.815   4.080   3.151
  495WAT      O 2003   5.849   4.708   3.583
  495WAT     H1 2004   5.759   4.730   3.607
  495WAT     H2 2005   5.851   4.720   3.488
  496WAT      O 2006   6.553   4.393   2.174
  496WAT     H1 2007   6.597   4.309   2.159
  496WAT     H2 2008   6.624   4.456   2.183
  497WAT      O 2009   5.731   4.395   3.440
  497WAT     H1 2010   5.717   4.482   3.477
  497WAT     H2 2011   5.643   4.361   3.426
  498WAT      O 2012   6.364   4.887   2.571
  498WAT     H1 2013   6.407   4.961   2.529
  498WAT     H2 2014   6.357   4.911   2.663
  499WAT      O 2015   5.911   4.989   3.661
  499WAT     H1 2016   5.908   5.030   3.574
  499WAT     H2 2017   5.895   4.896   3.645
  500WAT      O 2018   5.563   4.255   2.451
  500WAT     H1 2019   5.551   4.327   2.390
  500WAT     H2 2020   5.532   4.178   2.403
  501WAT      O 2021   5.326   4.572   3.032
  501WAT     H1 2022   5.334   4.585   2.937
  501WAT     H2 2023   5.388   4.501   3.051
  502WAT      O 2024   5.451   4.742   2.673
  502WAT     H1 2025   5.410   4.756   2.587
  502WAT     H2 2026   5.540   4.714   2.653
  503WAT      O 2027   6.433   5.157   3.364
  503WAT     H1 2028   6.484   5.148   3.444
  503WAT     H2 2029   6.348   5.191   3.393
  504WAT      O 2030   5.878   5.163   2.484
  504WAT     H1 2031   5.861   5.072   2.463
  504WAT     H2 2032   5.793   5.199   2.508
  505WAT      O 2033   6.557   5.099   2.570
  505WAT     H1 2034   6.603   5.021   2.601
  505WAT     H2 2035   6.591   5.170   2.624
  506WAT      O 2036   5.332   4.676   3.286
  506WAT     H1 2037   5.348   4.629   3.204
  506WAT     H2 2038   5.379   4.625   3.352
  507WAT      O 2039   5.809   3.589   2.789
  507WAT     H1 2040   5.765   3.667   2.756
  507WAT     H2 2041   5.865   3.621   2.860
  508WAT      O 2042   6.238   3.876   3.350
  508WAT     H1 2043   6.192   3.897   3.431
  508WAT     H2 2044   6.198   3.794   3.320
  509WAT      O 2045   6.447   4.148   3.673
  509WAT     H1 2046   6.480   4.065   3.639
  509WAT     H2 2047   6.526   4.200   3.688
  510WAT      O 2048   6.121   3.551   2.278
  510WAT     H1 2049   6.058   3.551   2.350
  510WAT     H2 2050   6.112   3.465   2.238
  511WAT      O 2051   6.013   3.644   2.975
  511WAT     H1 2052   6.043   3.734   2.967
  511WAT     H2 2053   6.068   3.595   2.914
  512WAT      O 2054   5.788   4.101   2.562
  512WAT     H1 2055   5.766   4.080   2.653
  512WAT     H2 2056   5.710   4.145   2.528
  513WAT      O 2057   6.511   4.102   2.422
  513WAT     H1 2058   6.451   4.174   2.404
  513WAT     H2 2059   6.566   4.096   2.344
  514WAT      O 2060   6.032   4.191   3.629
  514WAT     H1 2061   6.023   4.097   3.614
  514WAT     H2 2062   6.117   4.213   3.589
  515WAT      O 2063   6.372   3.966   2.625
  515WAT     H1 2064   6.411   3.997   2.544
  515WAT     H2 2065   6.408   3.878   2.637
  516WAT      O 2066   5.545   3.832   3.444
  516WAT     H1 2067   5.506   3.917   3.465
  516WAT     H2 2068   5.477   3.769   3.463
  517WAT      O 2069   6.203   3.841   3.751
  517WAT     H1 2070   6.134   3.822   3.815
  517WAT     H2 2071   6.277   3.869   3.804
  518WAT      O 2072   5.276   3.625   2.847
  518WAT     H1 2073   5.247   3.682   2.919
  518WAT     H2 2074   5.350   3.577   2.884
  519WAT      O 2075   5.294   4.019   1.969
  519WAT     H1 2076   5.286   4.113   1.983
  519WAT     H2 2077   5.259   4.005   1.881
  520WAT      O 2078   6.431   4.225   3.035
  520WAT     H1 2079   6.357   4.276   3.070
  520WAT     H2 2080   6.391   4.143   3.005
  521WAT      O 2081   6.074   3.892   2.875
  521WAT     H1 2082   6.075   3.848   2.790
  521WAT     H2 2083   6.164   3.925   2.886
  522WAT      O 2084   5.659   3.881   2.771
  522WAT     H1 2085   5.625   3.928   2.847
  522WAT     H2 2086   5.583   3.835   2.735
  523WAT      O 2087   6.080   3.992   2.174
  523WAT     H1 2088   6.093   3.988   2.269
  523WAT     H2 2089   6.042   4.079   2.159
  524WAT      O 2090   6.477   3.770   2.976
  524WAT     H1 2091   6.479   3.815   3.060
  524WAT     H2 2092   6.452   3.680   2.997
  525WAT      O 2093   5.982   4.223   2.114
  525WAT     H1 2094   5.925   4.179   2.051
  525WAT     H2 2095   6.053   4.259   2.061
  526WAT      O 2096   5.489   4.614   3.502
  526WAT     H1 2097   5.451   4.550   3.562
  526WAT     H2 2098   5.521   4.684   3.559
  527WAT      O 2099   6.104   4.298   3.050
  527WAT     H1 2100   6.141   4.251   3.124
  527WAT     H2 2101   6.085   4.386   3.084
  528WAT      O 2102   5.391   3.773   2.663
  528WAT     H1 2103   5.362   3.736   2.747
  528WAT     H2 2104   5.385   3.700   2.601
  529WAT      O 2105   5.883   4.202   3.282
  529WAT     H1 2106   5.853   4.290   3.304
  529WAT     H2 2107   5.979   4.208   3.285
  530WAT      O 2108   5.736   4.623   2.341
  530WAT     H1 2109   5.659   4.569   2.325
  530WAT     H2 2110   5.809   4.571   2.308
  531WAT      O 2111   6.358   3.662   2.335
  531WAT     H1 2112   6.277   3.612   2.327
  531WAT     H2 2113   6.339   3.746   2.293
  532WAT      O 2114   6.350   4.530   3.509
  532WAT     H1 2115   6.344   4.438   3.484
  532WAT     H2 2116   6.287   4.540   3.581
  533WAT      O 2117   5.741   4.590   2.705
  533WAT     H1 2118   5.792   4.510   2.700
  533WAT     H2 2119   5.695   4.584   2.789
  534WAT      O 2120   6.229   4.717   2.232
  534WAT     H1 2121   6.263   4.791   2.183
  534WAT     H2 2122   6.146   4.748   2.269
  535WAT      O 2123   5.489   4.286   3.396
  535WAT     H1 2124   5.453   4.353   3.455
  535WAT     H2 2125   5.460   4.203   3.434
  536WAT      O 2126   5.809   4.332   3.685
  536WAT     H1 2127   5.779   4.347   3.595
  536WAT     H2 2128   5.886   4.276   3.676
  537WAT      O 2129   6.343   4.812   3.484
  537WAT     H1 2130   6.345   4.719   3.463
  537WAT     H2 2131   6.273   4.821   3.548
  538WAT      O 2132   6.518   4.649   2.769
  538WAT     H1 2133   6.553   4.589   2.703
  538WAT     H2 2134   6.429   4.616   2.786
  539WAT      O 2135   6.126   4.725   2.510
  539WAT     H1 2136   6.195   4.779   2.548
  539WAT     H2 2137   6.047   4.779   2.513
  540WAT      O 2138   5.340   4.286   2.059
  540WAT     H1 2139   5.427   4.315   2.087
  540WAT     H2 2140   5.291   4.368   2.047
  541WAT      O 2141   6.056   4.425   2.471
  541WAT     H1 2142   6.102   4.506   2.493
  541WAT     H2 2143   6.021   4.393   2.554
  542WAT      O 2144   6.287   4.976   3.194
  542WAT     H1 2145   6.351   4.997   3.262
  542WAT     H2 2146   6.323   4.900   3.148
  543WAT      O 2147   5.647   3.460   2.518
  543WAT     H1 2148   5.634   3.459   2.613
  543WAT     H2 2149   5.564   3.493   2.483
  544WAT      O 2150   6.414   4.777   3.066
  544WAT     H1 2151   6.478   4.706   3.077
  544WAT     H2 2152   6.467   4.855   3.048
  545WAT      O 2153   6.591   4.856   3.386
  545WAT     H1 2154   6.625   4.915   3.454
  545WAT     H2 2155   6.499   4.843   3.409
  546WAT      O 2156   5.377   5.208   2.115
  546WAT     H1 2157   5.413   5.268   2.050
  546WAT     H2 2158   5.363   5.262   2.193
  547WAT      O 2159   5.346   3.635   3.464
  547WAT     H1 2160   5.275   3.655   3.525
  547WAT     H2 2161   5.388   3.558   3.501
  548WAT      O 2162   5.375   5.034   3.563
  548WAT     H1 2163   5.386   4.940   3.549
  548WAT     H2 2164   5.310   5.061   3.498
  549WAT      O 2165   6.174   4.861   3.703
  549WAT     H1 2166   6.142   4.789   3.757
  549WAT     H2 2167   6.107   4.929   3.710
  550WAT      O 2168   5.978   4.946   2.197
  550WAT     H1 2169   5.978   5.019   2.136
  550WAT     H2 2170   5.886   4.921   2.206
  551WAT      O 2171   5.539   4.468   2.272
  551WAT     H1 2172   5.478   4.542   2.273
  551WAT     H2 2173   5.586   4.477   2.189
  552WAT      O 2174   6.496   3.885   3.239
  552WAT     H1 2175   6.533   3.803   3.272
  552WAT     H2 2176   6.410   3.891   3.281
  553WAT      O 2177   6.277   4.952   2.063
  553WAT     H1 2178   6.287   4.932   1.970
  553WAT     H2 2179   6.187   4.927   2.084
  554WAT      O 2180   6.029   4.008   2.462
  554WAT     H1 2181   5.958   4.055   2.506
  554WAT     H2 2182   6.058   3.942   2.525
  555WAT      O 2183   6.192   4.150   3.262
  555WAT     H1 2184   6.242   4.198   3.328
  555WAT     H2 2185   6.206   4.058   3.282
  556WAT      O 2186   6.432   3.681   2.606
  556WAT     H1 2187   6.420   3.682   2.511
  556WAT     H2 2188   6.527   3.685   2.618
  557WAT      O 2189   6.141   5.204   2.533
  557WAT     H1 2190   6.167   5.200   2.441
  557WAT     H2 2191   6.046   5.191   2.532
  558WAT      O 2192   5.850   3.839   2.199
  558WAT     H1 2193   5.935   3.883   2.193
  558WAT     H2 2194   5.813   3.870   2.282
  559WAT      O 2195   5.740   4.464   2.046
  559WAT     H1 2196   5.816   4.453   2.103
  559WAT     H2 2197   5.747   4.395   1.981
  560WAT      O 2198   5.609   4.208   2.115
  560WAT     H1 2199   5.617   4.113   2.126
  560WAT     H2 2200   5.698   4.241   2.125
  561WAT      O 2201   5.689   5.222   2.825
  561WAT     H1 2202   5.763   5.168   2.852
  561WAT     H2 2203   5.728   5.309   2.811
  562WAT      O 2204   5.378   4.829   2.413
  562WAT     H1 2205   5.285   4.853   2.412
  562WAT     H2 2206   5.424   4.912   2.400
  563WAT      O 2207   5.590   5.141   3.744
  563WAT     H1 2208   5.670   5.173   3.785
  563WAT     H2 2209   5.538   5.105   3.816
  564WAT      O 2210   6.000   5.140   2.007
  564WAT     H1 2211   6.080   5.169   1.962
  564WAT     H2 2212   5.948   5.097   1.940
  565WAT      O 2213   6.473   4.752   3.739
  565WAT     H1 2214   6.413   4.754   3.665
  565WAT     H2 2215   6.443   4.679   3.792
  566WAT      O 2216   5.362   4.390   3.638
  566WAT     H1 2217   5.412   4.332   3.696
  566WAT     H2 2218   5.288   4.418   3.692
  567WAT      O 2219   6.052   4.662   1.994
  567WAT     H1 2220   6.042   4.600   2.066
  567WAT     H2 2221   6.035   4.609   1.915
  568WAT      O 2222   6.067   4.530   3.592
  568WAT     H1 2223   5.991   4.587   3.583
  568WAT     H2 2224   6.085   4.501   3.502
  569WAT      O 2225   6.376   4.568   2.054
  569WAT     H1 2226   6.321   4.613   2.119
  569WAT     H2 2227   6.438   4.517   2.107
  570WAT      O 2228   5.565   4.204   3.728
  570WAT     H1 2229   5.569   4.174   3.819
  570WAT     H2 2230   5.650   4.244   3.712
  571WAT      O 2231   5.943   4.464   2.244
  571WAT     H1 2232   5.985   4.447   2.328
  571WAT     H2 2233   5.955   4.383   2.194
  572WAT      O 2234   5.759   4.062   3.525
  572WAT     H1 2235   5.706   4.013   3.462
  572WAT     H2 2236   5.826   4.105   3.471
  573WAT      O 2237   6.194   4.366   1.969
  573WAT     H1 2238   6.246   4.295   1.932
  573WAT     H2 2239   6.259   4.430   1.999
  574WAT      O 2240   5.808   3.758   3.533
  574WAT     H1 2241   5.798   3.697   3.460
  574WAT     H2 2242   5.750   3.831   3.510
  575WAT      O 2243   6.084   3.614   3.236
  575WAT     H1 2244   6.040   3.616   3.151
  575WAT     H2 2245   6.021   3.574   3.296
  576WAT      O 2246   6.125   4.504   3.298
  576WAT     H1 2247   6.167   4.588   3.281
  576WAT     H2 2248   6.033   4.517   3.275
  577WAT      O 2249   6.359   4.277   3.436
  577WAT     H1 2250   6.371   4.217   3.510
  577WAT     H2 2251   6.445   4.281   3.394
  578WAT      O 2252   5.832   4.071   1.938
  578WAT     H1 2253   5.812   3.985   1.975
  578WAT     H2 2254   5.815   4.063   1.845
  579WAT      O 2255   5.910   5.134   3.410
  579WAT     H1 2256   5.856   5.207   3.378
  579WAT     H2 2257   5.935   5.087   3.331
  580WAT      O 2258   6.035   3.931   3.562
  580WAT     H1 2259   6.094   3.900   3.631
  580WAT     H2 2260   5.954   3.884   3.578
  581WAT      O 2261   6.517   3.893   3.585
  581WAT     H1 2262   6.448   3.827   3.579
  581WAT     H2 2263   6.589   3.848   3.630
  582WAT      O 2264   6.580   3.552   2.191
  582WAT     H1 2265   6.608   3.468   2.227
  582WAT     H2 2266   6.503   3.576   2.243
  583WAT      O 2267   5.712   3.781   1.937
  583WAT     H1 2268   5.742   3.782   1.846
  583WAT     H2 2269   5.786   3.746   1.987
  584WAT      O 2270   6.196   5.258   3.435
  584WAT     H1 2271   6.188   5.348   3.466
  584WAT     H2 2272   6.105   5.226   3.433
  585WAT      O 2273   6.034   3.676   2.036
  585WAT     H1 2274   5.999   3.608   1.978
  585WAT     H2 2275   6.054   3.629   2.117
  586WAT      O 2276   6.251   5.174   2.198
  586WAT     H1 2277   6.340   5.208   2.200
  586WAT     H2 2278   6.254   5.102   2.135
  587WAT      O 2279   5.615   4.712   2.021
  587WAT     H1 2280   5.658   4.766   2.086
  587WAT     H2 2281   5.663   4.629   2.022
  588WAT      O 2282   5.336   4.991   2.766
  588WAT     H1 2283   5.369   4.904   2.743
  588WAT     H2 2284   5.379   5.011   2.849
  589WAT      O 2285   5.796   4.824   2.532
  589WAT     H1 2286   5.766   4.811   2.622
  589WAT     H2 2287   5.785   4.738   2.491
  590WAT      O 2288   5.385   5.077   3.040
  590WAT     H1 2289   5.341   5.095   3.123
  590WAT     H2 2290   5.442   5.153   3.025
  591WAT      O 2291   5.368   4.328   2.675
  591WAT     H1 2292   5.303   4.302   2.611
  591WAT     H2 2293   5.452   4.318   2.631
  592WAT      O 2294   5.472   4.367   3.130
  592WAT     H1 2295   5.509   4.358   3.217
  592WAT     H2 2296   5.415   4.291   3.120
  593WAT      O 2297   5.427   4.058   3.520
  593WAT     H1 2298   5.338   4.055   3.554
  593WAT     H2 2299   5.481   4.078   3.597
  594WAT      O 2300   5.289   4.049   2.270
  594WAT     H1 2301   5.199   4.076   2.252
  594WAT     H2 2302   5.338   4.077   2.192
  595WAT      O 2303   5.544   3.955   2.061
  595WAT     H1 2304   5.615   3.913   2.012
  595WAT     H2 2305   5.472   3.962   1.998
  596WAT      O 2306   5.509   3.561   1.965
  596WAT     H1 2307   5.581   3.615   1.997
  596WAT     H2 2308   5.536   3.533   1.877
  597WAT      O 2309   5.477   3.486   2.955
  597WAT     H1 2310   5.542   3.431   2.911
  597WAT     H2 2311   5.519   3.511   3.037
  598WAT      O 2312   5.453   3.501   3.229
  598WAT     H1 2313   5.418   3.547   3.306
  598WAT     H2 2314   5.420   3.412   3.237
  599WAT      O 2315   5.613   4.818   3.646
  599WAT     H1 2316   5.609   4.781   3.734
  599WAT     H2 2317   5.627   4.912   3.660
  600WAT      O 2318   5.983   4.974   3.206
  600WAT     H1 2319   5.959   5.001   3.117
  600WAT     H2 2320   6.077   4.991   3.211
  601WAT      O 2321   6.204   3.620   3.581
  601WAT     H1 2322   6.198   3.679   3.656
  601WAT     H2 2323   6.298   3.609   3.567
  602WAT      O 2324   6.468   3.586   3.545
  602WAT     H1 2325   6.529   3.618   3.479
  602WAT     H2 2326   6.522   3.537   3.607
  603WAT      O 2327   5.520   3.454   3.557
  603WAT     H1 2328   5.575   3.436   3.480
  603WAT     H2 2329   5.527   3.375   3.610
  604WAT      O 2330   5.597   5.113   3.358
  604WAT     H1 2331   5.538   5.100   3.432
  604WAT     H2 2332   5.597   5.029   3.311
  605WAT      O 2333   6.542   3.442   3.178
  605WAT     H1 2334   6.454   3.476   3.158
  605WAT     H2 2335   6.531   3.395   3.261
  606WAT      O 2336   5.560   4.850   3.253
  606WAT     H1 2337   5.488   4.788   3.246
  606WAT     H2 2338   5.566   4.889   3.166
  607WAT      O 2339   5.921   5.071   2.931
  607WAT     H1 2340   5.972   5.010   2.879
  607WAT     H2 2341   5.986   5.121   2.980
  608WAT      O 2342   6.195   5.160   3.014
  608WAT     H1 2343   6.224   5.135   2.926
  608WAT     H2 2344   6.246   5.105   3.073
  609WAT      O 2345   6.317   3.534   3.072
  609WAT     H1 2346   6.238   3.581   3.100
  609WAT     H2 2347   6.287   3.444   3.061
  610WAT      O 2348   5.389   5.181   2.574
  610WAT     H1 2349   5.372   5.118   2.644
  610WAT     H2 2350   5.302   5.202   2.539
  611WAT      O 2351   5.451   3.564   2.324
  611WAT     H1 2352   5.527   3.576   2.267
  611WAT     H2 2353   5.405   3.648   2.319
  612WAT      O 2354   6.105   3.776   2.623
  612WAT     H1 2355   6.024   3.738   2.589
  612WAT     H2 2356   6.156   3.700   2.653
  613WAT      O 2357   6.555   3.442   2.747
  613WAT     H1 2358   6.616   3.499   2.794
  613WAT     H2 2359   6.481   3.499   2.725
  614WAT      O 2360   5.549   5.051   2.318
  614WAT     H1 2361   5.497   5.089   2.248
  614WAT     H2 2362   5.542   5.113   2.390
  615WAT      O 2363   5.688   3.617   2.178
  615WAT     H1 2364   5.741   3.538   2.165
  615WAT     H2 2365   5.752   3.685   2.201
  616WAT      O 2366   5.908   3.591   2.484
  616WAT     H1 2367   5.845   3.521   2.500
  616WAT     H2 2368   5.854   3.667   2.462
  617WAT      O 2369   6.202   5.252   3.751
  617WAT     H1 2370   6.294   5.229   3.755
  617WAT     H2 2371   6.200   5.335   3.703
  618WAT      O 2372   5.920   3.519   3.727
  618WAT     H1 2373   5.892   3.569   3.651
  618WAT     H2 2374   5.958   3.439   3.690
  619WAT      O 2375   5.809   5.245   2.206
  619WAT     H1 2376   5.882   5.217   2.151
  619WAT     H2 2377   5.835   5.222   2.295
  620WAT      O 2378   5.725   4.857   2.206
  620WAT     H1 2379   5.662   4.904   2.261
  620WAT     H2 2380   5.737   4.773   2.250
  621WAT      O 2381   6.471   4.262   0.821
  621WAT     H1 2382   6.463   4.171   0.794
  621WAT     H2 2383   6.430   4.312   0.751
  622WAT      O 2384   6.284   4.440   1.009
  622WAT     H1 2385   6.207   4.392   1.038
  622WAT     H2 2386   6.349   4.372   0.992
  623WAT      O 2387   5.686   4.471   1.097
  623WAT     H1 2388   5.603   4.446   1.137
  623WAT     H2 2389   5.747   4.478   1.171
  624WAT      O 2390   5.684   4.875   1.117
  624WAT     H1 2391   5.714   4.785   1.099
  624WAT     H2 2392   5.758   4.930   1.094
  625WAT      O 2393   5.527   3.967   0.475
  625WAT     H1 2394   5.438   4.001   0.465
  625WAT     H2 2395   5.555   3.947   0.386
  626WAT      O 2396   5.323   4.227   1.064
  626WAT     H1 2397   5.380   4.150   1.064
  626WAT     H2 2398   5.323   4.257   0.973
  627WAT      O 2399   6.309   5.109   0.849
  627WAT     H1 2400   6.247   5.155   0.792
  627WAT     H2 2401   6.394   5.125   0.809
  628WAT      O 2402   6.228   4.707   1.010
  628WAT     H1 2403   6.221   4.613   0.994
  628WAT     H2 2404   6.304   4.717   1.067
  629WAT      O 2405   5.447   3.768   1.243
  629WAT     H1 2406   5.429   3.678   1.271
  629WAT     H2 2407   5.407   3.823   1.310
  630WAT      O 2408   6.331   3.988   1.033
  630WAT     H1 2409   6.369   3.901   1.021
  630WAT     H2 2410   6.321   4.022   0.944
  631WAT      O 2411   5.744   3.825   0.579
  631WAT     H1 2412   5.755   3.915   0.610
  631WAT     H2 2413   5.653   3.821   0.550
  632WAT      O 2414   5.509   4.018   1.103
  632WAT     H1 2415   5.577   4.044   1.165
  632WAT     H2 2416   5.478   3.934   1.137
  633WAT      O 2417   5.928   4.122   1.012
  633WAT     H1 2418   5.979   4.172   1.076
  633WAT     H2 2419   5.981   4.045   0.995
  634WAT      O 2420   5.757   3.586   1.439
  634WAT     H1 2421   5.757   3.638   1.358
  634WAT     H2 2422   5.674   3.539   1.436
  635WAT      O 2423   6.395   4.597   0.589
  635WAT     H1 2424   6.334   4.644   0.532
  635WAT     H2 2425   6.447   4.667   0.630
  636WAT      O 2426   5.882   4.550   1.256
  636WAT     H1 2427   5.848   4.613   1.321
  636WAT     H2 2428   5.899   4.603   1.179
  637WAT      O 2429   5.725   3.757   1.239
  637WAT     H1 2430   5.759   3.842   1.210
  637WAT     H2 2431   5.631   3.772   1.251
  638WAT      O 2432   5.803   4.747   1.438
  638WAT     H1 2433   5.865   4.815   1.410
  638WAT     H2 2434   5.717   4.788   1.429
  639WAT      O 2435   5.332   4.666   0.326
  639WAT     H1 2436   5.295   4.715   0.253
  639WAT     H2 2437   5.358   4.733   0.389
  640WAT      O 2438   6.093   3.506   0.872
  640WAT     H1 2439   6.124   3.451   0.800
  640WAT     H2 2440   6.000   3.520   0.854
  641WAT      O 2441   6.332   4.313   0.546
  641WAT     H1 2442   6.239   4.306   0.568
  641WAT     H2 2443   6.347   4.407   0.534
  642WAT      O 2444   6.331   3.940   0.245
  642WAT     H1 2445   6.237   3.956   0.254
  642WAT     H2 2446   6.362   4.012   0.191
  643WAT      O 2447   5.893   4.365   0.824
  643WAT     H1 2448   5.852   4.294   0.774
  643WAT     H2 2449   5.901   4.331   0.913
  644WAT      O 2450   5.939   4.734   1.040
  644WAT     H1 2451   5.910   4.673   0.972
  644WAT     H2 2452   6.034   4.738   1.029
  645WAT      O 2453   5.764   4.043   1.202
  645WAT     H1 2454   5.819   4.054   1.124
  645WAT     H2 2455   5.815   4.080   1.273
  646WAT      O 2456   5.849   4.708   1.705
  646WAT     H1 2457   5.759   4.730   1.730
  646WAT     H2 2458   5.851   4.720   1.610
  647WAT      O 2459   6.553   4.393   0.297
  647WAT     H1 2460   6.597   4.309   0.282
  647WAT     H2 2461   6.624   4.456   0.305
  648WAT      O 2462   5.731   4.395   1.563
  648WAT     H1 2463   5.717   4.482   1.600
  648WAT     H2 2464   5.643   4.361   1.548
  649WAT      O 2465   6.364   4.887   0.693
  649WAT     H1 2466   6.407   4.961   0.652
  649WAT     H2 2467   6.357   4.911   0.786
  650WAT      O 2468   5.911   4.989   1.784
  650WAT     H1 2469   5.908   5.030   1.697
  650WAT     H2 2470   5.895   4.896   1.767
  651WAT      O 2471   5.563   4.255   0.574
  651WAT     H1 2472   5.551   4.327   0.513
  651WAT     H2 2473   5.532   4.178   0.526
  652WAT      O 2474   5.326   4.572   1.154
  652WAT     H1 2475   5.334   4.585   1.060
  652WAT     H2 2476   5.388   4.501   1.174
  653WAT      O 2477   5.451   4.742   0.796
  653WAT     H1 2478   5.410   4.756   0.710
  653WAT     H2 2479   5.540   4.714   0.775
  654WAT      O 2480   6.433   5.157   1.486
  654WAT     H1 2481   6.484   5.148   1.566
  654WAT     H2 2482   6.348   5.191   1.515
  655WAT      O 2483   5.878   5.163   0.607
  655WAT     H1 2484   5.861   5.072   0.585
  655WAT     H2 2485   5.793   5.199   0.631
  656WAT      O 2486   6.557   5.099   0.692
  656WAT     H1 2487   6.603   5.021   0.724
  656WAT     H2 2488   6.591   5.170   0.747
  657WAT      O 2489   5.332   4.676   1.408
  657WAT     H1 2490   5.348   4.629   1.327
  657WAT     H2 2491   5.379   4.625   1.475
  658WAT      O 2492   5.809   3.589   0.912
  658WAT     H1 2493   5.765   3.667   0.879
  658WAT     H2 2494   5.865   3.621   0.983
  659WAT      O 2495   6.238   3.876   1.472
  659WAT     H1 2496   6.192   3.897   1.554
  659WAT     H2 2497   6.198   3.794   1.442
  660WAT      O 2498   6.447   4.148   1.795
  660WAT     H1 2499   6.480   4.065   1.761
  660WAT     H2 2500   6.526   4.200   1.810
  661WAT      O 2501   6.121   3.551   0.400
  661WAT     H1 2502   6.058   3.551   0.473
  661WAT     H2 2503   6.112   3.465   0.360
  662WAT      O 2504   6.013   3.644   1.098
  662WAT     H1 2505   6.043   3.734   1.090
  662WAT     H2 2506   6.068   3.595   1.037
  663WAT      O 2507   5.788   4.101   0.685
  663WAT     H1 2508   5.766   4.080   0.775
  663WAT     H2 2509   5.710   4.145   0.650
  664WAT      O 2510   6.511   4.102   0.545
  664WAT     H1 2511   6.451   4.174   0.526
  664WAT     H2 2512   6.566   4.096   0.466
  665WAT      O 2513   6.032   4.191   1.751
  665WAT     H1 2514   6.023   4.097   1.736
  665WAT     H2 2515   6.117   4.213   1.712
  666WAT      O 2516   6.372   3.966   0.748
  666WAT     H1 2517   6.411   3.997   0.666
  666WAT     H2 2518   6.408   3.878   0.759
  667WAT      O 2519   5.545   3.832   1.567
  667WAT     H1 2520   5.506   3.917   1.587
  667WAT     H2 2521   5.477   3.769   1.586
  668WAT      O 2522   6.203   3.841   1.874
  668WAT     H1 2523   6.134   3.822   1.937
  668WAT     H2 2524   6.277   3.869   1.927
  669WAT      O 2525   5.276   3.625   0.970
  669WAT     H1 2526   5.247   3.682   1.041
  669WAT     H2 2527   5.350   3.577   1.006
  670WAT      O 2528   6.431   4.225   1.157
  670WAT     H1 2529   6.357   4.276   1.192
  670WAT     H2 2530   6.391   4.143   1.127
  671WAT      O 2531   6.074   3.892   0.998
  671WAT     H1 2532   6.075   3.848   0.913
  671WAT     H2 2533   6.164   3.925   1.009
  672WAT      O 2534   5.659   3.881   0.894
  672WAT     H1 2535   5.625   3.928   0.969
  672WAT     H2 2536   5.583   3.835   0.858
  673WAT      O 2537   6.080   3.992   0.297
  673WAT     H1 2538   6.093   3.988   0.392
  673WAT     H2 2539   6.042   4.079   0.281
  674WAT      O 2540   6.477   3.770   1.098
  674WAT     H1 2541   6.479   3.815   1.183
  674WAT     H2 2542   6.452   3.680   1.120
  675WAT      O 2543   5.982   4.223   0.237
  675WAT     H1 2544   5.925   4.179   0.174
  675WAT     H2 2545   6.053   4.259   0.183
  676WAT      O 2546   5.489   4.614   1.624
  676WAT     H1 2547   5.451   4.550   1.684
  676WAT     H2 2548   5.521   4.684   1.681
  677WAT      O 2549   6.104   4.298   1.172
  677WAT     H1 2550   6.141   4.251   1.247
  677WAT     H2 2551   6.085   4.386   1.207
  678WAT      O 2552   5.391   3.773   0.785
  678WAT     H1 2553   5.362   3.736   0.869
  678WAT     H2 2554   5.385   3.700   0.724
  679WAT      O 2555   5.883   4.202   1.404
  679WAT     H1 2556   5.853   4.290   1.427
  679WAT     H2 2557   5.979   4.208   1.408
  680WAT      O 2558   5.736   4.623   0.464
  680WAT     H1 2559   5.659   4.569   0.448
  680WAT     H2 2560   5.809   4.571   0.430
  681WAT      O 2561   6.358   3.662   0.458
  681WAT     H1 2562   6.277   3.612   0.450
  681WAT     H2 2563   6.339   3.746   0.416
  682WAT      O 2564   6.350   4.530   1.632
  682WAT     H1 2565   6.344   4.438   1.606
  682WAT     H2 2566   6.287   4.540   1.703
  683WAT      O 2567   5.741   4.590   0.828
  683WAT     H1 2568   5.792   4.510   0.822
  683WAT     H2 2569   5.695   4.584   0.912
  684WAT      O 2570   6.229   4.717   0.355
  684WAT     H1 2571   6.263   4.791   0.305
  684WAT     H2 2572   6.146   4.748   0.391
  685WAT      O 2573   5.489   4.286   1.519
  685WAT     H1 2574   5.453   4.353   1.578
  685WAT     H2 2575   5.460   4.203   1.556
  686WAT      O 2576   5.809   4.332   1.807
  686WAT     H1 2577   5.779   4.347   1.718
  686WAT     H2 2578   5.886   4.276   1.798
  687WAT      O 2579   6.343   4.812   1.607
  687WAT     H1 2580   6.345   4.719   1.585
  687WAT     H2 2581   6.273   4.821   1.671
  688WAT      O 2582   6.518   4.649   0.891
  688WAT     H1 2583   6.553   4.589   0.825
  688WAT     H2 2584   6.429   4.616   0.909
  689WAT      O 2585   6.126   4.725   0.632
  689WAT     H1 2586   6.195   4.779   0.670
  689WAT     H2 2587   6.047   4.779   0.636
  690WAT      O 2588   5.340   4.286   0.181
  690WAT     H1 2589   5.427   4.315   0.210
  690WAT     H2 2590   5.291   4.368   0.170
  691WAT      O 2591   6.056   4.425   0.593
  691WAT     H1 2592   6.102   4.506   0.616
  691WAT     H2 2593   6.021   4.393   0.677
  692WAT      O 2594   6.287   4.976   1.316
  692WAT     H1 2595   6.351   4.997   1.384
  692WAT     H2 2596   6.323   4.900   1.271
  693WAT      O 2597   5.647   3.460   0.641
  693WAT     H1 2598   5.634   3.459   0.736
  693WAT     H2 2599   5.564   3.493   0.606
  694WAT      O 2600   6.414   4.777   1.188
  694WAT     H1 2601   6.478   4.706   1.199
  694WAT     H2 2602   6.467   4.855   1.170
  695WAT      O 2603   6.591   4.856   1.508
  695WAT     H1 2604   6.625   4.915   1.576
  695WAT     H2 2605   6.499   4.843   1.531
  696WAT      O 2606   5.377   5.208   0.238
  696WAT     H1 2607   5.413   5.268   0.173
  696WAT     H2 2608   5.363   5.262   0.315
  697WAT      O 2609   5.346   3.635   1.587
  697WAT     H1 2610   5.275   3.655   1.647
  697WAT     H2 2611   5.388   3.558   1.624
  698WAT      O 2612   5.375   5.034   1.685
  698WAT     H1 2613   5.386   4.940   1.671
  698WAT     H2 2614   5.310   5.061   1.621
  699WAT      O 2615   6.174   4.861   1.825
  699WAT     H1 2616   6.142   4.789   1.880
  699WAT     H2 2617   6.107   4.929   1.833
  700WAT      O 2618   5.978   4.946   0.320
  700WAT     H1 2619   5.978   5.019   0.258
  700WAT     H2 2620   5.886   4.921   0.329
  701WAT      O 2621   5.539   4.468   0.394
  701WAT     H1 2622   5.478   4.542   0.395
  701WAT     H2 2623   5.586   4.477   0.312
  702WAT      O 2624   6.496   3.885   1.362
  702WAT     H1 2625   6.533   3.803   1.395
  702WAT     H2 2626   6.410   3.891   1.403
  703WAT      O 2627   6.029   4.008   0.584
  703WAT     H1 2628   5.958   4.055   0.628
  703WAT     H2 2629   6.058   3.942   0.648
  704WAT      O 2630   6.192   4.150   1.384
  704WAT     H1 2631   6.242   4.198   1.451
  704WAT     H2 2632   6.206   4.058   1.405
  705WAT      O 2633   6.432   3.681   0.728
  705WAT     H1 2634   6.420   3.682   0.633
  705WAT     H2 2635   6.527   3.685   0.740
  706WAT      O 2636   6.141   5.204   0.655
  706WAT     H1 2637   6.167   5.200   0.563
  706WAT     H2 2638   6.046   5.191   0.655
  707WAT      O 2639   5.850   3.839   0.322
  707WAT     H1 2640   5.935   3.883   0.315
  707WAT     H2 2641   5.813   3.870   0.404
  708WAT      O 2642   5.609   4.208   0.237
  708WAT     H1 2643   5.617   4.113   0.249
  708WAT     H2 2644   5.698   4.241   0.248
  709WAT      O 2645   5.689   5.222   0.948
  709WAT     H1 2646   5.763   5.168   0.975
  709WAT     H2 2647   5.728   5.309   0.934
  710WAT      O 2648   5.378   4.829   0.535
  710WAT     H1 2649   5.285   4.853   0.534
  710WAT     H2 2650   5.424   4.912   0.523
  711WAT      O 2651   5.590   5.141   1.867
  711WAT     H1 2652   5.670   5.173   1.908
  711WAT     H2 2653   5.538   5.105   1.939
  712WAT      O 2654   6.473   4.752   1.861
  712WAT     H1 2655   6.413   4.754   1.787
  712WAT     H2 2656   6.443   4.679   1.915
  713WAT      O 2657   5.362   4.390   1.761
  713WAT     H1 2658   5.412   4.332   1.818
  713WAT     H2 2659   5.288   4.418   1.815
  714WAT      O 2660   6.067   4.530   1.714
  714WAT     H1 2661   5.991   4.587   1.706
  714WAT     H2 2662   6.085   4.501   1.625
  715WAT      O 2663   6.376   4.568   0.177
  715WAT     H1 2664   6.321   4.613   0.241
  715WAT     H2 2665   6.438   4.517   0.229
  716WAT      O 2666   5.565   4.204   1.850
  716WAT     H1 2667   5.569   4.174   1.941
  716WAT     H2 2668   5.650   4.244   1.835
  717WAT      O 2669   5.943   4.464   0.366
  717WAT     H1 2670   5.985   4.447   0.451
  717WAT     H2 2671   5.955   4.383   0.317
  718WAT      O 2672   5.759   4.062   1.647
  718WAT     H1 2673   5.706   4.013   1.584
  718WAT     H2 2674   5.826   4.105   1.594
  719WAT      O 2675   5.808   3.758   1.655
  719WAT     H1 2676   5.798   3.697   1.583
  719WAT     H2 2677   5.750   3.831   1.632
  720WAT      O 2678   6.084   3.614   1.358
  720WAT     H1 2679   6.040   3.616   1.274
  720WAT     H2 2680   6.021   3.574   1.418
  721WAT      O 2681   6.125   4.504   1.421
  721WAT     H1 2682   6.167   4.588   1.403
  721WAT     H2 2683   6.033   4.517   1.398
  722WAT      O 2684   6.359   4.277   1.559
  722WAT     H1 2685   6.371   4.217   1.633
  722WAT     H2 2686   6.445   4.281   1.517
  723WAT      O 2687   5.910   5.134   1.532
  723WAT     H1 2688   5.856   5.207   1.500
  723WAT     H2 2689   5.935   5.087   1.453
  724WAT      O 2690   6.035   3.931   1.685
  724WAT     H1 2691   6.094   3.900   1.753
  724WAT     H2 2692   5.954   3.884   1.700
  725WAT      O 2693   6.517   3.893   1.708
  725WAT     H1 2694   6.448   3.827   1.702
  725WAT     H2 2695   6.589   3.848   1.753
  726WAT      O 2696   6.580   3.552   0.314
  726WAT     H1 2697   6.608   3.468   0.350
  726WAT     H2 2698   6.503   3.576   0.365
  727WAT      O 2699   6.196   5.258   1.558
  727WAT     H1 2700   6.188   5.348   1.589
  727WAT     H2 2701   6.105   5.226   1.555
  728WAT      O 2702   6.251   5.174   0.320
  728WAT     H1 2703   6.340   5.208   0.322
  728WAT     H2 2704   6.254   5.102   0.258
  729WAT      O 2705   5.336   4.991   0.888
  729WAT     H1 2706   5.369   4.904   0.865
  729WAT     H2 2707   5.379   5.011   0.971
  730WAT      O 2708   5.796   4.824   0.654
  730WAT     H1 2709   5.766   4.811   0.744
  730WAT     H2 2710   5.785   4.738   0.614
  731WAT      O 2711   5.385   5.077   1.162
  731WAT     H1 2712   5.341   5.095   1.245
  731WAT     H2 2713   5.442   5.153   1.148
  732WAT      O 2714   5.368   4.328   0.798
  732WAT     H1 2715   5.303   4.302   0.734
  732WAT     H2 2716   5.452   4.318   0.753
  733WAT      O 2717   5.472   4.367   1.252
  733WAT     H1 2718   5.509   4.358   1.340
  733WAT     H2 2719   5.415   4.291   1.242
  734WAT      O 2720   5.427   4.058   1.643
  734WAT     H1 2721   5.338   4.055   1.677
  734WAT     H2 2722   5.481   4.078   1.719
  735WAT      O 2723   5.289   4.049   0.392
  735WAT     H1 2724   5.199   4.076   0.375
  735WAT     H2 2725   5.338   4.077   0.314
  736WAT      O 2726   5.477   3.486   1.077
  736WAT     H1 2727   5.542   3.431   1.033
  736WAT     H2 2728   5.519   3.511   1.160
  737WAT      O 2729   5.453   3.501   1.352
  737WAT     H1 2730   5.418   3.547   1.428
  737WAT     H2 2731   5.420   3.412   1.360
  738WAT      O 2732   5.613   4.818   1.768
  738WAT     H1 2733   5.609   4.781   1.856
  738WAT     H2 2734   5.627   4.912   1.782
  739WAT      O 2735   5.983   4.974   1.328
  739WAT     H1 2736   5.959   5.001   1.240
  739WAT     H2 2737   6.077   4.991   1.334
  740WAT      O 2738   6.204   3.620   1.704
  740WAT     H1 2739   6.198   3.679   1.779
  740WAT     H2 2740   6.298   3.609   1.689
  741WAT      O 2741   6.468   3.586   1.668
  741WAT     H1 2742   6.529   3.618   1.602
  741WAT     H2 2743   6.522   3.537   1.730
  742WAT      O 2744   5.520   3.454   1.679
  742WAT     H1 2745   5.575   3.436   1.603
  742WAT     H2 2746   5.527   3.375   1.733
  743WAT      O 2747   5.597   5.113   1.480
  743WAT     H1 2748   5.538   5.100   1.554
  743WAT     H2 2749   5.597   5.029   1.434
  744WAT      O 2750   6.542   3.442   1.301
  744WAT     H1 2751   6.454   3.476   1.280
  744WAT     H2 2752   6.531   3.395   1.383
  745WAT      O 2753   5.560   4.850   1.375
  745WAT     H1 2754   5.488   4.788   1.369
  745WAT     H2 2755   5.566   4.889   1.288
  746WAT      O 2756   5.921   5.071   1.054
  746WAT     H1 2757   5.972   5.010   1.001
  746WAT     H2 2758   5.986   5.121   1.103
  747WAT      O 2759   6.195   5.160   1.137
  747WAT     H1 2760   6.224   5.135   1.049
  747WAT     H2 2761   6.246   5.105   1.196
  748WAT      O 2762   6.317   3.534   1.194
  748WAT     H1 2763   6.238   3.581   1.222
  748WAT     H2 2764   6.287   3.444   1.184
  749WAT      O 2765   5.389   5.181   0.696
  749WAT     H1 2766   5.372   5.118   0.766
  749WAT     H2 2767   5.302   5.202   0.661
  750WAT      O 2768   5.451   3.564   0.447
  750WAT     H1 2769   5.527   3.576   0.389
  750WAT     H2 2770   5.405   3.648   0.442
  751WAT      O 2771   6.105   3.776   0.746
  751WAT     H1 2772   6.024   3.738   0.712
  751WAT     H2 2773   6.156   3.700   0.776
  752WAT      O 2774   6.555   3.442   0.869
  752WAT     H1 2775   6.616   3.499   0.917
  752WAT     H2 2776   6.481   3.499   0.847
  753WAT      O 2777   5.549   5.051   0.441
  753WAT     H1 2778   5.497   5.089   0.370
  753WAT     H2 2779   5.542   5.113   0.513
  754WAT      O 2780   5.688   3.617   0.301
  754WAT     H1 2781   5.741   3.538   0.288
  754WAT     H2 2782   5.752   3.685   0.324
  755WAT      O 2783   5.908   3.591   0.606
  755WAT     H1 2784   5.845   3.521   0.623
  755WAT     H2 2785   5.854   3.667   0.584
  756WAT      O 2786   6.202   5.252   1.873
  756WAT     H1 2787   6.294   5.229   1.878
  756WAT     H2 2788   6.200   5.335   1.825
  757WAT      O 2789   5.920   3.519   1.850
  757WAT     H1 2790   5.892   3.569   1.773
  757WAT     H2 2791   5.958   3.439   1.813
  758WAT      O 2792   5.809   5.245   0.328
  758WAT     H1 2793   5.882   5.217   0.274
  758WAT     H2 2794   5.835   5.222   0.417
  759WAT      O 2795   5.725   4.857   0.329
  759WAT     H1 2796   5.662   4.904   0.384
  759WAT     H2 2797   5.737   4.773   0.372
  760WAT      O 2798   6.471   2.385   4.576
  760WAT     H1 2799   6.463   2.293   4.549
  760WAT     H2 2800   6.430   2.434   4.505
  761WAT      O 2801   6.284   2.562   4.764
  761WAT     H1 2802   6.207   2.514   4.793
  761WAT     H2 2803   6.349   2.495   4.747
  762WAT      O 2804   5.686   2.594   4.852
  762WAT     H1 2805   5.603   2.568   4.892
  762WAT     H2 2806   5.747   2.601   4.926
  763WAT      O 2807   5.684   2.997   4.872
  763WAT     H1 2808   5.714   2.908   4.854
  763WAT     H2 2809   5.758   3.053   4.849
  764WAT      O 2810   5.527   2.090   4.230
  764WAT     H1 2811   5.438   2.124   4.220
  764WAT     H2 2812   5.555   2.070   4.141
  765WAT      O 2813   5.323   2.350   4.819
  765WAT     H1 2814   5.380   2.273   4.819
  765WAT     H2 2815   5.323   2.380   4.728
  766WAT      O 2816   6.309   3.232   4.604
  766WAT     H1 2817   6.247   3.277   4.547
  766WAT     H2 2818   6.394   3.247   4.564
  767WAT      O 2819   6.228   2.830   4.765
  767WAT     H1 2820   6.221   2.736   4.749
  767WAT     H2 2821   6.304   2.839   4.822
  768WAT      O 2822   5.447   1.891   4.997
  768WAT     H1 2823   5.429   1.801   5.025
  768WAT     H2 2824   5.407   1.945   5.065
  769WAT      O 2825   6.331   2.111   4.788
  769WAT     H1 2826   6.369   2.023   4.776
  769WAT     H2 2827   6.321   2.144   4.698
  770WAT      O 2828   5.744   1.948   4.334
  770WAT     H1 2829   5.755   2.038   4.364
  770WAT     H2 2830   5.653   1.943   4.305
  771WAT      O 2831   5.509   2.140   4.858
  771WAT     H1 2832   5.577   2.167   4.920
  771WAT     H2 2833   5.478   2.056   4.892
  772WAT      O 2834   5.928   2.245   4.767
  772WAT     H1 2835   5.979   2.295   4.831
  772WAT     H2 2836   5.981   2.167   4.749
  773WAT      O 2837   5.757   1.709   5.194
  773WAT     H1 2838   5.757   1.761   5.113
  773WAT     H2 2839   5.674   1.661   5.191
  774WAT      O 2840   6.395   2.720   4.344
  774WAT     H1 2841   6.334   2.767   4.287
  774WAT     H2 2842   6.447   2.789   4.385
  775WAT      O 2843   5.882   2.673   5.011
  775WAT     H1 2844   5.848   2.736   5.076
  775WAT     H2 2845   5.899   2.725   4.933
  776WAT      O 2846   5.725   1.880   4.994
  776WAT     H1 2847   5.759   1.964   4.965
  776WAT     H2 2848   5.631   1.895   5.006
  777WAT      O 2849   5.803   2.870   5.193
  777WAT     H1 2850   5.865   2.937   5.165
  777WAT     H2 2851   5.717   2.911   5.184
  778WAT      O 2852   5.332   2.789   4.081
  778WAT     H1 2853   5.295   2.837   4.008
  778WAT     H2 2854   5.358   2.856   4.144
  779WAT      O 2855   6.093   1.629   4.627
  779WAT     H1 2856   6.124   1.573   4.555
  779WAT     H2 2857   6.000   1.642   4.609
  780WAT      O 2858   6.332   2.435   4.300
  780WAT     H1 2859   6.239   2.429   4.323
  780WAT     H2 2860   6.347   2.529   4.289
  781WAT      O 2861   6.331   2.062   4.000
  781WAT     H1 2862   6.237   2.079   4.009
  781WAT     H2 2863   6.362   2.134   3.945
  782WAT      O 2864   5.893   2.488   4.579
  782WAT     H1 2865   5.852   2.417   4.529
  782WAT     H2 2866   5.901   2.453   4.667
  783WAT      O 2867   5.939   2.857   4.795
  783WAT     H1 2868   5.910   2.796   4.727
  783WAT     H2 2869   6.034   2.860   4.784
  784WAT      O 2870   5.764   2.165   4.957
  784WAT     H1 2871   5.819   2.176   4.879
  784WAT     H2 2872   5.815   2.203   5.028
  785WAT      O 2873   5.849   2.830   5.460
  785WAT     H1 2874   5.759   2.853   5.485
  785WAT     H2 2875   5.851   2.843   5.365
  786WAT      O 2876   6.553   2.515   4.051
  786WAT     H1 2877   6.597   2.432   4.037
  786WAT     H2 2878   6.624   2.579   4.060
  787WAT      O 2879   5.731   2.518   5.318
  787WAT     H1 2880   5.717   2.605   5.354
  787WAT     H2 2881   5.643   2.483   5.303
  788WAT      O 2882   6.364   3.009   4.448
  788WAT     H1 2883   6.407   3.084   4.407
  788WAT     H2 2884   6.357   3.034   4.541
  789WAT      O 2885   5.911   3.112   5.538
  789WAT     H1 2886   5.908   3.152   5.452
  789WAT     H2 2887   5.895   3.019   5.522
  790WAT      O 2888   5.563   2.377   4.329
  790WAT     H1 2889   5.551   2.450   4.267
  790WAT     H2 2890   5.532   2.300   4.281
  791WAT      O 2891   5.326   2.695   4.909
  791WAT     H1 2892   5.334   2.708   4.815
  791WAT     H2 2893   5.388   2.624   4.929
  792WAT      O 2894   5.451   2.865   4.550
  792WAT     H1 2895   5.410   2.879   4.465
  792WAT     H2 2896   5.540   2.836   4.530
  793WAT      O 2897   6.433   3.279   5.241
  793WAT     H1 2898   6.484   3.271   5.321
  793WAT     H2 2899   6.348   3.314   5.270
  794WAT      O 2900   5.878   3.286   4.362
  794WAT     H1 2901   5.861   3.194   4.340
  794WAT     H2 2902   5.793   3.322   4.386
  795WAT      O 2903   6.557   3.221   4.447
  795WAT     H1 2904   6.603   3.143   4.479
  795WAT     H2 2905   6.591   3.293   4.502
  796WAT      O 2906   5.332   2.799   5.163
  796WAT     H1 2907   5.348   2.752   5.081
  796WAT     H2 2908   5.379   2.748   5.230
  797WAT      O 2909   5.809   1.712   4.667
  797WAT     H1 2910   5.765   1.790   4.634
  797WAT     H2 2911   5.865   1.744   4.738
  798WAT      O 2912   6.238   1.998   5.227
  798WAT     H1 2913   6.192   2.019   5.308
  798WAT     H2 2914   6.198   1.917   5.197
  799WAT      O 2915   6.447   2.271   5.550
  799WAT     H1 2916   6.480   2.187   5.516
  799WAT     H2 2917   6.526   2.323   5.565
  800WAT      O 2918   6.121   1.674   4.155
  800WAT     H1 2919   6.058   1.673   4.227
  800WAT     H2 2920   6.112   1.587   4.115
  801WAT      O 2921   6.013   1.766   4.853
  801WAT     H1 2922   6.043   1.857   4.845
  801WAT     H2 2923   6.068   1.717   4.791
  802WAT      O 2924   5.788   2.224   4.440
  802WAT     H1 2925   5.766   2.202   4.530
  802WAT     H2 2926   5.710   2.267   4.405
  803WAT      O 2927   6.511   2.225   4.300
  803WAT     H1 2928   6.451   2.297   4.281
  803WAT     H2 2929   6.566   2.218   4.221
  804WAT      O 2930   6.032   2.314   5.506
  804WAT     H1 2931   6.023   2.220   5.491
  804WAT     H2 2932   6.117   2.336   5.467
  805WAT      O 2933   6.372   2.088   4.503
  805WAT     H1 2934   6.411   2.120   4.421
  805WAT     H2 2935   6.408   2.000   4.514
  806WAT      O 2936   5.545   1.955   5.322
  806WAT     H1 2937   5.506   2.040   5.342
  806WAT     H2 2938   5.477   1.891   5.341
  807WAT      O 2939   5.276   1.747   4.725
  807WAT     H1 2940   5.247   1.804   4.796
  807WAT     H2 2941   5.350   1.699   4.761
  808WAT      O 2942   5.294   2.142   3.846
  808WAT     H1 2943   5.286   2.236   3.860
  808WAT     H2 2944   5.259   2.127   3.758
  809WAT      O 2945   6.431   2.347   4.912
  809WAT     H1 2946   6.357   2.398   4.947
  809WAT     H2 2947   6.391   2.266   4.882
  810WAT      O 2948   6.074   2.015   4.753
  810WAT     H1 2949   6.075   1.971   4.668
  810WAT     H2 2950   6.164   2.047   4.763
  811WAT      O 2951   5.659   2.003   4.649
  811WAT     H1 2952   5.625   2.051   4.724
  811WAT     H2 2953   5.583   1.958   4.613
  812WAT      O 2954   6.080   2.115   4.052
  812WAT     H1 2955   6.093   2.111   4.147
  812WAT     H2 2956   6.042   2.201   4.036
  813WAT      O 2957   6.477   1.893   4.853
  813WAT     H1 2958   6.479   1.938   4.938
  813WAT     H2 2959   6.452   1.803   4.875
  814WAT      O 2960   5.982   2.346   3.992
  814WAT     H1 2961   5.925   2.301   3.929
  814WAT     H2 2962   6.053   2.382   3.938
  815WAT      O 2963   5.489   2.736   5.379
  815WAT     H1 2964   5.451   2.672   5.439
  815WAT     H2 2965   5.521   2.807   5.436
  816WAT      O 2966   6.104   2.421   4.927
  816WAT     H1 2967   6.141   2.374   5.002
  816WAT     H2 2968   6.085   2.508   4.961
  817WAT      O 2969   5.391   1.895   4.540
  817WAT     H1 2970   5.362   1.859   4.624
  817WAT     H2 2971   5.385   1.822   4.479
  818WAT      O 2972   5.883   2.325   5.159
  818WAT     H1 2973   5.853   2.413   5.182
  818WAT     H2 2974   5.979   2.331   5.163
  819WAT      O 2975   5.736   2.746   4.219
  819WAT     H1 2976   5.659   2.692   4.203
  819WAT     H2 2977   5.809   2.694   4.185
  820WAT      O 2978   6.358   1.785   4.212
  820WAT     H1 2979   6.277   1.735   4.205
  820WAT     H2 2980   6.339   1.869   4.171
  821WAT      O 2981   6.350   2.652   5.387
  821WAT     H1 2982   6.344   2.560   5.361
  821WAT     H2 2983   6.287   2.662   5.458
  822WAT      O 2984   5.741   2.712   4.583
  822WAT     H1 2985   5.792   2.632   4.577
  822WAT     H2 2986   5.695   2.706   4.667
  823WAT      O 2987   6.229   2.839   4.110
  823WAT     H1 2988   6.263   2.914   4.060
  823WAT     H2 2989   6.146   2.870   4.146
  824WAT      O 2990   5.489   2.409   5.274
  824WAT     H1 2991   5.453   2.476   5.333
  824WAT     H2 2992   5.460   2.326   5.311
  825WAT      O 2993   5.809   2.455   5.562
  825WAT     H1 2994   5.779   2.469   5.473
  825WAT     H2 2995   5.886   2.399   5.553
  826WAT      O 2996   6.343   2.935   5.362
  826WAT     H1 2997   6.345   2.841   5.340
  826WAT     H2 2998   6.273   2.943   5.426
  827WAT      O 2999   6.518   2.771   4.646
  827WAT     H1 3000   6.553   2.712   4.580
  827WAT     H2 3001   6.429   2.739   4.663
  828WAT      O 3002   6.126   2.847   4.387
  828WAT     H1 3003   6.195   2.902   4.425
  828WAT     H2 3004   6.047   2.902   4.391
  829WAT      O 3005   5.340   2.409   3.936
  829WAT     H1 3006   5.427   2.437   3.965
  829WAT     H2 3007   5.291   2.490   3.925
  830WAT      O 3008   6.056   2.548   4.348
  830WAT     H1 3009   6.102   2.629   4.371
  830WAT     H2 3010   6.021   2.516   4.431
  831WAT      O 3011   6.287   3.099   5.071
  831WAT     H1 3012   6.351   3.119   5.139
  831WAT     H2 3013   6.323   3.023   5.026
  832WAT      O 3014   5.647   1.582   4.396
  832WAT     H1 3015   5.634   1.581   4.490
  832WAT     H2 3016   5.564   1.616   4.360
  833WAT      O 3017   6.414   2.899   4.943
  833WAT     H1 3018   6.478   2.829   4.954
  833WAT     H2 3019   6.467   2.977   4.925
  834WAT      O 3020   6.591   2.979   5.263
  834WAT     H1 3021   6.625   3.038   5.331
  834WAT     H2 3022   6.499   2.966   5.286
  835WAT      O 3023   5.377   3.330   3.993
  835WAT     H1 3024   5.413   3.390   3.927
  835WAT     H2 3025   5.363   3.385   4.070
  836WAT      O 3026   5.346   1.758   5.342
  836WAT     H1 3027   5.275   1.778   5.402
  836WAT     H2 3028   5.388   1.680   5.379
  837WAT      O 3029   5.375   3.157   5.440
  837WAT     H1 3030   5.386   3.063   5.426
  837WAT     H2 3031   5.310   3.183   5.375
  838WAT      O 3032   5.978   3.069   4.075
  838WAT     H1 3033   5.978   3.142   4.013
  838WAT     H2 3034   5.886   3.044   4.084
  839WAT      O 3035   5.539   2.591   4.149
  839WAT     H1 3036   5.478   2.665   4.150
  839WAT     H2 3037   5.586   2.600   4.066
  840WAT      O 3038   6.496   2.007   5.117
  840WAT     H1 3039   6.533   1.925   5.149
  840WAT     H2 3040   6.410   2.013   5.158
  841WAT      O 3041   6.277   3.075   3.941
  841WAT     H1 3042   6.287   3.054   3.848
  841WAT     H2 3043   6.187   3.049   3.961
  842WAT      O 3044   6.029   2.131   4.339
  842WAT     H1 3045   5.958   2.178   4.383
  842WAT     H2 3046   6.058   2.065   4.403
  843WAT      O 3047   6.192   2.273   5.139
  843WAT     H1 3048   6.242   2.320   5.206
  843WAT     H2 3049   6.206   2.180   5.160
  844WAT      O 3050   6.432   1.803   4.483
  844WAT     H1 3051   6.420   1.805   4.388
  844WAT     H2 3052   6.527   1.808   4.495
  845WAT      O 3053   6.141   3.327   4.410
  845WAT     H1 3054   6.167   3.323   4.318
  845WAT     H2 3055   6.046   3.314   4.410
  846WAT      O 3056   5.850   1.961   4.077
  846WAT     H1 3057   5.935   2.005   4.070
  846WAT     H2 3058   5.813   1.993   4.159
  847WAT      O 3059   5.740   2.587   3.924
  847WAT     H1 3060   5.816   2.576   3.980
  847WAT     H2 3061   5.747   2.517   3.859
  848WAT      O 3062   5.609   2.330   3.992
  848WAT     H1 3063   5.617   2.235   4.003
  848WAT     H2 3064   5.698   2.363   4.003
  849WAT      O 3065   5.689   3.345   4.703
  849WAT     H1 3066   5.763   3.290   4.730
  849WAT     H2 3067   5.728   3.432   4.689
  850WAT      O 3068   5.378   2.952   4.290
  850WAT     H1 3069   5.285   2.976   4.289
  850WAT     H2 3070   5.424   3.034   4.278
  851WAT      O 3071   6.000   3.262   3.885
  851WAT     H1 3072   6.080   3.291   3.840
  851WAT     H2 3073   5.948   3.219   3.817
  852WAT      O 3074   6.052   2.784   3.871
  852WAT     H1 3075   6.042   2.723   3.944
  852WAT     H2 3076   6.035   2.732   3.793
  853WAT      O 3077   6.067   2.653   5.469
  853WAT     H1 3078   5.991   2.710   5.461
  853WAT     H2 3079   6.085   2.624   5.380
  854WAT      O 3080   6.376   2.691   3.932
  854WAT     H1 3081   6.321   2.735   3.996
  854WAT     H2 3082   6.438   2.640   3.984
  855WAT      O 3083   5.943   2.586   4.121
  855WAT     H1 3084   5.985   2.570   4.206
  855WAT     H2 3085   5.955   2.505   4.072
  856WAT      O 3086   5.759   2.184   5.402
  856WAT     H1 3087   5.706   2.135   5.339
  856WAT     H2 3088   5.826   2.227   5.349
  857WAT      O 3089   6.194   2.489   3.846
  857WAT     H1 3090   6.246   2.417   3.810
  857WAT     H2 3091   6.259   2.553   3.876
  858WAT      O 3092   5.808   1.881   5.410
  858WAT     H1 3093   5.798   1.819   5.338
  858WAT     H2 3094   5.750   1.954   5.387
  859WAT      O 3095   6.084   1.737   5.113
  859WAT     H1 3096   6.040   1.739   5.029
  859WAT     H2 3097   6.021   1.697   5.173
  860WAT      O 3098   6.125   2.626   5.175
  860WAT     H1 3099   6.167   2.711   5.158
  860WAT     H2 3100   6.033   2.640   5.153
  861WAT      O 3101   6.359   2.399   5.314
  861WAT     H1 3102   6.371   2.340   5.388
  861WAT     H2 3103   6.445   2.403   5.272
  862WAT      O 3104   5.832   2.194   3.816
  862WAT     H1 3105   5.812   2.107   3.852
  862WAT     H2 3106   5.815   2.185   3.722
  863WAT      O 3107   5.910   3.257   5.287
  863WAT     H1 3108   5.856   3.329   5.255
  863WAT     H2 3109   5.935   3.209   5.208
  864WAT      O 3110   6.035   2.054   5.440
  864WAT     H1 3111   6.094   2.023   5.508
  864WAT     H2 3112   5.954   2.007   5.455
  865WAT      O 3113   6.517   2.015   5.463
  865WAT     H1 3114   6.448   1.949   5.456
  865WAT     H2 3115   6.589   1.971   5.507
  866WAT      O 3116   6.580   1.675   4.069
  866WAT     H1 3117   6.608   1.591   4.104
  866WAT     H2 3118   6.503   1.698   4.120
  867WAT      O 3119   5.712   1.904   3.815
  867WAT     H1 3120   5.742   1.904   3.724
  867WAT     H2 3121   5.786   1.869   3.864
  868WAT      O 3122   6.196   3.380   5.313
  868WAT     H1 3123   6.188   3.471   5.344
  868WAT     H2 3124   6.105   3.348   5.310
  869WAT      O 3125   6.034   1.798   3.913
  869WAT     H1 3126   5.999   1.730   3.855
  869WAT     H2 3127   6.054   1.752   3.995
  870WAT      O 3128   6.251   3.297   4.075
  870WAT     H1 3129   6.340   3.331   4.077
  870WAT     H2 3130   6.254   3.225   4.012
  871WAT      O 3131   5.615   2.834   3.898
  871WAT     H1 3132   5.658   2.889   3.964
  871WAT     H2 3133   5.663   2.752   3.899
  872WAT      O 3134   5.336   3.113   4.643
  872WAT     H1 3135   5.369   3.026   4.620
  872WAT     H2 3136   5.379   3.134   4.726
  873WAT      O 3137   5.796   2.946   4.409
  873WAT     H1 3138   5.766   2.934   4.499
  873WAT     H2 3139   5.785   2.860   4.368
  874WAT      O 3140   5.385   3.200   4.917
  874WAT     H1 3141   5.341   3.218   5.000
  874WAT     H2 3142   5.442   3.276   4.903
  875WAT      O 3143   5.368   2.451   4.553
  875WAT     H1 3144   5.303   2.424   4.489
  875WAT     H2 3145   5.452   2.440   4.508
  876WAT      O 3146   5.472   2.490   5.007
  876WAT     H1 3147   5.509   2.481   5.095
  876WAT     H2 3148   5.415   2.413   4.997
  877WAT      O 3149   5.427   2.181   5.398
  877WAT     H1 3150   5.338   2.177   5.431
  877WAT     H2 3151   5.481   2.201   5.474
  878WAT      O 3152   5.289   2.172   4.147
  878WAT     H1 3153   5.199   2.198   4.130
  878WAT     H2 3154   5.338   2.199   4.069
  879WAT      O 3155   5.544   2.078   3.938
  879WAT     H1 3156   5.615   2.036   3.890
  879WAT     H2 3157   5.472   2.084   3.875
  880WAT      O 3158   5.509   1.683   3.842
  880WAT     H1 3159   5.581   1.737   3.874
  880WAT     H2 3160   5.536   1.656   3.755
  881WAT      O 3161   5.477   1.608   4.832
  881WAT     H1 3162   5.542   1.553   4.788
  881WAT     H2 3163   5.519   1.634   4.915
  882WAT      O 3164   5.453   1.624   5.107
  882WAT     H1 3165   5.418   1.669   5.183
  882WAT     H2 3166   5.420   1.534   5.115
  883WAT      O 3167   5.983   3.096   5.083
  883WAT     H1 3168   5.959   3.123   4.995
  883WAT     H2 3169   6.077   3.114   5.089
  884WAT      O 3170   6.204   1.743   5.459
  884WAT     H1 3171   6.198   1.802   5.534
  884WAT     H2 3172   6.298   1.732   5.444
  885WAT      O 3173   6.468   1.709   5.423
  885WAT     H1 3174   6.529   1.740   5.357
  885WAT     H2 3175   6.522   1.660   5.485
  886WAT      O 3176   5.520   1.576   5.434
  886WAT     H1 3177   5.575   1.558   5.358
  886WAT     H2 3178   5.527   1.497   5.488
  887WAT      O 3179   5.597   3.236   5.235
  887WAT     H1 3180   5.538   3.222   5.309
  887WAT     H2 3181   5.597   3.152   5.189
  888WAT      O 3182   6.542   1.565   5.055
  888WAT     H1 3183   6.454   1.598   5.035
  888WAT     H2 3184   6.531   1.518   5.138
  889WAT      O 3185   5.560   2.972   5.130
  889WAT     H1 3186   5.488   2.910   5.123
  889WAT     H2 3187   5.566   3.011   5.043
  890WAT      O 3188   5.921   3.194   4.809
  890WAT     H1 3189   5.972   3.132   4.756
  890WAT     H2 3190   5.986   3.244   4.858
  891WAT      O 3191   6.195   3.283   4.891
  891WAT     H1 3192   6.224   3.257   4.804
  891WAT     H2 3193   6.246   3.227   4.950
  892WAT      O 3194   6.317   1.657   4.949
  892WAT     H1 3195   6.238   1.704   4.977
  892WAT     H2 3196   6.287   1.566   4.938
  893WAT      O 3197   5.389   3.304   4.451
  893WAT     H1 3198   5.372   3.241   4.521
  893WAT     H2 3199   5.302   3.324   4.416
  894WAT      O 3200   5.451   1.687   4.201
  894WAT     H1 3201   5.527   1.698   4.144
  894WAT     H2 3202   5.405   1.771   4.197
  895WAT      O 3203   6.105   1.898   4.501
  895WAT     H1 3204   6.024   1.861   4.466
  895WAT     H2 3205   6.156   1.823   4.531
  896WAT      O 3206   6.555   1.565   4.624
  896WAT     H1 3207   6.616   1.622   4.672
  896WAT     H2 3208   6.481   1.621   4.602
  897WAT      O 3209   5.549   3.173   4.196
  897WAT     H1 3210   5.497   3.211   4.125
  897WAT     H2 3211   5.542   3.236   4.268
  898WAT      O 3212   5.688   1.740   4.056
  898WAT     H1 3213   5.741   1.661   4.043
  898WAT     H2 3214   5.752   1.808   4.079
  899WAT      O 3215   5.908   1.713   4.361
  899WAT     H1 3216   5.845   1.643   4.378
  899WAT     H2 3217   5.854   1.789   4.339
  900WAT      O 3218   5.809   3.368   4.083
  900WAT     H1 3219   5.882   3.340   4.028
  900WAT     H2 3220   5.835   3.344   4.172
  901WAT      O 3221   5.725   2.980   4.084
  901WAT     H1 3222   5.662   3.026   4.138
  901WAT     H2 3223   5.737   2.895   4.127
  902WAT      O 3224   6.471   2.385   2.699
  902WAT     H1 3225   6.463   2.293   2.672
  902WAT     H2 3226   6.430   2.434   2.628
  903WAT      O 3227   6.284   2.562   2.887
  903WAT     H1 3228   6.207   2.514   2.916
  903WAT     H2 3229   6.349   2.495   2.869
  904WAT      O 3230   5.686   2.594   2.974
  904WAT     H1 3231   5.603   2.568   3.014
  904WAT     H2 3232   5.747   2.601   3.048
  905WAT      O 3233   5.684   2.997   2.994
  905WAT     H1 3234   5.714   2.908   2.976
  905WAT     H2 3235   5.758   3.053   2.971
  906WAT      O 3236   5.527   2.090   2.353
  906WAT     H1 3237   5.438   2.124   2.343
  906WAT     H2 3238   5.555   2.070   2.264
  907WAT      O 3239   5.323   2.350   2.941
  907WAT     H1 3240   5.380   2.273   2.941
  907WAT     H2 3241   5.323   2.380   2.850
  908WAT      O 3242   6.309   3.232   2.727
  908WAT     H1 3243   6.247   3.277   2.670
  908WAT     H2 3244   6.394   3.247   2.687
  909WAT      O 3245   6.228   2.830   2.887
  909WAT     H1 3246   6.221   2.736   2.871
  909WAT     H2 3247   6.304   2.839   2.945
  910WAT      O 3248   5.447   1.891   3.120
  910WAT     H1 3249   5.429   1.801   3.148
  910WAT     H2 3250   5.407   1.945   3.187
  911WAT      O 3251   6.331   2.111   2.910
  911WAT     H1 3252   6.369   2.023   2.899
  911WAT     H2 3253   6.321   2.144   2.821
  912WAT      O 3254   5.744   1.948   2.456
  912WAT     H1 3255   5.755   2.038   2.487
  912WAT     H2 3256   5.653   1.943   2.427
  913WAT      O 3257   5.509   2.140   2.981
  913WAT     H1 3258   5.577   2.167   3.043
  913WAT     H2 3259   5.478   2.056   3.014
  914WAT      O 3260   5.928   2.245   2.890
  914WAT     H1 3261   5.979   2.295   2.954
  914WAT     H2 3262   5.981   2.167   2.872
  915WAT      O 3263   5.757   1.709   3.316
  915WAT     H1 3264   5.757   1.761   3.236
  915WAT     H2 3265   5.674   1.661   3.314
  916WAT      O 3266   6.395   2.720   2.466
  916WAT     H1 3267   6.334   2.767   2.410
  916WAT     H2 3268   6.447   2.789   2.508
  917WAT      O 3269   5.882   2.673   3.134
  917WAT     H1 3270   5.848   2.736   3.198
  917WAT     H2 3271   5.899   2.725   3.056
  918WAT      O 3272   5.725   1.880   3.117
  918WAT     H1 3273   5.759   1.964   3.087
  918WAT     H2 3274   5.631   1.895   3.129
  919WAT      O 3275   5.803   2.870   3.315
  919WAT     H1 3276   5.865   2.937   3.287
  919WAT     H2 3277   5.717   2.911   3.306
  920WAT      O 3278   5.332   2.789   2.203
  920WAT     H1 3279   5.295   2.837   2.130
  920WAT     H2 3280   5.358   2.856   2.267
  921WAT      O 3281   6.093   1.629   2.749
  921WAT     H1 3282   6.124   1.573   2.678
  921WAT     H2 3283   6.000   1.642   2.731
  922WAT      O 3284   6.332   2.435   2.423
  922WAT     H1 3285   6.239   2.429   2.446
  922WAT     H2 3286   6.347   2.529   2.411
  923WAT      O 3287   6.331   2.062   2.123
  923WAT     H1 3288   6.237   2.079   2.131
  923WAT     H2 3289   6.362   2.134   2.068
  924WAT      O 3290   5.893   2.488   2.701
  924WAT     H1 3291   5.852   2.417   2.652
  924WAT     H2 3292   5.901   2.453   2.790
  925WAT      O 3293   5.939   2.857   2.918
  925WAT     H1 3294   5.910   2.796   2.850
  925WAT     H2 3295   6.034   2.860   2.906
  926WAT      O 3296   5.764   2.165   3.079
  926WAT     H1 3297   5.819   2.176   3.002
  926WAT     H2 3298   5.815   2.203   3.151
  927WAT      O 3299   5.849   2.830   3.583
  927WAT     H1 3300   5.759   2.853   3.607
  927WAT     H2 3301   5.851   2.843   3.488
  928WAT      O 3302   6.553   2.515   2.174
  928WAT     H1 3303   6.597   2.432   2.159
  928WAT     H2 3304   6.624   2.579   2.183
  929WAT      O 3305   5.731   2.518   3.440
  929WAT     H1 3306   5.717   2.605   3.477
  929WAT     H2 3307   5.643   2.483   3.426
  930WAT      O 3308   6.364   3.009   2.571
  930WAT     H1 3309   6.407   3.084   2.529
  930WAT     H2 3310   6.357   3.034   2.663
  931WAT      O 3311   5.911   3.112   3.661
  931WAT     H1 3312   5.908   3.152   3.574
  931WAT     H2 3313   5.895   3.019   3.645
  932WAT      O 3314   5.563   2.377   2.451
  932WAT     H1 3315   5.551   2.450   2.390
  932WAT     H2 3316   5.532   2.300   2.403
  933WAT      O 3317   5.326   2.695   3.032
  933WAT     H1 3318   5.334   2.708   2.937
  933WAT     H2 3319   5.388   2.624   3.051
  934WAT      O 3320   5.451   2.865   2.673
  934WAT     H1 3321   5.410   2.879   2.587
  934WAT     H2 3322   5.540   2.836   2.653
  935WAT      O 3323   6.433   3.279   3.364
  935WAT     H1 3324   6.484   3.271   3.444
  935WAT     H2 3325   6.348   3.314   3.393
  936WAT      O 3326   5.878   3.286   2.484
  936WAT     H1 3327   5.861   3.194   2.463
  936WAT     H2 3328   5.793   3.322   2.508
  937WAT      O 3329   6.557   3.221   2.570
  937WAT     H1 3330   6.603   3.143   2.601
  937WAT     H2 3331   6.591   3.293   2.624
  938WAT      O 3332   5.332   2.799   3.286
  938WAT     H1 3333   5.348   2.752   3.204
  938WAT     H2 3334   5.379   2.748   3.352
  939WAT      O 3335   5.809   1.712   2.789
  939WAT     H1 3336   5.765   1.790   2.756
  939WAT     H2 3337   5.865   1.744   2.860
  940WAT      O 3338   6.238   1.998   3.350
  940WAT     H1 3339   6.192   2.019   3.431
  940WAT     H2 3340   6.198   1.917   3.320
  941WAT      O 3341   6.447   2.271   3.673
  941WAT     H1 3342   6.480   2.187   3.639
  941WAT     H2 3343   6.526   2.323   3.688
  942WAT      O 3344   6.121   1.674   2.278
  942WAT     H1 3345   6.058   1.673   2.350
  942WAT     H2 3346   6.112   1.587   2.238
  943WAT      O 3347   6.013   1.766   2.975
  943WAT     H1 3348   6.043   1.857   2.967
  943WAT     H2 3349   6.068   1.717   2.914
  944WAT      O 3350   5.788   2.224   2.562
  944WAT     H1 3351   5.766   2.202   2.653
  944WAT     H2 3352   5.710   2.267   2.528
  945WAT      O 3353   6.511   2.225   2.422
  945WAT     H1 3354   6.451   2.297   2.404
  945WAT     H2 3355   6.566   2.218   2.344
  946WAT      O 3356   6.032   2.314   3.629
  946WAT     H1 3357   6.023   2.220   3.614
  946WAT     H2 3358   6.117   2.336   3.589
  947WAT      O 3359   6.372   2.088   2.625
  947WAT     H1 3360   6.411   2.120   2.544
  947WAT     H2 3361   6.408   2.000   2.637
  948WAT      O 3362   5.545   1.955   3.444
  948WAT     H1 3363   5.506   2.040   3.465
  948WAT     H2 3364   5.477   1.891   3.463
  949WAT      O 3365   6.203   1.963   3.751
  949WAT     H1 3366   6.134   1.944   3.815
  949WAT     H2 3367   6.277   1.992   3.804
  950WAT      O 3368   5.276   1.747   2.847
  950WAT     H1 3369   5.247   1.804   2.919
  950WAT     H2 3370   5.350   1.699   2.884
  951WAT      O 3371   5.294   2.142   1.969
  951WAT     H1 3372   5.286   2.236   1.983
  951WAT     H2 3373   5.259   2.127   1.881
  952WAT      O 3374   6.431   2.347   3.035
  952WAT     H1 3375   6.357   2.398   3.070
  952WAT     H2 3376   6.391   2.266   3.005
  953WAT      O 3377   6.074   2.015   2.875
  953WAT     H1 3378   6.075   1.971   2.790
  953WAT     H2 3379   6.164   2.047   2.886
  954WAT      O 3380   5.659   2.003   2.771
  954WAT     H1 3381   5.625   2.051   2.847
  954WAT     H2 3382   5.583   1.958   2.735
  955WAT      O 3383   6.080   2.115   2.174
  955WAT     H1 3384   6.093   2.111   2.269
  955WAT     H2 3385   6.042   2.201   2.159
  956WAT      O 3386   6.477   1.893   2.976
  956WAT     H1 3387   6.479   1.938   3.060
  956WAT     H2 3388   6.452   1.803   2.997
  957WAT      O 3389   5.982   2.346   2.114
  957WAT     H1 3390   5.925   2.301   2.051
  957WAT     H2 3391   6.053   2.382   2.061
  958WAT      O 3392   5.489   2.736   3.502
  958WAT     H1 3393   5.451   2.672   3.562
  958WAT     H2 3394   5.521   2.807   3.559
  959WAT      O 3395   6.104   2.421   3.050
  959WAT     H1 3396   6.141   2.374   3.124
  959WAT     H2 3397   6.085   2.508   3.084
  960WAT      O 3398   5.391   1.895   2.663
  960WAT     H1 3399   5.362   1.859   2.747
  960WAT     H2 3400   5.385   1.822   2.601
  961WAT      O 3401   5.883   2.325   3.282
  961WAT     H1 3402   5.853   2.413   3.304
  961WAT     H2 3403   5.979   2.331   3.285
  962WAT      O 3404   5.736   2.746   2.341
  962WAT     H1 3405   5.659   2.692   2.325
  962WAT     H2 3406   5.809   2.694   2.308
  963WAT      O 3407   6.358   1.785   2.335
  963WAT     H1 3408   6.277   1.735   2.327
  963WAT     H2 3409   6.339   1.869   2.293
  964WAT      O 3410   6.350   2.652   3.509
  964WAT     H1 3411   6.344   2.560   3.484
  964WAT     H2 3412   6.287   2.662   3.581
  965WAT      O 3413   5.741   2.712   2.705
  965WAT     H1 3414   5.792   2.632   2.700
  965WAT     H2 3415   5.695   2.706   2.789
  966WAT      O 3416   6.229   2.839   2.232
  966WAT     H1 3417   6.263   2.914   2.183
  966WAT     H2 3418   6.146   2.870   2.269
  967WAT      O 3419   5.489   2.409   3.396
  967WAT     H1 3420   5.453   2.476   3.455
  967WAT     H2 3421   5.460   2.326   3.434
  968WAT      O 3422   5.809   2.455   3.685
  968WAT     H1 3423   5.779   2.469   3.595
  968WAT     H2 3424   5.886   2.399   3.676
  969WAT      O 3425   6.343   2.935   3.484
  969WAT     H1 3426   6.345   2.841   3.463
  969WAT     H2 3427   6.273   2.943   3.548
  970WAT      O 3428   6.518   2.771   2.769
  970WAT     H1 3429   6.553   2.712   2.703
  970WAT     H2 3430   6.429   2.739   2.786
  971WAT      O 3431   6.126   2.847   2.510
  971WAT     H1 3432   6.195   2.902   2.548
  971WAT     H2 3433   6.047   2.902   2.513
  972WAT      O 3434   5.340   2.409   2.059
  972WAT     H1 3435   5.427   2.437   2.087
  972WAT     H2 3436   5.291   2.490   2.047
  973WAT      O 3437   6.056   2.548   2.471
  973WAT     H1 3438   6.102   2.629   2.493
  973WAT     H2 3439   6.021   2.516   2.554
  974WAT      O 3440   6.287   3.099   3.194
  974WAT     H1 3441   6.351   3.119   3.262
  974WAT     H2 3442   6.323   3.023   3.148
  975WAT      O 3443   5.647   1.582   2.518
  975WAT     H1 3444   5.634   1.581   2.613
  975WAT     H2 3445   5.564   1.616   2.483
  976WAT      O 3446   6.414   2.899   3.066
  976WAT     H1 3447   6.478   2.829   3.077
  976WAT     H2 3448   6.467   2.977   3.048
  977WAT      O 3449   6.591   2.979   3.386
  977WAT     H1 3450   6.625   3.038   3.454
  977WAT     H2 3451   6.499   2.966   3.409
  978WAT      O 3452   5.377   3.330   2.115
  978WAT     H1 3453   5.413   3.390   2.050
  978WAT     H2 3454   5.363   3.385   2.193
  979WAT      O 3455   5.346   1.758   3.464
  979WAT     H1 3456   5.275   1.778   3.525
  979WAT     H2 3457   5.388   1.680   3.501
  980WAT      O 3458   5.375   3.157   3.563
  980WAT     H1 3459   5.386   3.063   3.549
  980WAT     H2 3460   5.310   3.183   3.498
  981WAT      O 3461   6.174   2.984   3.703
  981WAT     H1 3462   6.142   2.912   3.757
  981WAT     H2 3463   6.107   3.052   3.710
  982WAT      O 3464   5.978   3.069   2.197
  982WAT     H1 3465   5.978   3.142   2.136
  982WAT     H2 3466   5.886   3.044   2.206
  983WAT      O 3467   5.539   2.591   2.272
  983WAT     H1 3468   5.478   2.665   2.273
  983WAT     H2 3469   5.586   2.600   2.189
  984WAT      O 3470   6.496   2.007   3.239
  984WAT     H1 3471   6.533   1.925   3.272
  984WAT     H2 3472   6.410   2.013   3.281
  985WAT      O 3473   6.277   3.075   2.063
  985WAT     H1 3474   6.287   3.054   1.970
  985WAT     H2 3475   6.187   3.049   2.084
  986WAT      O 3476   6.029   2.131   2.462
  986WAT     H1 3477   5.958   2.178   2.506
  986WAT     H2 3478   6.058   2.065   2.525
  987WAT      O 3479   6.192   2.273   3.262
  987WAT     H1 3480   6.242   2.320   3.328
  987WAT     H2 3481   6.206   2.180   3.282
  988WAT      O 3482   6.432   1.803   2.606
  988WAT     H1 3483   6.420   1.805   2.511
  988WAT     H2 3484   6.527   1.808   2.618
  989WAT      O 3485   6.141   3.327   2.533
  989WAT     H1 3486   6.167   3.323   2.441
  989WAT     H2 3487   6.046   3.314   2.532
  990WAT      O 3488   5.850   1.961   2.199
  990WAT     H1 3489   5.935   2.005   2.193
  990WAT     H2 3490   5.813   1.993   2.282
  991WAT      O 3491   5.740   2.587   2.046
  991WAT     H1 3492   5.816   2.576   2.103
  991WAT     H2 3493   5.747   2.517   1.981
  992WAT      O 3494   5.609   2.330   2.115
  992WAT     H1 3495   5.617   2.235   2.126
  992WAT     H2 3496   5.698   2.363   2.125
  993WAT      O 3497   5.689   3.345   2.825
  993WAT     H1 3498   5.763   3.290   2.852
  993WAT     H2 3499   5.728   3.432   2.811
  994WAT      O 3500   5.378   2.952   2.413
  994WAT     H1 3501   5.285   2.976   2.412
  994WAT     H2 3502   5.424   3.034   2.400
  995WAT      O 3503   5.590   3.263   3.744
  995WAT     H1 3504   5.670   3.296   3.785
  995WAT     H2 3505   5.538   3.227   3.816
  996WAT      O 3506   6.000   3.262   2.007
  996WAT     H1 3507   6.080   3.291   1.962
  996WAT     H2 3508   5.948   3.219   1.940
  997WAT      O 3509   6.473   2.874   3.739
  997WAT     H1 3510   6.413   2.877   3.665
  997WAT     H2 3511   6.443   2.801   3.792
  998WAT      O 3512   5.362   2.512   3.638
  998WAT     H1 3513   5.412   2.454   3.696
  998WAT     H2 3514   5.288   2.541   3.692
  999WAT      O 3515   6.052   2.784   1.994
  999WAT     H1 3516   6.042   2.723   2.066
  999WAT     H2 3517   6.035   2.732   1.915
 1000WAT      O 3518   6.067   2.653   3.592
 1000WAT     H1 3519   5.991   2.710   3.583
 1000WAT     H2 3520   6.085   2.624   3.502
 1001WAT      O 3521   6.376   2.691   2.054
 1001WAT     H1 3522   6.321   2.735   2.119
 1001WAT     H2 3523   6.438   2.640   2.107
 1002WAT      O 3524   5.565   2.327   3.728
 1002WAT     H1 3525   5.569   2.297   3.819
 1002WAT     H2 3526   5.650   2.367   3.712
 1003WAT      O 3527   5.943   2.586   2.244
 1003WAT     H1 3528   5.985   2.570   2.328
 1003WAT     H2 3529   5.955   2.505   2.194
 1004WAT      O 3530   5.759   2.184   3.525
 1004WAT     H1 3531   5.706   2.135   3.462
 1004WAT     H2 3532   5.826   2.227   3.471
 1005WAT      O 3533   6.194   2.489   1.969
 1005WAT     H1 3534   6.246   2.417   1.932
 1005WAT     H2 3535   6.259   2.553   1.999
 1006WAT      O 3536   5.808   1.881   3.533
 1006WAT     H1 3537   5.798   1.819   3.460
 1006WAT     H2 3538   5.750   1.954   3.510
 1007WAT      O 3539   6.084   1.737   3.236
 1007WAT     H1 3540   6.040   1.739   3.151
 1007WAT     H2 3541   6.021   1.697   3.296
 1008WAT      O 3542   6.125   2.626   3.298
 1008WAT     H1 3543   6.167   2.711   3.281
 1008WAT     H2 3544   6.033   2.640   3.275
 1009WAT      O 3545   6.359   2.399   3.436
 1009WAT     H1 3546   6.371   2.340   3.510
 1009WAT     H2 3547   6.445   2.403   3.394
 1010WAT      O 3548   5.832   2.194   1.938
 1010WAT     H1 3549   5.812   2.107   1.975
 1010WAT     H2 3550   5.815   2.185   1.845
 1011WAT      O 3551   5.910   3.257   3.410
 1011WAT     H1 3552   5.856   3.329   3.378
 1011WAT     H2 3553   5.935   3.209   3.331
 1012WAT      O 3554   6.035   2.054   3.562
 1012WAT     H1 3555   6.094   2.023   3.631
 1012WAT     H2 3556   5.954   2.007   3.578
 1013WAT      O 3557   6.517   2.015   3.585
 1013WAT     H1 3558   6.448   1.949   3.579
 1013WAT     H2 3559   6.589   1.971   3.630
 1014WAT      O 3560   6.580   1.675   2.191
 1014WAT     H1 3561   6.608   1.591   2.227
 1014WAT     H2 3562   6.503   1.698   2.243
 1015WAT      O 3563   5.712   1.904   1.937
 1015WAT     H1 3564   5.742   1.904   1.846
 1015WAT     H2 3565   5.786   1.869   1.987
 1016WAT      O 3566   6.196   3.380   3.435
 1016WAT     H1 3567   6.188   3.471   3.466
 1016WAT     H2 3568   6.105   3.348   3.433
 1017WAT      O 3569   6.034   1.798   2.036
 1017WAT     H1 3570   5.999   1.730   1.978
 1017WAT     H2 3571   6.054   1.752   2.117
 1018WAT      O 3572   6.251   3.297   2.198
 1018WAT     H1 3573   6.340   3.331   2.200
 1018WAT     H2 3574   6.254   3.225   2.135
 1019WAT      O 3575   5.615   2.834   2.021
 1019WAT     H1 3576   5.658   2.889   2.086
 1019WAT     H2 3577   5.663   2.752   2.022
 1020WAT      O 3578   5.336   3.113   2.766
 1020WAT     H1 3579   5.369   3.026   2.743
 1020WAT     H2 3580   5.379   3.134   2.849
 1021WAT      O 3581   5.796   2.946   2.532
 1021WAT     H1 3582   5.766   2.934   2.622
 1021WAT     H2 3583   5.785   2.860   2.491
 1022WAT      O 3584   5.385   3.200   3.040
 1022WAT     H1 3585   5.341   3.218   3.123
 1022WAT     H2 3586   5.442   3.276   3.025
 1023WAT      O 3587   5.368   2.451   2.675
 1023WAT     H1 3588   5.303   2.424   2.611
 1023WAT     H2 3589   5.452   2.440   2.631
 1024WAT      O 3590   5.472   2.490   3.130
 1024WAT     H1 3591   5.509   2.481   3.217
 1024WAT     H2 3592   5.415   2.413   3.120
 1025WAT      O 3593   5.427   2.181   3.520
 1025WAT     H1 3594   5.338   2.177   3.554
 1025WAT     H2 3595   5.481   2.201   3.597
 1026WAT      O 3596   5.289   2.172   2.270
 1026WAT     H1 3597   5.199   2.198   2.252
 1026WAT     H2 3598   5.338   2.199   2.192
 1027WAT      O 3599   5.544   2.078   2.061
 1027WAT     H1 3600   5.615   2.036   2.012
 1027WAT     H2 3601   5.472   2.084   1.998
 1028WAT      O 3602   5.509   1.683   1.965
 1028WAT     H1 3603   5.581   1.737   1.997
 1028WAT     H2 3604   5.536   1.656   1.877
 1029WAT      O 3605   5.477   1.608   2.955
 1029WAT     H1 3606   5.542   1.553   2.911
 1029WAT     H2 3607   5.519   1.634   3.037
 1030WAT      O 3608   5.453   1.624   3.229
 1030WAT     H1 3609   5.418   1.669   3.306
 1030WAT     H2 3610   5.420   1.534   3.237
 1031WAT      O 3611   5.613   2.941   3.646
 1031WAT     H1 3612   5.609   2.904   3.734
 1031WAT     H2 3613   5.627   3.035   3.660
 1032WAT      O 3614   5.983   3.096   3.206
 1032WAT     H1 3615   5.959   3.123   3.117
 1032WAT     H2 3616   6.077   3.114   3.211
 1033WAT      O 3617   6.204   1.743   3.581
 1033WAT     H1 3618   6.198   1.802   3.656
 1033WAT     H2 3619   6.298   1.732   3.567
 1034WAT      O 3620   6.468   1.709   3.545
 1034WAT     H1 3621   6.529   1.740   3.479
 1034WAT     H2 3622   6.522   1.660   3.607
 1035WAT      O 3623   5.520   1.576   3.557
 1035WAT     H1 3624   5.575   1.558   3.480
 1035WAT     H2 3625   5.527   1.497   3.610
 1036WAT      O 3626   5.597   3.236   3.358
 1036WAT     H1 3627   5.538   3.222   3.432
 1036WAT     H2 3628   5.597   3.152   3.311
 1037WAT      O 3629   6.542   1.565   3.178
 1037WAT     H1 3630   6.454   1.598   3.158
 1037WAT     H2 3631   6.531   1.518   3.261
 1038WAT      O 3632   5.560   2.972   3.253
 1038WAT     H1 3633   5.488   2.910   3.246
 1038WAT     H2 3634   5.566   3.011   3.166
 1039WAT      O 3635   5.921   3.194   2.931
 1039WAT     H1 3636   5.972   3.132   2.879
 1039WAT     H2 3637   5.986   3.244   2.980
 1040WAT      O 3638   6.195   3.283   3.014
 1040WAT     H1 3639   6.224   3.257   2.926
 1040WAT     H2 3640   6.246   3.227   3.073
 1041WAT      O 3641   6.317   1.657   3.072
 1041WAT     H1 3642   6.238   1.704   3.100
 1041WAT     H2 3643   6.287   1.566   3.061
 1042WAT      O 3644   5.389   3.304   2.574
 1042WAT     H1 3645   5.372   3.241   2.644
 1042WAT     H2 3646   5.302   3.324   2.539
 1043WAT      O 3647   5.451   1.687   2.324
 1043WAT     H1 3648   5.527   1.698   2.267
 1043WAT     H2 3649   5.405   1.771   2.319
 1044WAT      O 3650   6.105   1.898   2.623
 1044WAT     H1 3651   6.024   1.861   2.589
 1044WAT     H2 3652   6.156   1.823   2.653
 1045WAT      O 3653   6.555   1.565   2.747
 1045WAT     H1 3654   6.616   1.622   2.794
 1045WAT     H2 3655   6.481   1.621   2.725
 1046WAT      O 3656   5.549   3.173   2.318
 1046WAT     H1 3657   5.497   3.211   2.248
 1046WAT     H2 3658   5.542   3.236   2.390
 1047WAT      O 3659   5.688   1.740   2.178
 1047WAT     H1 3660   5.741   1.661   2.165
 1047WAT     H2 3661   5.752   1.808   2.201
 1048WAT      O 3662   5.908   1.713   2.484
 1048WAT     H1 3663   5.845   1.643   2.500
 1048WAT     H2 3664   5.854   1.789   2.462
 1049WAT      O 3665   6.202   3.375   3.751
 1049WAT     H1 3666   6.294   3.351   3.755
 1049WAT     H2 3667   6.200   3.458   3.703
 1050WAT      O 3668   5.920   1.641   3.727
 1050WAT     H1 3669   5.892   1.692   3.651
 1050WAT     H2 3670   5.958   1.561   3.690
 1051WAT      O 3671   5.809   3.368   2.206
 1051WAT     H1 3672   5.882   3.340   2.151
 1051WAT     H2 3673   5.835   3.344   2.295
 1052WAT      O 3674   5.725   2.980   2.206
 1052WAT     H1 3675   5.662   3.026   2.261
 1052WAT     H2 3676   5.737   2.895   2.250
 1053WAT      O 3677   6.471   2.385   0.821
 1053WAT     H1 3678   6.463   2.293   0.794
 1053WAT     H2 3679   6.430   2.434   0.751
 1054WAT      O 3680   6.284   2.562   1.009
 1054WAT     H1 3681   6.207   2.514   1.038
 1054WAT     H2 3682   6.349   2.495   0.992
 1055WAT      O 3683   5.686   2.594   1.097
 1055WAT     H1 3684   5.603   2.568   1.137
 1055WAT     H2 3685   5.747   2.601   1.171
 1056WAT      O 3686   5.684   2.997   1.117
 1056WAT     H1 3687   5.714   2.908   1.099
 1056WAT     H2 3688   5.758   3.053   1.094
 1057WAT      O 3689   5.527   2.090   0.475
 1057WAT     H1 3690   5.438   2.124   0.465
 1057WAT     H2 3691   5.555   2.070   0.386
 1058WAT      O 3692   5.323   2.350   1.064
 1058WAT     H1 3693   5.380   2.273   1.064
 1058WAT     H2 3694   5.323   2.380   0.973
 1059WAT      O 3695   6.309   3.232   0.849
 1059WAT     H1 3696   6.247   3.277   0.792
 1059WAT     H2 3697   6.394   3.247   0.809
 1060WAT      O 3698   6.228   2.830   1.010
 1060WAT     H1 3699   6.221   2.736   0.994
 1060WAT     H2 3700   6.304   2.839   1.067
 1061WAT      O 3701   5.447   1.891   1.243
 1061WAT     H1 3702   5.429   1.801   1.271
 1061WAT     H2 3703   5.407   1.945   1.310
 1062WAT      O 3704   6.331   2.111   1.033
 1062WAT     H1 3705   6.369   2.023   1.021
 1062WAT     H2 3706   6.321   2.144   0.944
 1063WAT      O 3707   5.744   1.948   0.579
 1063WAT     H1 3708   5.755   2.038   0.610
 1063WAT     H2 3709   5.653   1.943   0.550
 1064WAT      O 3710   5.509   2.140   1.103
 1064WAT     H1 3711   5.577   2.167   1.165
 1064WAT     H2 3712   5.478   2.056   1.137
 1065WAT      O 3713   5.928   2.245   1.012
 1065WAT     H1 3714   5.979   2.295   1.076
 1065WAT     H2 3715   5.981   2.167   0.995
 1066WAT      O 3716   5.757   1.709   1.439
 1066WAT     H1 3717   5.757   1.761   1.358
 1066WAT     H2 3718   5.674   1.661   1.436
 1067WAT      O 3719   6.395   2.720   0.589
 1067WAT     H1 3720   6.334   2.767   0.532
 1067WAT     H2 3721   6.447   2.789   0.630
 1068WAT      O 3722   5.882   2.673   1.256
 1068WAT     H1 3723   5.848   2.736   1.321
 1068WAT     H2 3724   5.899   2.725   1.179
 1069WAT      O 3725   5.725   1.880   1.239
 1069WAT     H1 3726   5.759   1.964   1.210
 1069WAT     H2 3727   5.631   1.895   1.251
 1070WAT      O 3728   5.803   2.870   1.438
 1070WAT     H1 3729   5.865   2.937   1.410
 1070WAT     H2 3730   5.717   2.911   1.429
 1071WAT      O 3731   5.332   2.789   0.326
 1071WAT     H1 3732   5.295   2.837   0.253
 1071WAT     H2 3733   5.358   2.856   0.389
 1072WAT      O 3734   6.093   1.629   0.872
 1072WAT     H1 3735   6.124   1.573   0.800
 1072WAT     H2 3736   6.000   1.642   0.854
 1073WAT      O 3737   6.332   2.435   0.546
 1073WAT     H1 3738   6.239   2.429   0.568
 1073WAT     H2 3739   6.347   2.529   0.534
 1074WAT      O 3740   6.331   2.062   0.245
 1074WAT     H1 3741   6.237   2.079   0.254
 1074WAT     H2 3742   6.362   2.134   0.191
 1075WAT      O 3743   5.893   2.488   0.824
 1075WAT     H1 3744   5.852   2.417   0.774
 1075WAT     H2 3745   5.901   2.453   0.913
 1076WAT      O 3746   5.939   2.857   1.040
 1076WAT     H1 3747   5.910   2.796   0.972
 1076WAT     H2 3748   6.034   2.860   1.029
 1077WAT      O 3749   5.764   2.165   1.202
 1077WAT     H1 3750   5.819   2.176   1.124
 1077WAT     H2 3751   5.815   2.203   1.273
 1078WAT      O 3752   5.849   2.830   1.705
 1078WAT     H1 3753   5.759   2.853   1.730
 1078WAT     H2 3754   5.851   2.843   1.610
 1079WAT      O 3755   6.553   2.515   0.297
 1079WAT     H1 3756   6.597   2.432   0.282
 1079WAT     H2 3757   6.624   2.579   0.305
 1080WAT      O 3758   5.731   2.518   1.563
 1080WAT     H1 3759   5.717   2.605   1.600
 1080WAT     H2 3760   5.643   2.483   1.548
 1081WAT      O 3761   6.364   3.009   0.693
 1081WAT     H1 3762   6.407   3.084   0.652
 1081WAT     H2 3763   6.357   3.034   0.786
 1082WAT      O 3764   5.911   3.112   1.784
 1082WAT     H1 3765   5.908   3.152   1.697
 1082WAT     H2 3766   5.895   3.019   1.767
 1083WAT      O 3767   5.563   2.377   0.574
 1083WAT     H1 3768   5.551   2.450   0.513
 1083WAT     H2 3769   5.532   2.300   0.526
 1084WAT      O 3770   5.326   2.695   1.154
 1084WAT     H1 3771   5.334   2.708   1.060
 1084WAT     H2 3772   5.388   2.624   1.174
 1085WAT      O 3773   5.451   2.865   0.796
 1085WAT     H1 3774   5.410   2.879   0.710
 1085WAT     H2 3775   5.540   2.836   0.775
 1086WAT      O 3776   6.433   3.279   1.486
 1086WAT     H1 3777   6.484   3.271   1.566
 1086WAT     H2 3778   6.348   3.314   1.515
 1087WAT      O 3779   5.878   3.286   0.607
 1087WAT     H1 3780   5.861   3.194   0.585
 1087WAT     H2 3781   5.793   3.322   0.631
 1088WAT      O 3782   6.557   3.221   0.692
 1088WAT     H1 3783   6.603   3.143   0.724
 1088WAT     H2 3784   6.591   3.293   0.747
 1089WAT      O 3785   5.332   2.799   1.408
 1089WAT     H1 3786   5.348   2.752   1.327
 1089WAT     H2 3787   5.379   2.748   1.475
 1090WAT      O 3788   5.809   1.712   0.912
 1090WAT     H1 3789   5.765   1.790   0.879
 1090WAT     H2 3790   5.865   1.744   0.983
 1091WAT      O 3791   6.238   1.998   1.472
 1091WAT     H1 3792   6.192   2.019   1.554
 1091WAT     H2 3793   6.198   1.917   1.442
 1092WAT      O 3794   6.447   2.271   1.795
 1092WAT     H1 3795   6.480   2.187   1.761
 1092WAT     H2 3796   6.526   2.323   1.810
 1093WAT      O 3797   6.121   1.674   0.400
 1093WAT     H1 3798   6.058   1.673   0.473
 1093WAT     H2 3799   6.112   1.587   0.360
 1094WAT      O 3800   6.013   1.766   1.098
 1094WAT     H1 3801   6.043   1.857   1.090
 1094WAT     H2 3802   6.068   1.717   1.037
 1095WAT      O 3803   5.788   2.224   0.685
 1095WAT     H1 3804   5.766   2.202   0.775
 1095WAT     H2 3805   5.710   2.267   0.650
 1096WAT      O 3806   6.511   2.225   0.545
 1096WAT     H1 3807   6.451   2.297   0.526
 1096WAT     H2 3808   6.566   2.218   0.466
 1097WAT      O 3809   6.032   2.314   1.751
 1097WAT     H1 3810   6.023   2.220   1.736
 1097WAT     H2 3811   6.117   2.336   1.712
 1098WAT      O 3812   6.372   2.088   0.748
 1098WAT     H1 3813   6.411   2.120   0.666
 1098WAT     H2 3814   6.408   2.000   0.759
 1099WAT      O 3815   5.545   1.955   1.567
 1099WAT     H1 3816   5.506   2.040   1.587
 1099WAT     H2 3817   5.477   1.891   1.586
 1100WAT      O 3818   6.203   1.963   1.874
 1100WAT     H1 3819   6.134   1.944   1.937
 1100WAT     H2 3820   6.277   1.992   1.927
 1101WAT      O 3821   5.276   1.747   0.970
 1101WAT     H1 3822   5.247   1.804   1.041
 1101WAT     H2 3823   5.350   1.699   1.006
 1102WAT      O 3824   6.431   2.347   1.157
 1102WAT     H1 3825   6.357   2.398   1.192
 1102WAT     H2 3826   6.391   2.266   1.127
 1103WAT      O 3827   6.074   2.015   0.998
 1103WAT     H1 3828   6.075   1.971   0.913
 1103WAT     H2 3829   6.164   2.047   1.009
 1104WAT      O 3830   5.659   2.003   0.894
 1104WAT     H1 3831   5.625   2.051   0.969
 1104WAT     H2 3832   5.583   1.958   0.858
 1105WAT      O 3833   6.080   2.115   0.297
 1105WAT     H1 3834   6.093   2.111   0.392
 1105WAT     H2 3835   6.042   2.201   0.281
 1106WAT      O 3836   6.477   1.893   1.098
 1106WAT     H1 3837   6.479   1.938   1.183
 1106WAT     H2 3838   6.452   1.803   1.120
 1107WAT      O 3839   5.982   2.346   0.237
 1107WAT     H1 3840   5.925   2.301   0.174
 1107WAT     H2 3841   6.053   2.382   0.183
 1108WAT      O 3842   5.489   2.736   1.624
 1108WAT     H1 3843   5.451   2.672   1.684
 1108WAT     H2 3844   5.521   2.807   1.681
 1109WAT      O 3845   6.104   2.421   1.172
 1109WAT     H1 3846   6.141   2.374   1.247
 1109WAT     H2 3847   6.085   2.508   1.207
 1110WAT      O 3848   5.391   1.895   0.785
 1110WAT     H1 3849   5.362   1.859   0.869
 1110WAT     H2 3850   5.385   1.822   0.724
 1111WAT      O 3851   5.883   2.325   1.404
 1111WAT     H1 3852   5.853   2.413   1.427
 1111WAT     H2 3853   5.979   2.331   1.408
 1112WAT      O 3854   5.736   2.746   0.464
 1112WAT     H1 3855   5.659   2.692   0.448
 1112WAT     H2 3856   5.809   2.694   0.430
 1113WAT      O 3857   6.358   1.785   0.458
 1113WAT     H1 3858   6.277   1.735   0.450
 1113WAT     H2 3859   6.339   1.869   0.416
 1114WAT      O 3860   6.350   2.652   1.632
 1114WAT     H1 3861   6.344   2.560   1.606
 1114WAT     H2 3862   6.287   2.662   1.703
 1115WAT      O 3863   5.741   2.712   0.828
 1115WAT     H1 3864   5.792   2.632   0.822
 1115WAT     H2 3865   5.695   2.706   0.912
 1116WAT      O 3866   6.229   2.839   0.355
 1116WAT     H1 3867   6.263   2.914   0.305
 1116WAT     H2 3868   6.146   2.870   0.391
 1117WAT      O 3869   5.489   2.409   1.519
 1117WAT     H1 3870   5.453   2.476   1.578
 1117WAT     H2 3871   5.460   2.326   1.556
 1118WAT      O 3872   5.809   2.455   1.807
 1118WAT     H1 3873   5.779   2.469   1.718
 1118WAT     H2 3874   5.886   2.399   1.798
 1119WAT      O 3875   6.343   2.935   1.607
 1119WAT     H1 3876   6.345   2.841   1.585
 1119WAT     H2 3877   6.273   2.943   1.671
 1120WAT      O 3878   6.518   2.771   0.891
 1120WAT     H1 3879   6.553   2.712   0.825
 1120WAT     H2 3880   6.429   2.739   0.909
 1121WAT      O 3881   6.126   2.847   0.632
 1121WAT     H1 3882   6.195   2.902   0.670
 1121WAT     H2 3883   6.047   2.902   0.636
 1122WAT      O 3884   5.340   2.409   0.181
 1122WAT     H1 3885   5.427   2.437   0.210
 1122WAT     H2 3886   5.291   2.490   0.170
 1123WAT      O 3887   6.056   2.548   0.593
 1123WAT     H1 3888   6.102   2.629   0.616
 1123WAT     H2 3889   6.021   2.516   0.677
 1124WAT      O 3890   6.287   3.099   1.316
 1124WAT     H1 3891   6.351   3.119   1.384
 1124WAT     H2 3892   6.323   3.023   1.271
 1125WAT      O 3893   5.647   1.582   0.641
 1125WAT     H1 3894   5.634   1.581   0.736
 1125WAT     H2 3895   5.564   1.616   0.606
 1126WAT      O 3896   6.414   2.899   1.188
 1126WAT     H1 3897   6.478   2.829   1.199
 1126WAT     H2 3898   6.467   2.977   1.170
 1127WAT      O 3899   6.591   2.979   1.508
 1127WAT     H1 3900   6.625   3.038   1.576
 1127WAT     H2 3901   6.499   2.966   1.531
 1128WAT      O 3902   5.377   3.330   0.238
 1128WAT     H1 3903   5.413   3.390   0.173
 1128WAT     H2 3904   5.363   3.385   0.315
 1129WAT      O 3905   5.346   1.758   1.587
 1129WAT     H1 3906   5.275   1.778   1.647
 1129WAT     H2 3907   5.388   1.680   1.624
 1130WAT      O 3908   5.375   3.157   1.685
 1130WAT     H1 3909   5.386   3.063   1.671
 1130WAT     H2 3910   5.310   3.183   1.621
 1131WAT      O 3911   6.174   2.984   1.825
 1131WAT     H1 3912   6.142   2.912   1.880
 1131WAT     H2 3913   6.107   3.052   1.833
 1132WAT      O 3914   5.978   3.069   0.320
 1132WAT     H1 3915   5.978   3.142   0.258
 1132WAT     H2 3916   5.886   3.044   0.329
 1133WAT      O 3917   5.539   2.591   0.394
 1133WAT     H1 3918   5.478   2.665   0.395
 1133WAT     H2 3919   5.586   2.600   0.312
 1134WAT      O 3920   6.496   2.007   1.362
 1134WAT     H1 3921   6.533   1.925   1.395
 1134WAT     H2 3922   6.410   2.013   1.403
 1135WAT      O 3923   6.029   2.131   0.584
 1135WAT     H1 3924   5.958   2.178   0.628
 1135WAT     H2 3925   6.058   2.065   0.648
 1136WAT      O 3926   6.192   2.273   1.384
 1136WAT     H1 3927   6.242   2.320   1.451
 1136WAT     H2 3928   6.206   2.180   1.405
 1137WAT      O 3929   6.432   1.803   0.728
 1137WAT     H1 3930   6.420   1.805   0.633
 1137WAT     H2 3931   6.527   1.808   0.740
 1138WAT      O 3932   6.141   3.327   0.655
 1138WAT     H1 3933   6.167   3.323   0.563
 1138WAT     H2 3934   6.046   3.314   0.655
 1139WAT      O 3935   5.850   1.961   0.322
 1139WAT     H1 3936   5.935   2.005   0.315
 1139WAT     H2 3937   5.813   1.993   0.404
 1140WAT      O 3938   5.609   2.330   0.237
 1140WAT     H1 3939   5.617   2.235   0.249
 1140WAT     H2 3940   5.698   2.363   0.248
 1141WAT      O 3941   5.689   3.345   0.948
 1141WAT     H1 3942   5.763   3.290   0.975
 1141WAT     H2 3943   5.728   3.432   0.934
 1142WAT      O 3944   5.378   2.952   0.535
 1142WAT     H1 3945   5.285   2.976   0.534
 1142WAT     H2 3946   5.424   3.034   0.523
 1143WAT      O 3947   5.590   3.263   1.867
 1143WAT     H1 3948   5.670   3.296   1.908
 1143WAT     H2 3949   5.538   3.227   1.939
 1144WAT      O 3950   6.473   2.874   1.861
 1144WAT     H1 3951   6.413   2.877   1.787
 1144WAT     H2 3952   6.443   2.801   1.915
 1145WAT      O 3953   5.362   2.512   1.761
 1145WAT     H1 3954   5.412   2.454   1.818
 1145WAT     H2 3955   5.288   2.541   1.815
 1146WAT      O 3956   6.067   2.653   1.714
 1146WAT     H1 3957   5.991   2.710   1.706
 1146WAT     H2 3958   6.085   2.624   1.625
 1147WAT      O 3959   6.376   2.691   0.177
 1147WAT     H1 3960   6.321   2.735   0.241
 1147WAT     H2 3961   6.438   2.640   0.229
 1148WAT      O 3962   5.565   2.327   1.850
 1148WAT     H1 3963   5.569   2.297   1.941
 1148WAT     H2 3964   5.650   2.367   1.835
 1149WAT      O 3965   5.943   2.586   0.366
 1149WAT     H1 3966   5.985   2.570   0.451
 1149WAT     H2 3967   5.955   2.505   0.317
 1150WAT      O 3968   5.759   2.184   1.647
 1150WAT     H1 3969   5.706   2.135   1.584
 1150WAT     H2 3970   5.826   2.227   1.594
 1151WAT      O 3971   5.808   1.881   1.655
 1151WAT     H1 3972   5.798   1.819   1.583
 1151WAT     H2 3973   5.750   1.954   1.632
 1152WAT      O 3974   6.084   1.737   1.358
 1152WAT     H1 3975   6.040   1.739   1.274
 1152WAT     H2 3976   6.021   1.697   1.418
 1153WAT      O 3977   6.125   2.626   1.421
 1153WAT     H1 3978   6.167   2.711   1.403
 1153WAT     H2 3979   6.033   2.640   1.398
 1154WAT      O 3980   6.359   2.399   1.559
 1154WAT     H1 3981   6.371   2.340   1.633
 1154WAT     H2 3982   6.445   2.403   1.517
 1155WAT      O 3983   5.910   3.257   1.532
 1155WAT     H1 3984   5.856   3.329   1.500
 1155WAT     H2 3985   5.935   3.209   1.453
 1156WAT      O 3986   6.035   2.054   1.685
 1156WAT     H1 3987   6.094   2.023   1.753
 1156WAT     H2 3988   5.954   2.007   1.700
 1157WAT      O 3989   6.517   2.015   1.708
 1157WAT     H1 3990   6.448   1.949   1.702
 1157WAT     H2 3991   6.589   1.971   1.753
 1158WAT      O 3992   6.580   1.675   0.314
 1158WAT     H1 3993   6.608   1.591   0.350
 1158WAT     H2 3994   6.503   1.698   0.365
 1159WAT      O 3995   6.196   3.380   1.558
 1159WAT     H1 3996   6.188   3.471   1.589
 1159WAT     H2 3997   6.105   3.348   1.555
 1160WAT      O 3998   6.251   3.297   0.320
 1160WAT     H1 3999   6.340   3.331   0.322
 1160WAT     H2 4000   6.254   3.225   0.258
 1161WAT      O 4001   5.336   3.113   0.888
 1161WAT     H1 4002   5.369   3.026   0.865
 1161WAT     H2 4003   5.379   3.134   0.971
 1162WAT      O 4004   5.796   2.946   0.654
 1162WAT     H1 4005   5.766   2.934   0.744
 1162WAT     H2 4006   5.785   2.860   0.614
 1163WAT      O 4007   5.385   3.200   1.162
 1163WAT     H1 4008   5.341   3.218   1.245
 1163WAT     H2 4009   5.442   3.276   1.148
 1164WAT      O 4010   5.368   2.451   0.798
 1164WAT     H1 4011   5.303   2.424   0.734
 1164WAT     H2 4012   5.452   2.440   0.753
 1165WAT      O 4013   5.472   2.490   1.252
 1165WAT     H1 4014   5.509   2.481   1.340
 1165WAT     H2 4015   5.415   2.413   1.242
 1166WAT      O 4016   5.427   2.181   1.643
 1166WAT     H1 4017   5.338   2.177   1.677
 1166WAT     H2 4018   5.481   2.201   1.719
 1167WAT      O 4019   5.289   2.172   0.392
 1167WAT     H1 4020   5.199   2.198   0.375
 1167WAT     H2 4021   5.338   2.199   0.314
 1168WAT      O 4022   5.477   1.608   1.077
 1168WAT     H1 4023   5.542   1.553   1.033
 1168WAT     H2 4024   5.519   1.634   1.160
 1169WAT      O 4025   5.453   1.624   1.352
 1169WAT     H1 4026   5.418   1.669   1.428
 1169WAT     H2 4027   5.420   1.534   1.360
 1170WAT      O 4028   5.613   2.941   1.768
 1170WAT     H1 4029   5.609   2.904   1.856
 1170WAT     H2 4030   5.627   3.035   1.782
 1171WAT      O 4031   5.983   3.096   1.328
 1171WAT     H1 4032   5.959   3.123   1.240
 1171WAT     H2 4033   6.077   3.114   1.334
 1172WAT      O 4034   6.204   1.743   1.704
 1172WAT     H1 4035   6.198   1.802   1.779
 1172WAT     H2 4036   6.298   1.732   1.689
 1173WAT      O 4037   6.468   1.709   1.668
 1173WAT     H1 4038   6.529   1.740   1.602
 1173WAT     H2 4039   6.522   1.660   1.730
 1174WAT      O 4040   5.520   1.576   1.679
 1174WAT     H1 4041   5.575   1.558   1.603
 1174WAT     H2 4042   5.527   1.497   1.733
 1175WAT      O 4043   5.597   3.236   1.480
 1175WAT     H1 4044   5.538   3.222   1.554
 1175WAT     H2 4045   5.597   3.152   1.434
 1176WAT      O 4046   6.542   1.565   1.301
 1176WAT     H1 4047   6.454   1.598   1.280
 1176WAT     H2 4048   6.531   1.518   1.383
 1177WAT      O 4049   5.560   2.972   1.375
 1177WAT     H1 4050   5.488   2.910   1.369
 1177WAT     H2 4051   5.566   3.011   1.288
 1178WAT      O 4052   5.921   3.194   1.054
 1178WAT     H1 4053   5.972   3.132   1.001
 1178WAT     H2 4054   5.986   3.244   1.103
 1179WAT      O 4055   6.195   3.283   1.137
 1179WAT     H1 4056   6.224   3.257   1.049
 1179WAT     H2 4057   6.246   3.227   1.196
 1180WAT      O 4058   6.317   1.657   1.194
 1180WAT     H1 4059   6.238   1.704   1.222
 1180WAT     H2 4060   6.287   1.566   1.184
 1181WAT      O 4061   5.389   3.304   0.696
 1181WAT     H1 4062   5.372   3.241   0.766
 1181WAT     H2 4063   5.302   3.324   0.661
 1182WAT      O 4064   5.451   1.687   0.447
 1182WAT     H1 4065   5.527   1.698   0.389
 1182WAT     H2 4066   5.405   1.771   0.442
 1183WAT      O 4067   6.105   1.898   0.746
 1183WAT     H1 4068   6.024   1.861   0.712
 1183WAT     H2 4069   6.156   1.823   0.776
 1184WAT      O 4070   6.555   1.565   0.869
 1184WAT     H1 4071   6.616   1.622   0.917
 1184WAT     H2 4072   6.481   1.621   0.847
 1185WAT      O 4073   5.549   3.173   0.441
 1185WAT     H1 4074   5.497   3.211   0.370
 1185WAT     H2 4075   5.542   3.236   0.513
 1186WAT      O 4076   5.688   1.740   0.301
 1186WAT     H1 4077   5.741   1.661   0.288
 1186WAT     H2 4078   5.752   1.808   0.324
 1187WAT      O 4079   5.908   1.713   0.606
 1187WAT     H1 4080   5.845   1.643   0.623
 1187WAT     H2 4081   5.854   1.789   0.584
 1188WAT      O 4082   6.202   3.375   1.873
 1188WAT     H1 4083   6.294   3.351   1.878
 1188WAT     H2 4084   6.200   3.458   1.825
 1189WAT      O 4085   5.920   1.641   1.850
 1189WAT     H1 4086   5.892   1.692   1.773
 1189WAT     H2 4087   5.958   1.561   1.813
 1190WAT      O 4088   5.809   3.368   0.328
 1190WAT     H1 4089   5.882   3.340   0.274
 1190WAT     H2 4090   5.835   3.344   0.417
 1191WAT      O 4091   5.725   2.980   0.329
 1191WAT     H1 4092   5.662   3.026   0.384
 1191WAT     H2 4093   5.737   2.895   0.372
 1192WAT      O 4094   6.471   0.507   4.576
 1192WAT     H1 4095   6.463   0.416   4.549
 1192WAT     H2 4096   6.430   0.557   4.505
 1193WAT      O 4097   6.284   0.685   4.764
 1193WAT     H1 4098   6.207   0.637   4.793
 1193WAT     H2 4099   6.349   0.617   4.747
 1194WAT      O 4100   5.686   0.716   4.852
 1194WAT     H1 4101   5.603   0.691   4.892
 1194WAT     H2 4102   5.747   0.723   4.926
 1195WAT      O 4103   5.684   1.120   4.872
 1195WAT     H1 4104   5.714   1.031   4.854
 1195WAT     H2 4105   5.758   1.175   4.849
 1196WAT      O 4106   5.527   0.212   4.230
 1196WAT     H1 4107   5.438   0.246   4.220
 1196WAT     H2 4108   5.555   0.192   4.141
 1197WAT      O 4109   5.323   0.472   4.819
 1197WAT     H1 4110   5.380   0.396   4.819
 1197WAT     H2 4111   5.323   0.502   4.728
 1198WAT      O 4112   6.309   1.354   4.604
 1198WAT     H1 4113   6.247   1.400   4.547
 1198WAT     H2 4114   6.394   1.370   4.564
 1199WAT      O 4115   6.228   0.953   4.765
 1199WAT     H1 4116   6.221   0.859   4.749
 1199WAT     H2 4117   6.304   0.962   4.822
 1200WAT      O 4118   5.509   0.263   4.858
 1200WAT     H1 4119   5.577   0.289   4.920
 1200WAT     H2 4120   5.478   0.179   4.892
 1201WAT      O 4121   5.928   0.367   4.767
 1201WAT     H1 4122   5.979   0.417   4.831
 1201WAT     H2 4123   5.981   0.290   4.749
 1202WAT      O 4124   6.395   0.843   4.344
 1202WAT     H1 4125   6.334   0.889   4.287
 1202WAT     H2 4126   6.447   0.912   4.385
 1203WAT      O 4127   5.882   0.795   5.011
 1203WAT     H1 4128   5.848   0.858   5.076
 1203WAT     H2 4129   5.899   0.848   4.933
 1204WAT      O 4130   5.803   0.992   5.193
 1204WAT     H1 4131   5.865   1.060   5.165
 1204WAT     H2 4132   5.717   1.033   5.184
 1205WAT      O 4133   5.332   0.911   4.081
 1205WAT     H1 4134   5.295   0.960   4.008
 1205WAT     H2 4135   5.358   0.978   4.144
 1206WAT      O 4136   6.332   0.558   4.300
 1206WAT     H1 4137   6.239   0.551   4.323
 1206WAT     H2 4138   6.347   0.652   4.289
 1207WAT      O 4139   6.331   0.185   4.000
 1207WAT     H1 4140   6.237   0.201   4.009
 1207WAT     H2 4141   6.362   0.257   3.945
 1208WAT      O 4142   5.893   0.610   4.579
 1208WAT     H1 4143   5.852   0.539   4.529
 1208WAT     H2 4144   5.901   0.576   4.667
 1209WAT      O 4145   5.939   0.979   4.795
 1209WAT     H1 4146   5.910   0.919   4.727
 1209WAT     H2 4147   6.034   0.983   4.784
 1210WAT      O 4148   5.764   0.288   4.957
 1210WAT     H1 4149   5.819   0.299   4.879
 1210WAT     H2 4150   5.815   0.325   5.028
 1211WAT      O 4151   5.849   0.953   5.460
 1211WAT     H1 4152   5.759   0.975   5.485
 1211WAT     H2 4153   5.851   0.965   5.365
 1212WAT      O 4154   6.553   0.638   4.051
 1212WAT     H1 4155   6.597   0.554   4.037
 1212WAT     H2 4156   6.624   0.701   4.060
 1213WAT      O 4157   5.731   0.640   5.318
 1213WAT     H1 4158   5.717   0.727   5.354
 1213WAT     H2 4159   5.643   0.606   5.303
 1214WAT      O 4160   6.364   1.132   4.448
 1214WAT     H1 4161   6.407   1.206   4.407
 1214WAT     H2 4162   6.357   1.156   4.541
 1215WAT      O 4163   5.911   1.234   5.538
 1215WAT     H1 4164   5.908   1.275   5.452
 1215WAT     H2 4165   5.895   1.141   5.522
 1216WAT      O 4166   5.563   0.500   4.329
 1216WAT     H1 4167   5.551   0.573   4.267
 1216WAT     H2 4168   5.532   0.423   4.281
 1217WAT      O 4169   5.326   0.817   4.909
 1217WAT     H1 4170   5.334   0.831   4.815
 1217WAT     H2 4171   5.388   0.746   4.929
 1218WAT      O 4172   5.451   0.987   4.550
 1218WAT     H1 4173   5.410   1.001   4.465
 1218WAT     H2 4174   5.540   0.959   4.530
 1219WAT      O 4175   6.433   1.402   5.241
 1219WAT     H1 4176   6.484   1.393   5.321
 1219WAT     H2 4177   6.348   1.437   5.270
 1220WAT      O 4178   5.878   1.409   4.362
 1220WAT     H1 4179   5.861   1.317   4.340
 1220WAT     H2 4180   5.793   1.444   4.386
 1221WAT      O 4181   6.557   1.344   4.447
 1221WAT     H1 4182   6.603   1.266   4.479
 1221WAT     H2 4183   6.591   1.415   4.502
 1222WAT      O 4184   5.332   0.921   5.163
 1222WAT     H1 4185   5.348   0.874   5.081
 1222WAT     H2 4186   5.379   0.870   5.230
 1223WAT      O 4187   6.447   0.393   5.550
 1223WAT     H1 4188   6.480   0.310   5.516
 1223WAT     H2 4189   6.526   0.445   5.565
 1224WAT      O 4190   5.788   0.347   4.440
 1224WAT     H1 4191   5.766   0.325   4.530
 1224WAT     H2 4192   5.710   0.390   4.405
 1225WAT      O 4193   6.511   0.347   4.300
 1225WAT     H1 4194   6.451   0.420   4.281
 1225WAT     H2 4195   6.566   0.341   4.221
 1226WAT      O 4196   6.032   0.436   5.506
 1226WAT     H1 4197   6.023   0.342   5.491
 1226WAT     H2 4198   6.117   0.459   5.467
 1227WAT      O 4199   5.294   0.264   3.846
 1227WAT     H1 4200   5.286   0.358   3.860
 1227WAT     H2 4201   5.259   0.250   3.758
 1228WAT      O 4202   6.431   0.470   4.912
 1228WAT     H1 4203   6.357   0.521   4.947
 1228WAT     H2 4204   6.391   0.388   4.882
 1229WAT      O 4205   6.080   0.238   4.052
 1229WAT     H1 4206   6.093   0.233   4.147
 1229WAT     H2 4207   6.042   0.324   4.036
 1230WAT      O 4208   5.982   0.469   3.992
 1230WAT     H1 4209   5.925   0.424   3.929
 1230WAT     H2 4210   6.053   0.505   3.938
 1231WAT      O 4211   5.489   0.859   5.379
 1231WAT     H1 4212   5.451   0.795   5.439
 1231WAT     H2 4213   5.521   0.929   5.436
 1232WAT      O 4214   6.104   0.544   4.927
 1232WAT     H1 4215   6.141   0.496   5.002
 1232WAT     H2 4216   6.085   0.631   4.961
 1233WAT      O 4217   5.883   0.448   5.159
 1233WAT     H1 4218   5.853   0.536   5.182
 1233WAT     H2 4219   5.979   0.454   5.163
 1234WAT      O 4220   5.736   0.868   4.219
 1234WAT     H1 4221   5.659   0.814   4.203
 1234WAT     H2 4222   5.809   0.816   4.185
 1235WAT      O 4223   6.350   0.775   5.387
 1235WAT     H1 4224   6.344   0.683   5.361
 1235WAT     H2 4225   6.287   0.785   5.458
 1236WAT      O 4226   5.741   0.835   4.583
 1236WAT     H1 4227   5.792   0.755   4.577
 1236WAT     H2 4228   5.695   0.829   4.667
 1237WAT      O 4229   6.229   0.962   4.110
 1237WAT     H1 4230   6.263   1.036   4.060
 1237WAT     H2 4231   6.146   0.993   4.146
 1238WAT      O 4232   5.489   0.532   5.274
 1238WAT     H1 4233   5.453   0.598   5.333
 1238WAT     H2 4234   5.460   0.448   5.311
 1239WAT      O 4235   5.809   0.577   5.562
 1239WAT     H1 4236   5.779   0.592   5.473
 1239WAT     H2 4237   5.886   0.522   5.553
 1240WAT      O 4238   6.343   1.057   5.362
 1240WAT     H1 4239   6.345   0.964   5.340
 1240WAT     H2 4240   6.273   1.066   5.426
 1241WAT      O 4241   6.518   0.894   4.646
 1241WAT     H1 4242   6.553   0.834   4.580
 1241WAT     H2 4243   6.429   0.861   4.663
 1242WAT      O 4244   6.126   0.970   4.387
 1242WAT     H1 4245   6.195   1.024   4.425
 1242WAT     H2 4246   6.047   1.024   4.391
 1243WAT      O 4247   5.340   0.532   3.936
 1243WAT     H1 4248   5.427   0.560   3.965
 1243WAT     H2 4249   5.291   0.613   3.925
 1244WAT      O 4250   6.056   0.670   4.348
 1244WAT     H1 4251   6.102   0.751   4.371
 1244WAT     H2 4252   6.021   0.638   4.431
 1245WAT      O 4253   6.287   1.221   5.071
 1245WAT     H1 4254   6.351   1.242   5.139
 1245WAT     H2 4255   6.323   1.145   5.026
 1246WAT      O 4256   6.414   1.022   4.943
 1246WAT     H1 4257   6.478   0.952   4.954
 1246WAT     H2 4258   6.467   1.100   4.925
 1247WAT      O 4259   6.591   1.102   5.263
 1247WAT     H1 4260   6.625   1.160   5.331
 1247WAT     H2 4261   6.499   1.089   5.286
 1248WAT      O 4262   5.377   1.453   3.993
 1248WAT     H1 4263   5.413   1.513   3.927
 1248WAT     H2 4264   5.363   1.507   4.070
 1249WAT      O 4265   5.375   1.279   5.440
 1249WAT     H1 4266   5.386   1.185   5.426
 1249WAT     H2 4267   5.310   1.306   5.375
 1250WAT      O 4268   5.978   1.191   4.075
 1250WAT     H1 4269   5.978   1.264   4.013
 1250WAT     H2 4270   5.886   1.166   4.084
 1251WAT      O 4271   5.539   0.713   4.149
 1251WAT     H1 4272   5.478   0.787   4.150
 1251WAT     H2 4273   5.586   0.722   4.066
 1252WAT      O 4274   6.277   1.197   3.941
 1252WAT     H1 4275   6.287   1.177   3.848
 1252WAT     H2 4276   6.187   1.172   3.961
 1253WAT      O 4277   6.029   0.253   4.339
 1253WAT     H1 4278   5.958   0.300   4.383
 1253WAT     H2 4279   6.058   0.187   4.403
 1254WAT      O 4280   6.192   0.395   5.139
 1254WAT     H1 4281   6.242   0.443   5.206
 1254WAT     H2 4282   6.206   0.303   5.160
 1255WAT      O 4283   6.141   1.449   4.410
 1255WAT     H1 4284   6.167   1.445   4.318
 1255WAT     H2 4285   6.046   1.437   4.410
 1256WAT      O 4286   5.740   0.709   3.924
 1256WAT     H1 4287   5.816   0.698   3.980
 1256WAT     H2 4288   5.747   0.640   3.859
 1257WAT      O 4289   5.609   0.453   3.992
 1257WAT     H1 4290   5.617   0.358   4.003
 1257WAT     H2 4291   5.698   0.486   4.003
 1258WAT      O 4292   5.689   1.468   4.703
 1258WAT     H1 4293   5.763   1.413   4.730
 1258WAT     H2 4294   5.728   1.554   4.689
 1259WAT      O 4295   5.378   1.074   4.290
 1259WAT     H1 4296   5.285   1.099   4.289
 1259WAT     H2 4297   5.424   1.157   4.278
 1260WAT      O 4298   6.000   1.385   3.885
 1260WAT     H1 4299   6.080   1.414   3.840
 1260WAT     H2 4300   5.948   1.342   3.817
 1261WAT      O 4301   6.052   0.907   3.871
 1261WAT     H1 4302   6.042   0.845   3.944
 1261WAT     H2 4303   6.035   0.855   3.793
 1262WAT      O 4304   6.067   0.775   5.469
 1262WAT     H1 4305   5.991   0.832   5.461
 1262WAT     H2 4306   6.085   0.746   5.380
 1263WAT      O 4307   6.376   0.813   3.932
 1263WAT     H1 4308   6.321   0.858   3.996
 1263WAT     H2 4309   6.438   0.763   3.984
 1264WAT      O 4310   5.943   0.709   4.121
 1264WAT     H1 4311   5.985   0.692   4.206
 1264WAT     H2 4312   5.955   0.628   4.072
 1265WAT      O 4313   5.759   0.307   5.402
 1265WAT     H1 4314   5.706   0.258   5.339
 1265WAT     H2 4315   5.826   0.350   5.349
 1266WAT      O 4316   6.194   0.611   3.846
 1266WAT     H1 4317   6.246   0.540   3.810
 1266WAT     H2 4318   6.259   0.675   3.876
 1267WAT      O 4319   6.125   0.749   5.175
 1267WAT     H1 4320   6.167   0.833   5.158
 1267WAT     H2 4321   6.033   0.763   5.153
 1268WAT      O 4322   6.359   0.522   5.314
 1268WAT     H1 4323   6.371   0.462   5.388
 1268WAT     H2 4324   6.445   0.526   5.272
 1269WAT      O 4325   5.832   0.316   3.816
 1269WAT     H1 4326   5.812   0.230   3.852
 1269WAT     H2 4327   5.815   0.308   3.722
 1270WAT      O 4328   5.910   1.379   5.287
 1270WAT     H1 4329   5.856   1.452   5.255
 1270WAT     H2 4330   5.935   1.332   5.208
 1271WAT      O 4331   6.196   1.503   5.313
 1271WAT     H1 4332   6.188   1.593   5.344
 1271WAT     H2 4333   6.105   1.471   5.310
 1272WAT      O 4334   6.251   1.420   4.075
 1272WAT     H1 4335   6.340   1.453   4.077
 1272WAT     H2 4336   6.254   1.347   4.012
 1273WAT      O 4337   5.615   0.957   3.898
 1273WAT     H1 4338   5.658   1.011   3.964
 1273WAT     H2 4339   5.663   0.874   3.899
 1274WAT      O 4340   5.336   1.236   4.643
 1274WAT     H1 4341   5.369   1.149   4.620
 1274WAT     H2 4342   5.379   1.256   4.726
 1275WAT      O 4343   5.796   1.069   4.409
 1275WAT     H1 4344   5.766   1.056   4.499
 1275WAT     H2 4345   5.785   0.983   4.368
 1276WAT      O 4346   5.385   1.322   4.917
 1276WAT     H1 4347   5.341   1.340   5.000
 1276WAT     H2 4348   5.442   1.398   4.903
 1277WAT      O 4349   5.368   0.574   4.553
 1277WAT     H1 4350   5.303   0.547   4.489
 1277WAT     H2 4351   5.452   0.563   4.508
 1278WAT      O 4352   5.472   0.612   5.007
 1278WAT     H1 4353   5.509   0.603   5.095
 1278WAT     H2 4354   5.415   0.536   4.997
 1279WAT      O 4355   5.427   0.303   5.398
 1279WAT     H1 4356   5.338   0.300   5.431
 1279WAT     H2 4357   5.481   0.323   5.474
 1280WAT      O 4358   5.289   0.295   4.147
 1280WAT     H1 4359   5.199   0.321   4.130
 1280WAT     H2 4360   5.338   0.322   4.069
 1281WAT      O 4361   5.544   0.200   3.938
 1281WAT     H1 4362   5.615   0.158   3.890
 1281WAT     H2 4363   5.472   0.207   3.875
 1282WAT      O 4364   5.983   1.219   5.083
 1282WAT     H1 4365   5.959   1.246   4.995
 1282WAT     H2 4366   6.077   1.236   5.089
 1283WAT      O 4367   5.597   1.358   5.235
 1283WAT     H1 4368   5.538   1.345   5.309
 1283WAT     H2 4369   5.597   1.274   5.189
 1284WAT      O 4370   5.560   1.095   5.130
 1284WAT     H1 4371   5.488   1.033   5.123
 1284WAT     H2 4372   5.566   1.134   5.043
 1285WAT      O 4373   5.921   1.316   4.809
 1285WAT     H1 4374   5.972   1.255   4.756
 1285WAT     H2 4375   5.986   1.366   4.858
 1286WAT      O 4376   6.195   1.405   4.891
 1286WAT     H1 4377   6.224   1.380   4.804
 1286WAT     H2 4378   6.246   1.350   4.950
 1287WAT      O 4379   5.389   1.426   4.451
 1287WAT     H1 4380   5.372   1.363   4.521
 1287WAT     H2 4381   5.302   1.447   4.416
 1288WAT      O 4382   5.549   1.296   4.196
 1288WAT     H1 4383   5.497   1.334   4.125
 1288WAT     H2 4384   5.542   1.358   4.268
 1289WAT      O 4385   5.809   1.491   4.083
 1289WAT     H1 4386   5.882   1.462   4.028
 1289WAT     H2 4387   5.835   1.467   4.172
 1290WAT      O 4388   5.725   1.102   4.084
 1290WAT     H1 4389   5.662   1.149   4.138
 1290WAT     H2 4390   5.737   1.018   4.127
 1291WAT      O 4391   6.471   0.507   2.699
 1291WAT     H1 4392   6.463   0.416   2.672
 1291WAT     H2 4393   6.430   0.557   2.628
 1292WAT      O 4394   6.284   0.685   2.887
 1292WAT     H1 4395   6.207   0.637   2.916
 1292WAT     H2 4396   6.349   0.617   2.869
 1293WAT      O 4397   5.686   0.716   2.974
 1293WAT     H1 4398   5.603   0.691   3.014
 1293WAT     H2 4399   5.747   0.723   3.048
 1294WAT      O 4400   5.684   1.120   2.994
 1294WAT     H1 4401   5.714   1.031   2.976
 1294WAT     H2 4402   5.758   1.175   2.971
 1295WAT      O 4403   5.527   0.212   2.353
 1295WAT     H1 4404   5.438   0.246   2.343
 1295WAT     H2 4405   5.555   0.192   2.264
 1296WAT      O 4406   5.323   0.472   2.941
 1296WAT     H1 4407   5.380   0.396   2.941
 1296WAT     H2 4408   5.323   0.502   2.850
 1297WAT      O 4409   6.309   1.354   2.727
 1297WAT     H1 4410   6.247   1.400   2.670
 1297WAT     H2 4411   6.394   1.370   2.687
 1298WAT      O 4412   6.228   0.953   2.887
 1298WAT     H1 4413   6.221   0.859   2.871
 1298WAT     H2 4414   6.304   0.962   2.945
 1299WAT      O 4415   5.509   0.263   2.981
 1299WAT     H1 4416   5.577   0.289   3.043
 1299WAT     H2 4417   5.478   0.179   3.014
 1300WAT      O 4418   5.928   0.367   2.890
 1300WAT     H1 4419   5.979   0.417   2.954
 1300WAT     H2 4420   5.981   0.290   2.872
 1301WAT      O 4421   6.395   0.843   2.466
 1301WAT     H1 4422   6.334   0.889   2.410
 1301WAT     H2 4423   6.447   0.912   2.508
 1302WAT      O 4424   5.882   0.795   3.134
 1302WAT     H1 4425   5.848   0.858   3.198
 1302WAT     H2 4426   5.899   0.848   3.056
 1303WAT      O 4427   5.803   0.992   3.315
 1303WAT     H1 4428   5.865   1.060   3.287
 1303WAT     H2 4429   5.717   1.033   3.306
 1304WAT      O 4430   5.332   0.911   2.203
 1304WAT     H1 4431   5.295   0.960   2.130
 1304WAT     H2 4432   5.358   0.978   2.267
 1305WAT      O 4433   6.332   0.558   2.423
 1305WAT     H1 4434   6.239   0.551   2.446
 1305WAT     H2 4435   6.347   0.652   2.411
 1306WAT      O 4436   6.331   0.185   2.123
 1306WAT     H1 4437   6.237   0.201   2.131
 1306WAT     H2 4438   6.362   0.257   2.068
 1307WAT      O 4439   5.893   0.610   2.701
 1307WAT     H1 4440   5.852   0.539   2.652
 1307WAT     H2 4441   5.901   0.576   2.790
 1308WAT      O 4442   5.939   0.979   2.918
 1308WAT     H1 4443   5.910   0.919   2.850
 1308WAT     H2 4444   6.034   0.983   2.906
 1309WAT      O 4445   5.764   0.288   3.079
 1309WAT     H1 4446   5.819   0.299   3.002
 1309WAT     H2 4447   5.815   0.325   3.151
 1310WAT      O 4448   5.849   0.953   3.583
 1310WAT     H1 4449   5.759   0.975   3.607
 1310WAT     H2 4450   5.851   0.965   3.488
 1311WAT      O 4451   6.553   0.638   2.174
 1311WAT     H1 4452   6.597   0.554   2.159
 1311WAT     H2 4453   6.624   0.701   2.183
 1312WAT      O 4454   5.731   0.640   3.440
 1312WAT     H1 4455   5.717   0.727   3.477
 1312WAT     H2 4456   5.643   0.606   3.426
 1313WAT      O 4457   6.364   1.132   2.571
 1313WAT     H1 4458   6.407   1.206   2.529
 1313WAT     H2 4459   6.357   1.156   2.663
 1314WAT      O 4460   5.911   1.234   3.661
 1314WAT     H1 4461   5.908   1.275   3.574
 1314WAT     H2 4462   5.895   1.141   3.645
 1315WAT      O 4463   5.563   0.500   2.451
 1315WAT     H1 4464   5.551   0.573   2.390
 1315WAT     H2 4465   5.532   0.423   2.403
 1316WAT      O 4466   5.326   0.817   3.032
 1316WAT     H1 4467   5.334   0.831   2.937
 1316WAT     H2 4468   5.388   0.746   3.051
 1317WAT      O 4469   5.451   0.987   2.673
 1317WAT     H1 4470   5.410   1.001   2.587
 1317WAT     H2 4471   5.540   0.959   2.653
 1318WAT      O 4472   6.433   1.402   3.364
 1318WAT     H1 4473   6.484   1.393   3.444
 1318WAT     H2 4474   6.348   1.437   3.393
 1319WAT      O 4475   5.878   1.409   2.484
 1319WAT     H1 4476   5.861   1.317   2.463
 1319WAT     H2 4477   5.793   1.444   2.508
 1320WAT      O 4478   6.557   1.344   2.570
 1320WAT     H1 4479   6.603   1.266   2.601
 1320WAT     H2 4480   6.591   1.415   2.624
 1321WAT      O 4481   5.332   0.921   3.286
 1321WAT     H1 4482   5.348   0.874   3.204
 1321WAT     H2 4483   5.379   0.870   3.352
 1322WAT      O 4484   6.447   0.393   3.673
 1322WAT     H1 4485   6.480   0.310   3.639
 1322WAT     H2 4486   6.526   0.445   3.688
 1323WAT      O 4487   5.788   0.347   2.562
 1323WAT     H1 4488   5.766   0.325   2.653
 1323WAT     H2 4489   5.710   0.390   2.528
 1324WAT      O 4490   6.511   0.347   2.422
 1324WAT     H1 4491   6.451   0.420   2.404
 1324WAT     H2 4492   6.566   0.341   2.344
 1325WAT      O 4493   6.032   0.436   3.629
 1325WAT     H1 4494   6.023   0.342   3.614
 1325WAT     H2 4495   6.117   0.459   3.589
 1326WAT      O 4496   5.294   0.264   1.969
 1326WAT     H1 4497   5.286   0.358   1.983
 1326WAT     H2 4498   5.259   0.250   1.881
 1327WAT      O 4499   6.431   0.470   3.035
 1327WAT     H1 4500   6.357   0.521   3.070
 1327WAT     H2 4501   6.391   0.388   3.005
 1328WAT      O 4502   6.080   0.238   2.174
 1328WAT     H1 4503   6.093   0.233   2.269
 1328WAT     H2 4504   6.042   0.324   2.159
 1329WAT      O 4505   5.982   0.469   2.114
 1329WAT     H1 4506   5.925   0.424   2.051
 1329WAT     H2 4507   6.053   0.505   2.061
 1330WAT      O 4508   5.489   0.859   3.502
 1330WAT     H1 4509   5.451   0.795   3.562
 1330WAT     H2 4510   5.521   0.929   3.559
 1331WAT      O 4511   6.104   0.544   3.050
 1331WAT     H1 4512   6.141   0.496   3.124
 1331WAT     H2 4513   6.085   0.631   3.084
 1332WAT      O 4514   5.883   0.448   3.282
 1332WAT     H1 4515   5.853   0.536   3.304
 1332WAT     H2 4516   5.979   0.454   3.285
 1333WAT      O 4517   5.736   0.868   2.341
 1333WAT     H1 4518   5.659   0.814   2.325
 1333WAT     H2 4519   5.809   0.816   2.308
 1334WAT      O 4520   6.350   0.775   3.509
 1334WAT     H1 4521   6.344   0.683   3.484
 1334WAT     H2 4522   6.287   0.785   3.581
 1335WAT      O 4523   5.741   0.835   2.705
 1335WAT     H1 4524   5.792   0.755   2.700
 1335WAT     H2 4525   5.695   0.829   2.789
 1336WAT      O 4526   6.229   0.962   2.232
 1336WAT     H1 4527   6.263   1.036   2.183
 1336WAT     H2 4528   6.146   0.993   2.269
 1337WAT      O 4529   5.489   0.532   3.396
 1337WAT     H1 4530   5.453   0.598   3.455
 1337WAT     H2 4531   5.460   0.448   3.434
 1338WAT      O 4532   5.809   0.577   3.685
 1338WAT     H1 4533   5.779   0.592   3.595
 1338WAT     H2 4534   5.886   0.522   3.676
 1339WAT      O 4535   6.343   1.057   3.484
 1339WAT     H1 4536   6.345   0.964   3.463
 1339WAT     H2 4537   6.273   1.066   3.548
 1340WAT      O 4538   6.518   0.894   2.769
 1340WAT     H1 4539   6.553   0.834   2.703
 1340WAT     H2 4540   6.429   0.861   2.786
 1341WAT      O 4541   6.126   0.970   2.510
 1341WAT     H1 4542   6.195   1.024   2.548
 1341WAT     H2 4543   6.047   1.024   2.513
 1342WAT      O 4544   5.340   0.532   2.059
 1342WAT     H1 4545   5.427   0.560   2.087
 1342WAT     H2 4546   5.291   0.613   2.047
 1343WAT      O 4547   6.056   0.670   2.471
 1343WAT     H1 4548   6.102   0.751   2.493
 1343WAT     H2 4549   6.021   0.638   2.554
 1344WAT      O 4550   6.287   1.221   3.194
 1344WAT     H1 4551   6.351   1.242   3.262
 1344WAT     H2 4552   6.323   1.145   3.148
 1345WAT      O 4553   6.414   1.022   3.066
 1345WAT     H1 4554   6.478   0.952   3.077
 1345WAT     H2 4555   6.467   1.100   3.048
 1346WAT      O 4556   6.591   1.102   3.386
 1346WAT     H1 4557   6.625   1.160   3.454
 1346WAT     H2 4558   6.499   1.089   3.409
 1347WAT      O 4559   5.377   1.453   2.115
 1347WAT     H1 4560   5.413   1.513   2.050
 1347WAT     H2 4561   5.363   1.507   2.193
 1348WAT      O 4562   5.375   1.279   3.563
 1348WAT     H1 4563   5.386   1.185   3.549
 1348WAT     H2 4564   5.310   1.306   3.498
 1349WAT      O 4565   6.174   1.107   3.703
 1349WAT     H1 4566   6.142   1.035   3.757
 1349WAT     H2 4567   6.107   1.174   3.710
 1350WAT      O 4568   5.978   1.191   2.197
 1350WAT     H1 4569   5.978   1.264   2.136
 1350WAT     H2 4570   5.886   1.166   2.206
 1351WAT      O 4571   5.539   0.713   2.272
 1351WAT     H1 4572   5.478   0.787   2.273
 1351WAT     H2 4573   5.586   0.722   2.189
 1352WAT      O 4574   6.277   1.197   2.063
 1352WAT     H1 4575   6.287   1.177   1.970
 1352WAT     H2 4576   6.187   1.172   2.084
 1353WAT      O 4577   6.029   0.253   2.462
 1353WAT     H1 4578   5.958   0.300   2.506
 1353WAT     H2 4579   6.058   0.187   2.525
 1354WAT      O 4580   6.192   0.395   3.262
 1354WAT     H1 4581   6.242   0.443   3.328
 1354WAT     H2 4582   6.206   0.303   3.282
 1355WAT      O 4583   6.141   1.449   2.533
 1355WAT     H1 4584   6.167   1.445   2.441
 1355WAT     H2 4585   6.046   1.437   2.532
 1356WAT      O 4586   5.740   0.709   2.046
 1356WAT     H1 4587   5.816   0.698   2.103
 1356WAT     H2 4588   5.747   0.640   1.981
 1357WAT      O 4589   5.609   0.453   2.115
 1357WAT     H1 4590   5.617   0.358   2.126
 1357WAT     H2 4591   5.698   0.486   2.125
 1358WAT      O 4592   5.689   1.468   2.825
 1358WAT     H1 4593   5.763   1.413   2.852
 1358WAT     H2 4594   5.728   1.554   2.811
 1359WAT      O 4595   5.378   1.074   2.413
 1359WAT     H1 4596   5.285   1.099   2.412
 1359WAT     H2 4597   5.424   1.157   2.400
 1360WAT      O 4598   5.590   1.386   3.744
 1360WAT     H1 4599   5.670   1.418   3.785
 1360WAT     H2 4600   5.538   1.350   3.816
 1361WAT      O 4601   6.000   1.385   2.007
 1361WAT     H1 4602   6.080   1.414   1.962
 1361WAT     H2 4603   5.948   1.342   1.940
 1362WAT      O 4604   6.473   0.997   3.739
 1362WAT     H1 4605   6.413   0.999   3.665
 1362WAT     H2 4606   6.443   0.924   3.792
 1363WAT      O 4607   5.362   0.635   3.638
 1363WAT     H1 4608   5.412   0.577   3.696
 1363WAT     H2 4609   5.288   0.663   3.692
 1364WAT      O 4610   6.052   0.907   1.994
 1364WAT     H1 4611   6.042   0.845   2.066
 1364WAT     H2 4612   6.035   0.855   1.915
 1365WAT      O 4613   6.067   0.775   3.592
 1365WAT     H1 4614   5.991   0.832   3.583
 1365WAT     H2 4615   6.085   0.746   3.502
 1366WAT      O 4616   6.376   0.813   2.054
 1366WAT     H1 4617   6.321   0.858   2.119
 1366WAT     H2 4618   6.438   0.763   2.107
 1367WAT      O 4619   5.565   0.449   3.728
 1367WAT     H1 4620   5.569   0.419   3.819
 1367WAT     H2 4621   5.650   0.489   3.712
 1368WAT      O 4622   5.943   0.709   2.244
 1368WAT     H1 4623   5.985   0.692   2.328
 1368WAT     H2 4624   5.955   0.628   2.194
 1369WAT      O 4625   5.759   0.307   3.525
 1369WAT     H1 4626   5.706   0.258   3.462
 1369WAT     H2 4627   5.826   0.350   3.471
 1370WAT      O 4628   6.194   0.611   1.969
 1370WAT     H1 4629   6.246   0.540   1.932
 1370WAT     H2 4630   6.259   0.675   1.999
 1371WAT      O 4631   6.125   0.749   3.298
 1371WAT     H1 4632   6.167   0.833   3.281
 1371WAT     H2 4633   6.033   0.763   3.275
 1372WAT      O 4634   6.359   0.522   3.436
 1372WAT     H1 4635   6.371   0.462   3.510
 1372WAT     H2 4636   6.445   0.526   3.394
 1373WAT      O 4637   5.832   0.316   1.938
 1373WAT     H1 4638   5.812   0.230   1.975
 1373WAT     H2 4639   5.815   0.308   1.845
 1374WAT      O 4640   5.910   1.379   3.410
 1374WAT     H1 4641   5.856   1.452   3.378
 1374WAT     H2 4642   5.935   1.332   3.331
 1375WAT      O 4643   6.196   1.503   3.435
 1375WAT     H1 4644   6.188   1.593   3.466
 1375WAT     H2 4645   6.105   1.471   3.433
 1376WAT      O 4646   6.251   1.420   2.198
 1376WAT     H1 4647   6.340   1.453   2.200
 1376WAT     H2 4648   6.254   1.347   2.135
 1377WAT      O 4649   5.615   0.957   2.021
 1377WAT     H1 4650   5.658   1.011   2.086
 1377WAT     H2 4651   5.663   0.874   2.022
 1378WAT      O 4652   5.336   1.236   2.766
 1378WAT     H1 4653   5.369   1.149   2.743
 1378WAT     H2 4654   5.379   1.256   2.849
 1379WAT      O 4655   5.796   1.069   2.532
 1379WAT     H1 4656   5.766   1.056   2.622
 1379WAT     H2 4657   5.785   0.983   2.491
 1380WAT      O 4658   5.385   1.322   3.040
 1380WAT     H1 4659   5.341   1.340   3.123
 1380WAT     H2 4660   5.442   1.398   3.025
 1381WAT      O 4661   5.368   0.574   2.675
 1381WAT     H1 4662   5.303   0.547   2.611
 1381WAT     H2 4663   5.452   0.563   2.631
 1382WAT      O 4664   5.472   0.612   3.130
 1382WAT     H1 4665   5.509   0.603   3.217
 1382WAT     H2 4666   5.415   0.536   3.120
 1383WAT      O 4667   5.427   0.303   3.520
 1383WAT     H1 4668   5.338   0.300   3.554
 1383WAT     H2 4669   5.481   0.323   3.597
 1384WAT      O 4670   5.289   0.295   2.270
 1384WAT     H1 4671   5.199   0.321   2.252
 1384WAT     H2 4672   5.338   0.322   2.192
 1385WAT      O 4673   5.544   0.200   2.061
 1385WAT     H1 4674   5.615   0.158   2.012
 1385WAT     H2 4675   5.472   0.207   1.998
 1386WAT      O 4676   5.613   1.063   3.646
 1386WAT     H1 4677   5.609   1.026   3.734
 1386WAT     H2 4678   5.627   1.157   3.660
 1387WAT      O 4679   5.983   1.219   3.206
 1387WAT     H1 4680   5.959   1.246   3.117
 1387WAT     H2 4681   6.077   1.236   3.211
 1388WAT      O 4682   5.597   1.358   3.358
 1388WAT     H1 4683   5.538   1.345   3.432
 1388WAT     H2 4684   5.597   1.274   3.311
 1389WAT      O 4685   5.560   1.095   3.253
 1389WAT     H1 4686   5.488   1.033   3.246
 1389WAT     H2 4687   5.566   1.134   3.166
 1390WAT      O 4688   5.921   1.316   2.931
 1390WAT     H1 4689   5.972   1.255   2.879
 1390WAT     H2 4690   5.986   1.366   2.980
 1391WAT      O 4691   6.195   1.405   3.014
 1391WAT     H1 4692   6.224   1.380   2.926
 1391WAT     H2 4693   6.246   1.350   3.073
 1392WAT      O 4694   5.389   1.426   2.574
 1392WAT     H1 4695   5.372   1.363   2.644
 1392WAT     H2 4696   5.302   1.447   2.539
 1393WAT      O 4697   5.549   1.296   2.318
 1393WAT     H1 4698   5.497   1.334   2.248
 1393WAT     H2 4699   5.542   1.358   2.390
 1394WAT      O 4700   6.202   1.497   3.751
 1394WAT     H1 4701   6.294   1.474   3.755
 1394WAT     H2 4702   6.200   1.580   3.703
 1395WAT      O 4703   5.809   1.491   2.206
 1395WAT     H1 4704   5.882   1.462   2.151
 1395WAT     H2 4705   5.835   1.467   2.295
 1396WAT      O 4706   5.725   1.102   2.206
 1396WAT     H1 4707   5.662   1.149   2.261
 1396WAT     H2 4708   5.737   1.018   2.250
 1397WAT      O 4709   6.471   0.507   0.821
 1397WAT     H1 4710   6.463   0.416   0.794
 1397WAT     H2 4711   6.430   0.557   0.751
 1398WAT      O 4712   6.284   0.685   1.009
 1398WAT     H1 4713   6.207   0.637   1.038
 1398WAT     H2 4714   6.349   0.617   0.992
 1399WAT      O 4715   5.686   0.716   1.097
 1399WAT     H1 4716   5.603   0.691   1.137
 1399WAT     H2 4717   5.747   0.723   1.171
 1400WAT      O 4718   5.684   1.120   1.117
 1400WAT     H1 4719   5.714   1.031   1.099
 1400WAT     H2 4720   5.758   1.175   1.094
 1401WAT      O 4721   5.527   0.212   0.475
 1401WAT     H1 4722   5.438   0.246   0.465
 1401WAT     H2 4723   5.555   0.192   0.386
 1402WAT      O 4724   5.323   0.472   1.064
 1402WAT     H1 4725   5.380   0.396   1.064
 1402WAT     H2 4726   5.323   0.502   0.973
 1403WAT      O 4727   6.309   1.354   0.849
 1403WAT     H1 4728   6.247   1.400   0.792
 1403WAT     H2 4729   6.394   1.370   0.809
 1404WAT      O 4730   6.228   0.953   1.010
 1404WAT     H1 4731   6.221   0.859   0.994
 1404WAT     H2 4732   6.304   0.962   1.067
 1405WAT      O 4733   5.509   0.263   1.103
 1405WAT     H1 4734   5.577   0.289   1.165
 1405WAT     H2 4735   5.478   0.179   1.137
 1406WAT      O 4736   5.928   0.367   1.012
 1406WAT     H1 4737   5.979   0.417   1.076
 1406WAT     H2 4738   5.981   0.290   0.995
 1407WAT      O 4739   6.395   0.843   0.589
 1407WAT     H1 4740   6.334   0.889   0.532
 1407WAT     H2 4741   6.447   0.912   0.630
 1408WAT      O 4742   5.882   0.795   1.256
 1408WAT     H1 4743   5.848   0.858   1.321
 1408WAT     H2 4744   5.899   0.848   1.179
 1409WAT      O 4745   5.803   0.992   1.438
 1409WAT     H1 4746   5.865   1.060   1.410
 1409WAT     H2 4747   5.717   1.033   1.429
 1410WAT      O 4748   5.332   0.911   0.326
 1410WAT     H1 4749   5.295   0.960   0.253
 1410WAT     H2 4750   5.358   0.978   0.389
 1411WAT      O 4751   6.332   0.558   0.546
 1411WAT     H1 4752   6.239   0.551   0.568
 1411WAT     H2 4753   6.347   0.652   0.534
 1412WAT      O 4754   6.331   0.185   0.245
 1412WAT     H1 4755   6.237   0.201   0.254
 1412WAT     H2 4756   6.362   0.257   0.191
 1413WAT      O 4757   5.893   0.610   0.824
 1413WAT     H1 4758   5.852   0.539   0.774
 1413WAT     H2 4759   5.901   0.576   0.913
 1414WAT      O 4760   5.939   0.979   1.040
 1414WAT     H1 4761   5.910   0.919   0.972
 1414WAT     H2 4762   6.034   0.983   1.029
 1415WAT      O 4763   5.764   0.288   1.202
 1415WAT     H1 4764   5.819   0.299   1.124
 1415WAT     H2 4765   5.815   0.325   1.273
 1416WAT      O 4766   5.849   0.953   1.705
 1416WAT     H1 4767   5.759   0.975   1.730
 1416WAT     H2 4768   5.851   0.965   1.610
 1417WAT      O 4769   6.553   0.638   0.297
 1417WAT     H1 4770   6.597   0.554   0.282
 1417WAT     H2 4771   6.624   0.701   0.305
 1418WAT      O 4772   5.731   0.640   1.563
 1418WAT     H1 4773   5.717   0.727   1.600
 1418WAT     H2 4774   5.643   0.606   1.548
 1419WAT      O 4775   6.364   1.132   0.693
 1419WAT     H1 4776   6.407   1.206   0.652
 1419WAT     H2 4777   6.357   1.156   0.786
 1420WAT      O 4778   5.911   1.234   1.784
 1420WAT     H1 4779   5.908   1.275   1.697
 1420WAT     H2 4780   5.895   1.141   1.767
 1421WAT      O 4781   5.563   0.500   0.574
 1421WAT     H1 4782   5.551   0.573   0.513
 1421WAT     H2 4783   5.532   0.423   0.526
 1422WAT      O 4784   5.326   0.817   1.154
 1422WAT     H1 4785   5.334   0.831   1.060
 1422WAT     H2 4786   5.388   0.746   1.174
 1423WAT      O 4787   5.451   0.987   0.796
 1423WAT     H1 4788   5.410   1.001   0.710
 1423WAT     H2 4789   5.540   0.959   0.775
 1424WAT      O 4790   6.433   1.402   1.486
 1424WAT     H1 4791   6.484   1.393   1.566
 1424WAT     H2 4792   6.348   1.437   1.515
 1425WAT      O 4793   5.878   1.409   0.607
 1425WAT     H1 4794   5.861   1.317   0.585
 1425WAT     H2 4795   5.793   1.444   0.631
 1426WAT      O 4796   6.557   1.344   0.692
 1426WAT     H1 4797   6.603   1.266   0.724
 1426WAT     H2 4798   6.591   1.415   0.747
 1427WAT      O 4799   5.332   0.921   1.408
 1427WAT     H1 4800   5.348   0.874   1.327
 1427WAT     H2 4801   5.379   0.870   1.475
 1428WAT      O 4802   6.447   0.393   1.795
 1428WAT     H1 4803   6.480   0.310   1.761
 1428WAT     H2 4804   6.526   0.445   1.810
 1429WAT      O 4805   5.788   0.347   0.685
 1429WAT     H1 4806   5.766   0.325   0.775
 1429WAT     H2 4807   5.710   0.390   0.650
 1430WAT      O 4808   6.511   0.347   0.545
 1430WAT     H1 4809   6.451   0.420   0.526
 1430WAT     H2 4810   6.566   0.341   0.466
 1431WAT      O 4811   6.032   0.436   1.751
 1431WAT     H1 4812   6.023   0.342   1.736
 1431WAT     H2 4813   6.117   0.459   1.712
 1432WAT      O 4814   6.431   0.470   1.157
 1432WAT     H1 4815   6.357   0.521   1.192
 1432WAT     H2 4816   6.391   0.388   1.127
 1433WAT      O 4817   6.080   0.238   0.297
 1433WAT     H1 4818   6.093   0.233   0.392
 1433WAT     H2 4819   6.042   0.324   0.281
 1434WAT      O 4820   5.982   0.469   0.237
 1434WAT     H1 4821   5.925   0.424   0.174
 1434WAT     H2 4822   6.053   0.505   0.183
 1435WAT      O 4823   5.489   0.859   1.624
 1435WAT     H1 4824   5.451   0.795   1.684
 1435WAT     H2 4825   5.521   0.929   1.681
 1436WAT      O 4826   6.104   0.544   1.172
 1436WAT     H1 4827   6.141   0.496   1.247
 1436WAT     H2 4828   6.085   0.631   1.207
 1437WAT      O 4829   5.883   0.448   1.404
 1437WAT     H1 4830   5.853   0.536   1.427
 1437WAT     H2 4831   5.979   0.454   1.408
 1438WAT      O 4832   5.736   0.868   0.464
 1438WAT     H1 4833   5.659   0.814   0.448
 1438WAT     H2 4834   5.809   0.816   0.430
 1439WAT      O 4835   6.350   0.775   1.632
 1439WAT     H1 4836   6.344   0.683   1.606
 1439WAT     H2 4837   6.287   0.785   1.703
 1440WAT      O 4838   5.741   0.835   0.828
 1440WAT     H1 4839   5.792   0.755   0.822
 1440WAT     H2 4840   5.695   0.829   0.912
 1441WAT      O 4841   6.229   0.962   0.355
 1441WAT     H1 4842   6.263   1.036   0.305
 1441WAT     H2 4843   6.146   0.993   0.391
 1442WAT      O 4844   5.489   0.532   1.519
 1442WAT     H1 4845   5.453   0.598   1.578
 1442WAT     H2 4846   5.460   0.448   1.556
 1443WAT      O 4847   5.809   0.577   1.807
 1443WAT     H1 4848   5.779   0.592   1.718
 1443WAT     H2 4849   5.886   0.522   1.798
 1444WAT      O 4850   6.343   1.057   1.607
 1444WAT     H1 4851   6.345   0.964   1.585
 1444WAT     H2 4852   6.273   1.066   1.671
 1445WAT      O 4853   6.518   0.894   0.891
 1445WAT     H1 4854   6.553   0.834   0.825
 1445WAT     H2 4855   6.429   0.861   0.909
 1446WAT      O 4856   6.126   0.970   0.632
 1446WAT     H1 4857   6.195   1.024   0.670
 1446WAT     H2 4858   6.047   1.024   0.636
 1447WAT      O 4859   5.340   0.532   0.181
 1447WAT     H1 4860   5.427   0.560   0.210
 1447WAT     H2 4861   5.291   0.613   0.170
 1448WAT      O 4862   6.056   0.670   0.593
 1448WAT     H1 4863   6.102   0.751   0.616
 1448WAT     H2 4864   6.021   0.638   0.677
 1449WAT      O 4865   6.287   1.221   1.316
 1449WAT     H1 4866   6.351   1.242   1.384
 1449WAT     H2 4867   6.323   1.145   1.271
 1450WAT      O 4868   6.414   1.022   1.188
 1450WAT     H1 4869   6.478   0.952   1.199
 1450WAT     H2 4870   6.467   1.100   1.170
 1451WAT      O 4871   6.591   1.102   1.508
 1451WAT     H1 4872   6.625   1.160   1.576
 1451WAT     H2 4873   6.499   1.089   1.531
 1452WAT      O 4874   5.377   1.453   0.238
 1452WAT     H1 4875   5.413   1.513   0.173
 1452WAT     H2 4876   5.363   1.507   0.315
 1453WAT      O 4877   5.375   1.279   1.685
 1453WAT     H1 4878   5.386   1.185   1.671
 1453WAT     H2 4879   5.310   1.306   1.621
 1454WAT      O 4880   6.174   1.107   1.825
 1454WAT     H1 4881   6.142   1.035   1.880
 1454WAT     H2 4882   6.107   1.174   1.833
 1455WAT      O 4883   5.978   1.191   0.320
 1455WAT     H1 4884   5.978   1.264   0.258
 1455WAT     H2 4885   5.886   1.166   0.329
 1456WAT      O 4886   5.539   0.713   0.394
 1456WAT     H1 4887   5.478   0.787   0.395
 1456WAT     H2 4888   5.586   0.722   0.312
 1457WAT      O 4889   6.029   0.253   0.584
 1457WAT     H1 4890   5.958   0.300   0.628
 1457WAT     H2 4891   6.058   0.187   0.648
 1458WAT      O 4892   6.192   0.395   1.384
 1458WAT     H1 4893   6.242   0.443   1.451
 1458WAT     H2 4894   6.206   0.303   1.405
 1459WAT      O 4895   6.141   1.449   0.655
 1459WAT     H1 4896   6.167   1.445   0.563
 1459WAT     H2 4897   6.046   1.437   0.655
 1460WAT      O 4898   5.609   0.453   0.237
 1460WAT     H1 4899   5.617   0.358   0.249
 1460WAT     H2 4900   5.698   0.486   0.248
 1461WAT      O 4901   5.689   1.468   0.948
 1461WAT     H1 4902   5.763   1.413   0.975
 1461WAT     H2 4903   5.728   1.554   0.934
 1462WAT      O 4904   5.378   1.074   0.535
 1462WAT     H1 4905   5.285   1.099   0.534
 1462WAT     H2 4906   5.424   1.157   0.523
 1463WAT      O 4907   5.590   1.386   1.867
 1463WAT     H1 4908   5.670   1.418   1.908
 1463WAT     H2 4909   5.538   1.350   1.939
 1464WAT      O 4910   6.473   0.997   1.861
 1464WAT     H1 4911   6.413   0.999   1.787
 1464WAT     H2 4912   6.443   0.924   1.915
 1465WAT      O 4913   5.362   0.635   1.761
 1465WAT     H1 4914   5.412   0.577   1.818
 1465WAT     H2 4915   5.288   0.663   1.815
 1466WAT      O 4916   6.067   0.775   1.714
 1466WAT     H1 4917   5.991   0.832   1.706
 1466WAT     H2 4918   6.085   0.746   1.625
 1467WAT      O 4919   6.376   0.813   0.177
 1467WAT     H1 4920   6.321   0.858   0.241
 1467WAT     H2 4921   6.438   0.763   0.229
 1468WAT      O 4922   5.565   0.449   1.850
 1468WAT     H1 4923   5.569   0.419   1.941
 1468WAT     H2 4924   5.650   0.489   1.835
 1469WAT      O 4925   5.943   0.709   0.366
 1469WAT     H1 4926   5.985   0.692   0.451
 1469WAT     H2 4927   5.955   0.628   0.317
 1470WAT      O 4928   5.759   0.307   1.647
 1470WAT     H1 4929   5.706   0.258   1.584
 1470WAT     H2 4930   5.826   0.350   1.594
 1471WAT      O 4931   6.125   0.749   1.421
 1471WAT     H1 4932   6.167   0.833   1.403
 1471WAT     H2 4933   6.033   0.763   1.398
 1472WAT      O 4934   6.359   0.522   1.559
 1472WAT     H1 4935   6.371   0.462   1.633
 1472WAT     H2 4936   6.445   0.526   1.517
 1473WAT      O 4937   5.910   1.379   1.532
 1473WAT     H1 4938   5.856   1.452   1.500
 1473WAT     H2 4939   5.935   1.332   1.453
 1474WAT      O 4940   6.196   1.503   1.558
 1474WAT     H1 4941   6.188   1.593   1.589
 1474WAT     H2 4942   6.105   1.471   1.555
 1475WAT      O 4943   6.251   1.420   0.320
 1475WAT     H1 4944   6.340   1.453   0.322
 1475WAT     H2 4945   6.254   1.347   0.258
 1476WAT      O 4946   5.336   1.236   0.888
 1476WAT     H1 4947   5.369   1.149   0.865
 1476WAT     H2 4948   5.379   1.256   0.971
 1477WAT      O 4949   5.796   1.069   0.654
 1477WAT     H1 4950   5.766   1.056   0.744
 1477WAT     H2 4951   5.785   0.983   0.614
 1478WAT      O 4952   5.385   1.322   1.162
 1478WAT     H1 4953   5.341   1.340   1.245
 1478WAT     H2 4954   5.442   1.398   1.148
 1479WAT      O 4955   5.368   0.574   0.798
 1479WAT     H1 4956   5.303   0.547   0.734
 1479WAT     H2 4957   5.452   0.563   0.753
 1480WAT      O 4958   5.472   0.612   1.252
 1480WAT     H1 4959   5.509   0.603   1.340
 1480WAT     H2 4960   5.415   0.536   1.242
 1481WAT      O 4961   5.427   0.303   1.643
 1481WAT     H1 4962   5.338   0.300   1.677
 1481WAT     H2 4963   5.481   0.323   1.719
 1482WAT      O 4964   5.289   0.295   0.392
 1482WAT     H1 4965   5.199   0.321   0.375
 1482WAT     H2 4966   5.338   0.322   0.314
 1483WAT      O 4967   5.613   1.063   1.768
 1483WAT     H1 4968   5.609   1.026   1.856
 1483WAT     H2 4969   5.627   1.157   1.782
 1484WAT      O 4970   5.983   1.219   1.328
 1484WAT     H1 4971   5.959   1.246   1.240
 1484WAT     H2 4972   6.077   1.236   1.334
 1485WAT      O 4973   5.597   1.358   1.480
 1485WAT     H1 4974   5.538   1.345   1.554
 1485WAT     H2 4975   5.597   1.274   1.434
 1486WAT      O 4976   5.560   1.095   1.375
 1486WAT     H1 4977   5.488   1.033   1.369
 1486WAT     H2 4978   5.566   1.134   1.288
 1487WAT      O 4979   5.921   1.316   1.054
 1487WAT     H1 4980   5.972   1.255   1.001
 1487WAT     H2 4981   5.986   1.366   1.103
 1488WAT      O 4982   6.195   1.405   1.137
 1488WAT     H1 4983   6.224   1.380   1.049
 1488WAT     H2 4984   6.246   1.350   1.196
 1489WAT      O 4985   5.389   1.426   0.696
 1489WAT     H1 4986   5.372   1.363   0.766
 1489WAT     H2 4987   5.302   1.447   0.661
 1490WAT      O 4988   5.549   1.296   0.441
 1490WAT     H1 4989   5.497   1.334   0.370
 1490WAT     H2 4990   5.542   1.358   0.513
 1491WAT      O 4991   6.202   1.497   1.873
 1491WAT     H1 4992   6.294   1.474   1.878
 1491WAT     H2 4993   6.200   1.580   1.825
 1492WAT      O 4994   5.809   1.491   0.328
 1492WAT     H1 4995   5.882   1.462   0.274
 1492WAT     H2 4996   5.835   1.467   0.417
 1493WAT      O 4997   5.725   1.102   0.329
 1493WAT     H1 4998   5.662   1.149   0.384
 1493WAT     H2 4999   5.737   1.018   0.372
 1494WAT      O 5000   4.593   6.140   4.576
 1494WAT     H1 5001   4.585   6.048   4.549
 1494WAT     H2 5002   4.552   6.189   4.505
 1495WAT      O 5003   4.407   6.317   4.764
 1495WAT     H1 5004   4.329   6.269   4.793
 1495WAT     H2 5005   4.472   6.249   4.747
 1496WAT      O 5006   3.808   6.349   4.852
 1496WAT     H1 5007   3.725   6.323   4.892
 1496WAT     H2 5008   3.869   6.356   4.926
 1497WAT      O 5009   3.649   5.845   4.230
 1497WAT     H1 5010   3.560   5.879   4.220
 1497WAT     H2 5011   3.678   5.825   4.141
 1498WAT      O 5012   3.446   6.105   4.819
 1498WAT     H1 5013   3.503   6.028   4.819
 1498WAT     H2 5014   3.446   6.135   4.728
 1499WAT      O 5015   4.351   6.585   4.765
 1499WAT     H1 5016   4.344   6.491   4.749
 1499WAT     H2 5017   4.427   6.594   4.822
 1500WAT      O 5018   3.570   5.645   4.997
 1500WAT     H1 5019   3.552   5.556   5.025
 1500WAT     H2 5020   3.530   5.700   5.065
 1501WAT      O 5021   4.454   5.866   4.788
 1501WAT     H1 5022   4.491   5.778   4.776
 1501WAT     H2 5023   4.444   5.899   4.698
 1502WAT      O 5024   3.867   5.703   4.334
 1502WAT     H1 5025   3.878   5.793   4.364
 1502WAT     H2 5026   3.776   5.698   4.305
 1503WAT      O 5027   4.832   5.615   4.481
 1503WAT     H1 5028   4.914   5.566   4.485
 1503WAT     H2 5029   4.835   5.674   4.556
 1504WAT      O 5030   3.632   5.895   4.858
 1504WAT     H1 5031   3.700   5.921   4.920
 1504WAT     H2 5032   3.600   5.811   4.892
 1505WAT      O 5033   4.051   6.000   4.767
 1505WAT     H1 5034   4.102   6.050   4.831
 1505WAT     H2 5035   4.104   5.922   4.749
 1506WAT      O 5036   5.261   5.817   5.137
 1506WAT     H1 5037   5.191   5.856   5.085
 1506WAT     H2 5038   5.288   5.886   5.197
 1507WAT      O 5039   3.879   5.464   5.194
 1507WAT     H1 5040   3.879   5.515   5.113
 1507WAT     H2 5041   3.796   5.416   5.191
 1508WAT      O 5042   4.518   6.475   4.344
 1508WAT     H1 5043   4.456   6.521   4.287
 1508WAT     H2 5044   4.569   6.544   4.385
 1509WAT      O 5045   4.004   6.428   5.011
 1509WAT     H1 5046   3.971   6.490   5.076
 1509WAT     H2 5047   4.022   6.480   4.933
 1510WAT      O 5048   4.856   5.809   4.758
 1510WAT     H1 5049   4.785   5.838   4.816
 1510WAT     H2 5050   4.892   5.890   4.722
 1511WAT      O 5051   3.847   5.635   4.994
 1511WAT     H1 5052   3.882   5.719   4.965
 1511WAT     H2 5053   3.754   5.650   5.006
 1512WAT      O 5054   3.455   6.543   4.081
 1512WAT     H1 5055   3.417   6.592   4.008
 1512WAT     H2 5056   3.481   6.611   4.144
 1513WAT      O 5057   5.163   5.754   4.797
 1513WAT     H1 5058   5.068   5.757   4.810
 1513WAT     H2 5059   5.195   5.835   4.836
 1514WAT      O 5060   4.216   5.384   4.627
 1514WAT     H1 5061   4.246   5.328   4.555
 1514WAT     H2 5062   4.123   5.397   4.609
 1515WAT      O 5063   4.711   6.446   4.989
 1515WAT     H1 5064   4.752   6.424   4.905
 1515WAT     H2 5065   4.783   6.471   5.046
 1516WAT      O 5066   4.455   6.190   4.300
 1516WAT     H1 5067   4.362   6.184   4.323
 1516WAT     H2 5068   4.470   6.284   4.289
 1517WAT      O 5069   4.453   5.817   4.000
 1517WAT     H1 5070   4.359   5.833   4.009
 1517WAT     H2 5071   4.485   5.889   3.945
 1518WAT      O 5072   5.105   6.285   4.998
 1518WAT     H1 5073   5.023   6.292   4.950
 1518WAT     H2 5074   5.165   6.344   4.951
 1519WAT      O 5075   4.857   6.346   4.351
 1519WAT     H1 5076   4.796   6.313   4.286
 1519WAT     H2 5077   4.856   6.282   4.422
 1520WAT      O 5078   4.802   5.964   5.092
 1520WAT     H1 5079   4.760   6.047   5.118
 1520WAT     H2 5080   4.729   5.906   5.073
 1521WAT      O 5081   4.015   6.243   4.579
 1521WAT     H1 5082   3.975   6.172   4.529
 1521WAT     H2 5083   4.024   6.208   4.667
 1522WAT      O 5084   4.062   6.611   4.795
 1522WAT     H1 5085   4.032   6.551   4.727
 1522WAT     H2 5086   4.157   6.615   4.784
 1523WAT      O 5087   3.886   5.920   4.957
 1523WAT     H1 5088   3.942   5.931   4.879
 1523WAT     H2 5089   3.938   5.958   5.028
 1524WAT      O 5090   3.971   6.585   5.460
 1524WAT     H1 5091   3.881   6.608   5.485
 1524WAT     H2 5092   3.974   6.598   5.365
 1525WAT      O 5093   4.675   6.270   4.051
 1525WAT     H1 5094   4.719   6.186   4.037
 1525WAT     H2 5095   4.746   6.334   4.060
 1526WAT      O 5096   3.854   6.272   5.318
 1526WAT     H1 5097   3.840   6.360   5.354
 1526WAT     H2 5098   3.766   6.238   5.303
 1527WAT      O 5099   5.033   5.396   3.883
 1527WAT     H1 5100   5.002   5.405   3.973
 1527WAT     H2 5101   5.109   5.453   3.878
 1528WAT      O 5102   3.685   6.132   4.329
 1528WAT     H1 5103   3.673   6.205   4.267
 1528WAT     H2 5104   3.654   6.055   4.281
 1529WAT      O 5105   3.449   6.449   4.909
 1529WAT     H1 5106   3.457   6.463   4.815
 1529WAT     H2 5107   3.510   6.379   4.929
 1530WAT      O 5108   3.573   6.619   4.550
 1530WAT     H1 5109   3.533   6.634   4.465
 1530WAT     H2 5110   3.663   6.591   4.530
 1531WAT      O 5111   5.154   5.869   5.481
 1531WAT     H1 5112   5.093   5.920   5.428
 1531WAT     H2 5113   5.122   5.779   5.475
 1532WAT      O 5114   3.455   6.554   5.163
 1532WAT     H1 5115   3.471   6.507   5.081
 1532WAT     H2 5116   3.501   6.503   5.230
 1533WAT      O 5117   3.932   5.467   4.667
 1533WAT     H1 5118   3.887   5.545   4.634
 1533WAT     H2 5119   3.988   5.499   4.738
 1534WAT      O 5120   4.360   5.753   5.227
 1534WAT     H1 5121   4.314   5.774   5.308
 1534WAT     H2 5122   4.320   5.672   5.197
 1535WAT      O 5123   4.861   5.875   5.340
 1535WAT     H1 5124   4.775   5.845   5.372
 1535WAT     H2 5125   4.845   5.900   5.249
 1536WAT      O 5126   4.570   6.025   5.550
 1536WAT     H1 5127   4.603   5.942   5.516
 1536WAT     H2 5128   4.649   6.078   5.565
 1537WAT      O 5129   4.243   5.429   4.155
 1537WAT     H1 5130   4.181   5.428   4.227
 1537WAT     H2 5131   4.235   5.342   4.115
 1538WAT      O 5132   4.136   5.521   4.853
 1538WAT     H1 5133   4.165   5.612   4.845
 1538WAT     H2 5134   4.190   5.472   4.791
 1539WAT      O 5135   3.911   5.979   4.440
 1539WAT     H1 5136   3.888   5.957   4.530
 1539WAT     H2 5137   3.833   6.022   4.405
 1540WAT      O 5138   4.634   5.980   4.300
 1540WAT     H1 5139   4.574   6.052   4.281
 1540WAT     H2 5140   4.689   5.973   4.221
 1541WAT      O 5141   4.155   6.069   5.506
 1541WAT     H1 5142   4.145   5.975   5.491
 1541WAT     H2 5143   4.239   6.091   5.467
 1542WAT      O 5144   4.495   5.843   4.503
 1542WAT     H1 5145   4.534   5.875   4.421
 1542WAT     H2 5146   4.531   5.755   4.514
 1543WAT      O 5147   3.668   5.710   5.322
 1543WAT     H1 5148   3.629   5.795   5.342
 1543WAT     H2 5149   3.599   5.646   5.341
 1544WAT      O 5150   3.398   5.502   4.725
 1544WAT     H1 5151   3.369   5.559   4.796
 1544WAT     H2 5152   3.473   5.454   4.761
 1545WAT      O 5153   3.417   5.896   3.846
 1545WAT     H1 5154   3.409   5.991   3.860
 1545WAT     H2 5155   3.382   5.882   3.758
 1546WAT      O 5156   4.553   6.102   4.912
 1546WAT     H1 5157   4.480   6.153   4.947
 1546WAT     H2 5158   4.513   6.021   4.882
 1547WAT      O 5159   4.197   5.770   4.753
 1547WAT     H1 5160   4.197   5.726   4.668
 1547WAT     H2 5161   4.286   5.802   4.763
 1548WAT      O 5162   3.782   5.758   4.649
 1548WAT     H1 5163   3.748   5.806   4.724
 1548WAT     H2 5164   3.706   5.713   4.613
 1549WAT      O 5165   4.203   5.870   4.052
 1549WAT     H1 5166   4.215   5.866   4.147
 1549WAT     H2 5167   4.165   5.956   4.036
 1550WAT      O 5168   4.599   5.648   4.853
 1550WAT     H1 5169   4.601   5.693   4.938
 1550WAT     H2 5170   4.574   5.558   4.875
 1551WAT      O 5171   4.104   6.101   3.992
 1551WAT     H1 5172   4.047   6.056   3.929
 1551WAT     H2 5173   4.175   6.137   3.938
 1552WAT      O 5174   4.942   5.389   5.437
 1552WAT     H1 5175   4.975   5.316   5.490
 1552WAT     H2 5176   4.946   5.357   5.347
 1553WAT      O 5177   3.612   6.491   5.379
 1553WAT     H1 5178   3.574   6.427   5.439
 1553WAT     H2 5179   3.643   6.561   5.436
 1554WAT      O 5180   4.227   6.176   4.927
 1554WAT     H1 5181   4.264   6.128   5.002
 1554WAT     H2 5182   4.208   6.263   4.961
 1555WAT      O 5183   3.513   5.650   4.540
 1555WAT     H1 5184   3.485   5.614   4.624
 1555WAT     H2 5185   3.507   5.577   4.479
 1556WAT      O 5186   4.006   6.080   5.159
 1556WAT     H1 5187   3.976   6.168   5.182
 1556WAT     H2 5188   4.101   6.086   5.163
 1557WAT      O 5189   3.859   6.501   4.219
 1557WAT     H1 5190   3.781   6.446   4.203
 1557WAT     H2 5191   3.932   6.449   4.185
 1558WAT      O 5192   4.935   6.400   4.798
 1558WAT     H1 5193   5.007   6.450   4.759
 1558WAT     H2 5194   4.914   6.332   4.734
 1559WAT      O 5195   4.481   5.540   4.212
 1559WAT     H1 5196   4.399   5.490   4.205
 1559WAT     H2 5197   4.461   5.624   4.171
 1560WAT      O 5198   4.473   6.407   5.387
 1560WAT     H1 5199   4.466   6.315   5.361
 1560WAT     H2 5200   4.410   6.417   5.458
 1561WAT      O 5201   4.752   5.977   4.042
 1561WAT     H1 5202   4.841   6.008   4.025
 1561WAT     H2 5203   4.749   5.889   4.003
 1562WAT      O 5204   3.863   6.467   4.583
 1562WAT     H1 5205   3.915   6.387   4.577
 1562WAT     H2 5206   3.818   6.461   4.667
 1563WAT      O 5207   3.612   6.164   5.274
 1563WAT     H1 5208   3.576   6.230   5.333
 1563WAT     H2 5209   3.582   6.081   5.311
 1564WAT      O 5210   3.932   6.210   5.562
 1564WAT     H1 5211   3.902   6.224   5.473
 1564WAT     H2 5212   4.009   6.154   5.553
 1565WAT      O 5213   4.979   6.108   3.989
 1565WAT     H1 5214   4.971   6.151   3.904
 1565WAT     H2 5215   5.051   6.154   4.032
 1566WAT      O 5216   5.087   6.354   5.297
 1566WAT     H1 5217   5.015   6.413   5.277
 1566WAT     H2 5218   5.140   6.353   5.217
 1567WAT      O 5219   4.640   6.526   4.646
 1567WAT     H1 5220   4.675   6.466   4.580
 1567WAT     H2 5221   4.552   6.494   4.663
 1568WAT      O 5222   3.463   6.164   3.936
 1568WAT     H1 5223   3.550   6.192   3.965
 1568WAT     H2 5224   3.414   6.245   3.925
 1569WAT      O 5225   4.179   6.303   4.348
 1569WAT     H1 5226   4.225   6.384   4.371
 1569WAT     H2 5227   4.144   6.271   4.431
 1570WAT      O 5228   3.769   5.337   4.396
 1570WAT     H1 5229   3.756   5.336   4.490
 1570WAT     H2 5230   3.687   5.371   4.360
 1571WAT      O 5231   3.469   5.513   5.342
 1571WAT     H1 5232   3.398   5.533   5.402
 1571WAT     H2 5233   3.511   5.435   5.379
 1572WAT      O 5234   4.879   6.474   4.082
 1572WAT     H1 5235   4.851   6.520   4.160
 1572WAT     H2 5236   4.959   6.428   4.108
 1573WAT      O 5237   3.661   6.346   4.149
 1573WAT     H1 5238   3.600   6.420   4.150
 1573WAT     H2 5239   3.709   6.355   4.066
 1574WAT      O 5240   4.618   5.762   5.117
 1574WAT     H1 5241   4.655   5.680   5.149
 1574WAT     H2 5242   4.532   5.768   5.158
 1575WAT      O 5243   4.955   5.658   4.197
 1575WAT     H1 5244   4.892   5.668   4.126
 1575WAT     H2 5245   4.906   5.680   4.276
 1576WAT      O 5246   4.152   5.886   4.339
 1576WAT     H1 5247   4.081   5.932   4.383
 1576WAT     H2 5248   4.180   5.820   4.403
 1577WAT      O 5249   4.314   6.027   5.139
 1577WAT     H1 5250   4.364   6.075   5.206
 1577WAT     H2 5251   4.329   5.935   5.160
 1578WAT      O 5252   4.555   5.558   4.483
 1578WAT     H1 5253   4.543   5.560   4.388
 1578WAT     H2 5254   4.650   5.563   4.495
 1579WAT      O 5255   3.972   5.716   4.077
 1579WAT     H1 5256   4.057   5.760   4.070
 1579WAT     H2 5257   3.936   5.748   4.159
 1580WAT      O 5258   5.035   5.649   5.223
 1580WAT     H1 5259   4.985   5.723   5.257
 1580WAT     H2 5260   5.117   5.688   5.192
 1581WAT      O 5261   4.864   6.173   4.568
 1581WAT     H1 5262   4.770   6.175   4.585
 1581WAT     H2 5263   4.896   6.095   4.612
 1582WAT      O 5264   3.862   6.342   3.924
 1582WAT     H1 5265   3.939   6.330   3.980
 1582WAT     H2 5266   3.870   6.272   3.859
 1583WAT      O 5267   3.732   6.085   3.992
 1583WAT     H1 5268   3.740   5.990   4.003
 1583WAT     H2 5269   3.821   6.118   4.003
 1584WAT      O 5270   4.175   6.539   3.871
 1584WAT     H1 5271   4.164   6.478   3.944
 1584WAT     H2 5272   4.158   6.487   3.793
 1585WAT      O 5273   4.190   6.408   5.469
 1585WAT     H1 5274   4.113   6.465   5.461
 1585WAT     H2 5275   4.208   6.379   5.380
 1586WAT      O 5276   4.499   6.445   3.932
 1586WAT     H1 5277   4.444   6.490   3.996
 1586WAT     H2 5278   4.561   6.395   3.984
 1587WAT      O 5279   4.904   6.581   5.525
 1587WAT     H1 5280   4.978   6.615   5.475
 1587WAT     H2 5281   4.828   6.598   5.470
 1588WAT      O 5282   4.065   6.341   4.121
 1588WAT     H1 5283   4.108   6.325   4.206
 1588WAT     H2 5284   4.078   6.260   4.072
 1589WAT      O 5285   3.882   5.939   5.402
 1589WAT     H1 5286   3.829   5.890   5.339
 1589WAT     H2 5287   3.949   5.982   5.349
 1590WAT      O 5288   4.317   6.244   3.846
 1590WAT     H1 5289   4.369   6.172   3.810
 1590WAT     H2 5290   4.381   6.308   3.876
 1591WAT      O 5291   4.771   6.386   5.378
 1591WAT     H1 5292   4.813   6.401   5.463
 1591WAT     H2 5293   4.678   6.399   5.395
 1592WAT      O 5294   3.930   5.636   5.410
 1592WAT     H1 5295   3.921   5.574   5.338
 1592WAT     H2 5296   3.872   5.709   5.387
 1593WAT      O 5297   4.207   5.492   5.113
 1593WAT     H1 5298   4.162   5.494   5.029
 1593WAT     H2 5299   4.144   5.452   5.173
 1594WAT      O 5300   4.248   6.381   5.175
 1594WAT     H1 5301   4.289   6.466   5.158
 1594WAT     H2 5302   4.156   6.395   5.153
 1595WAT      O 5303   4.481   6.154   5.314
 1595WAT     H1 5304   4.493   6.095   5.388
 1595WAT     H2 5305   4.567   6.158   5.272
 1596WAT      O 5306   4.715   6.210   5.171
 1596WAT     H1 5307   4.662   6.262   5.111
 1596WAT     H2 5308   4.749   6.273   5.235
 1597WAT      O 5309   3.955   5.949   3.816
 1597WAT     H1 5310   3.935   5.862   3.852
 1597WAT     H2 5311   3.938   5.940   3.722
 1598WAT      O 5312   4.158   5.809   5.440
 1598WAT     H1 5313   4.217   5.778   5.508
 1598WAT     H2 5314   4.076   5.761   5.455
 1599WAT      O 5315   4.640   5.770   5.463
 1599WAT     H1 5316   4.571   5.704   5.456
 1599WAT     H2 5317   4.712   5.726   5.507
 1600WAT      O 5318   4.703   5.430   4.069
 1600WAT     H1 5319   4.731   5.345   4.104
 1600WAT     H2 5320   4.625   5.453   4.120
 1601WAT      O 5321   3.835   5.659   3.815
 1601WAT     H1 5322   3.865   5.659   3.724
 1601WAT     H2 5323   3.909   5.624   3.864
 1602WAT      O 5324   4.157   5.553   3.913
 1602WAT     H1 5325   4.122   5.485   3.855
 1602WAT     H2 5326   4.177   5.507   3.995
 1603WAT      O 5327   3.737   6.589   3.898
 1603WAT     H1 5328   3.781   6.643   3.964
 1603WAT     H2 5329   3.786   6.507   3.899
 1604WAT      O 5330   5.141   6.354   4.130
 1604WAT     H1 5331   5.217   6.410   4.140
 1604WAT     H2 5332   5.142   6.297   4.207
 1605WAT      O 5333   3.491   6.206   4.553
 1605WAT     H1 5334   3.425   6.179   4.489
 1605WAT     H2 5335   3.574   6.195   4.508
 1606WAT      O 5336   5.241   6.439   4.614
 1606WAT     H1 5337   5.278   6.361   4.574
 1606WAT     H2 5338   5.305   6.508   4.596
 1607WAT      O 5339   4.940   6.577   5.156
 1607WAT     H1 5340   4.858   6.620   5.182
 1607WAT     H2 5341   4.980   6.639   5.094
 1608WAT      O 5342   5.146   6.383   3.846
 1608WAT     H1 5343   5.173   6.474   3.833
 1608WAT     H2 5344   5.127   6.376   3.939
 1609WAT      O 5345   4.786   5.685   3.975
 1609WAT     H1 5346   4.827   5.667   3.891
 1609WAT     H2 5347   4.755   5.600   4.006
 1610WAT      O 5348   5.135   6.177   4.345
 1610WAT     H1 5349   5.098   6.100   4.302
 1610WAT     H2 5350   5.063   6.215   4.394
 1611WAT      O 5351   3.594   6.244   5.007
 1611WAT     H1 5352   3.631   6.236   5.095
 1611WAT     H2 5353   3.538   6.168   4.997
 1612WAT      O 5354   5.074   6.091   5.308
 1612WAT     H1 5355   5.051   6.068   5.218
 1612WAT     H2 5356   5.101   6.183   5.304
 1613WAT      O 5357   3.550   5.936   5.398
 1613WAT     H1 5358   3.460   5.932   5.431
 1613WAT     H2 5359   3.604   5.955   5.474
 1614WAT      O 5360   3.412   5.927   4.147
 1614WAT     H1 5361   3.322   5.953   4.130
 1614WAT     H2 5362   3.460   5.954   4.069
 1615WAT      O 5363   5.063   5.999   4.675
 1615WAT     H1 5364   5.115   5.950   4.612
 1615WAT     H2 5365   5.122   6.013   4.749
 1616WAT      O 5366   5.081   6.008   5.027
 1616WAT     H1 5367   4.986   6.004   5.039
 1616WAT     H2 5368   5.099   6.099   5.004
 1617WAT      O 5369   3.666   5.833   3.938
 1617WAT     H1 5370   3.737   5.790   3.890
 1617WAT     H2 5371   3.595   5.839   3.875
 1618WAT      O 5372   3.631   5.438   3.842
 1618WAT     H1 5373   3.703   5.492   3.874
 1618WAT     H2 5374   3.658   5.411   3.755
 1619WAT      O 5375   5.012   5.925   4.269
 1619WAT     H1 5376   5.062   5.902   4.347
 1619WAT     H2 5377   4.992   5.841   4.227
 1620WAT      O 5378   3.600   5.363   4.832
 1620WAT     H1 5379   3.665   5.308   4.788
 1620WAT     H2 5380   3.642   5.388   4.915
 1621WAT      O 5381   5.155   5.788   4.522
 1621WAT     H1 5382   5.144   5.773   4.616
 1621WAT     H2 5383   5.231   5.736   4.498
 1622WAT      O 5384   4.990   5.382   5.168
 1622WAT     H1 5385   5.053   5.444   5.205
 1622WAT     H2 5386   5.004   5.386   5.074
 1623WAT      O 5387   5.244   5.572   3.846
 1623WAT     H1 5388   5.336   5.558   3.825
 1623WAT     H2 5389   5.242   5.579   3.942
 1624WAT      O 5390   5.251   5.649   4.109
 1624WAT     H1 5391   5.172   5.642   4.162
 1624WAT     H2 5392   5.272   5.742   4.108
 1625WAT      O 5393   3.575   5.379   5.107
 1625WAT     H1 5394   3.540   5.424   5.183
 1625WAT     H2 5395   3.542   5.289   5.115
 1626WAT      O 5396   4.327   5.498   5.459
 1626WAT     H1 5397   4.320   5.557   5.534
 1626WAT     H2 5398   4.421   5.487   5.444
 1627WAT      O 5399   4.590   5.463   5.423
 1627WAT     H1 5400   4.652   5.495   5.357
 1627WAT     H2 5401   4.645   5.415   5.485
 1628WAT      O 5402   3.643   5.331   5.434
 1628WAT     H1 5403   3.697   5.313   5.358
 1628WAT     H2 5404   3.649   5.252   5.488
 1629WAT      O 5405   4.664   5.320   5.055
 1629WAT     H1 5406   4.577   5.353   5.035
 1629WAT     H2 5407   4.653   5.272   5.138
 1630WAT      O 5408   4.755   5.540   5.194
 1630WAT     H1 5409   4.722   5.459   5.156
 1630WAT     H2 5410   4.850   5.536   5.182
 1631WAT      O 5411   4.439   5.411   4.949
 1631WAT     H1 5412   4.361   5.459   4.977
 1631WAT     H2 5413   4.410   5.321   4.938
 1632WAT      O 5414   4.894   5.482   4.754
 1632WAT     H1 5415   4.938   5.476   4.669
 1632WAT     H2 5416   4.867   5.573   4.761
 1633WAT      O 5417   5.081   5.445   4.555
 1633WAT     H1 5418   5.075   5.350   4.540
 1633WAT     H2 5419   5.159   5.456   4.609
 1634WAT      O 5420   3.574   5.442   4.201
 1634WAT     H1 5421   3.649   5.453   4.144
 1634WAT     H2 5422   3.527   5.526   4.197
 1635WAT      O 5423   4.228   5.653   4.501
 1635WAT     H1 5424   4.146   5.616   4.466
 1635WAT     H2 5425   4.278   5.578   4.531
 1636WAT      O 5426   4.678   5.320   4.624
 1636WAT     H1 5427   4.738   5.377   4.672
 1636WAT     H2 5428   4.604   5.376   4.602
 1637WAT      O 5429   4.992   5.360   4.152
 1637WAT     H1 5430   5.012   5.450   4.178
 1637WAT     H2 5431   4.914   5.337   4.201
 1638WAT      O 5432   3.811   5.495   4.056
 1638WAT     H1 5433   3.864   5.416   4.043
 1638WAT     H2 5434   3.874   5.562   4.079
 1639WAT      O 5435   4.030   5.468   4.361
 1639WAT     H1 5436   3.967   5.398   4.378
 1639WAT     H2 5437   3.976   5.544   4.339
 1640WAT      O 5438   4.593   6.140   2.699
 1640WAT     H1 5439   4.585   6.048   2.672
 1640WAT     H2 5440   4.552   6.189   2.628
 1641WAT      O 5441   4.407   6.317   2.887
 1641WAT     H1 5442   4.329   6.269   2.916
 1641WAT     H2 5443   4.472   6.249   2.869
 1642WAT      O 5444   3.808   6.349   2.974
 1642WAT     H1 5445   3.725   6.323   3.014
 1642WAT     H2 5446   3.869   6.356   3.048
 1643WAT      O 5447   3.649   5.845   2.353
 1643WAT     H1 5448   3.560   5.879   2.343
 1643WAT     H2 5449   3.678   5.825   2.264
 1644WAT      O 5450   3.446   6.105   2.941
 1644WAT     H1 5451   3.503   6.028   2.941
 1644WAT     H2 5452   3.446   6.135   2.850
 1645WAT      O 5453   4.351   6.585   2.887
 1645WAT     H1 5454   4.344   6.491   2.871
 1645WAT     H2 5455   4.427   6.594   2.945
 1646WAT      O 5456   3.570   5.645   3.120
 1646WAT     H1 5457   3.552   5.556   3.148
 1646WAT     H2 5458   3.530   5.700   3.187
 1647WAT      O 5459   4.454   5.866   2.910
 1647WAT     H1 5460   4.491   5.778   2.899
 1647WAT     H2 5461   4.444   5.899   2.821
 1648WAT      O 5462   3.867   5.703   2.456
 1648WAT     H1 5463   3.878   5.793   2.487
 1648WAT     H2 5464   3.776   5.698   2.427
 1649WAT      O 5465   4.832   5.615   2.603
 1649WAT     H1 5466   4.914   5.566   2.608
 1649WAT     H2 5467   4.835   5.674   2.679
 1650WAT      O 5468   3.632   5.895   2.981
 1650WAT     H1 5469   3.700   5.921   3.043
 1650WAT     H2 5470   3.600   5.811   3.014
 1651WAT      O 5471   4.051   6.000   2.890
 1651WAT     H1 5472   4.102   6.050   2.954
 1651WAT     H2 5473   4.104   5.922   2.872
 1652WAT      O 5474   5.261   5.817   3.260
 1652WAT     H1 5475   5.191   5.856   3.208
 1652WAT     H2 5476   5.288   5.886   3.320
 1653WAT      O 5477   3.879   5.464   3.316
 1653WAT     H1 5478   3.879   5.515   3.236
 1653WAT     H2 5479   3.796   5.416   3.314
 1654WAT      O 5480   4.518   6.475   2.466
 1654WAT     H1 5481   4.456   6.521   2.410
 1654WAT     H2 5482   4.569   6.544   2.508
 1655WAT      O 5483   4.004   6.428   3.134
 1655WAT     H1 5484   3.971   6.490   3.198
 1655WAT     H2 5485   4.022   6.480   3.056
 1656WAT      O 5486   4.856   5.809   2.881
 1656WAT     H1 5487   4.785   5.838   2.939
 1656WAT     H2 5488   4.892   5.890   2.845
 1657WAT      O 5489   3.847   5.635   3.117
 1657WAT     H1 5490   3.882   5.719   3.087
 1657WAT     H2 5491   3.754   5.650   3.129
 1658WAT      O 5492   3.455   6.543   2.203
 1658WAT     H1 5493   3.417   6.592   2.130
 1658WAT     H2 5494   3.481   6.611   2.267
 1659WAT      O 5495   5.163   5.754   2.920
 1659WAT     H1 5496   5.068   5.757   2.933
 1659WAT     H2 5497   5.195   5.835   2.958
 1660WAT      O 5498   4.216   5.384   2.749
 1660WAT     H1 5499   4.246   5.328   2.678
 1660WAT     H2 5500   4.123   5.397   2.731
 1661WAT      O 5501   4.711   6.446   3.111
 1661WAT     H1 5502   4.752   6.424   3.028
 1661WAT     H2 5503   4.783   6.471   3.168
 1662WAT      O 5504   4.455   6.190   2.423
 1662WAT     H1 5505   4.362   6.184   2.446
 1662WAT     H2 5506   4.470   6.284   2.411
 1663WAT      O 5507   4.453   5.817   2.123
 1663WAT     H1 5508   4.359   5.833   2.131
 1663WAT     H2 5509   4.485   5.889   2.068
 1664WAT      O 5510   5.105   6.285   3.120
 1664WAT     H1 5511   5.023   6.292   3.073
 1664WAT     H2 5512   5.165   6.344   3.074
 1665WAT      O 5513   4.857   6.346   2.473
 1665WAT     H1 5514   4.796   6.313   2.409
 1665WAT     H2 5515   4.856   6.282   2.544
 1666WAT      O 5516   4.802   5.964   3.215
 1666WAT     H1 5517   4.760   6.047   3.240
 1666WAT     H2 5518   4.729   5.906   3.196
 1667WAT      O 5519   4.015   6.243   2.701
 1667WAT     H1 5520   3.975   6.172   2.652
 1667WAT     H2 5521   4.024   6.208   2.790
 1668WAT      O 5522   4.062   6.611   2.918
 1668WAT     H1 5523   4.032   6.551   2.850
 1668WAT     H2 5524   4.157   6.615   2.906
 1669WAT      O 5525   3.886   5.920   3.079
 1669WAT     H1 5526   3.942   5.931   3.002
 1669WAT     H2 5527   3.938   5.958   3.151
 1670WAT      O 5528   3.971   6.585   3.583
 1670WAT     H1 5529   3.881   6.608   3.607
 1670WAT     H2 5530   3.974   6.598   3.488
 1671WAT      O 5531   4.675   6.270   2.174
 1671WAT     H1 5532   4.719   6.186   2.159
 1671WAT     H2 5533   4.746   6.334   2.183
 1672WAT      O 5534   3.854   6.272   3.440
 1672WAT     H1 5535   3.840   6.360   3.477
 1672WAT     H2 5536   3.766   6.238   3.426
 1673WAT      O 5537   5.033   5.396   2.005
 1673WAT     H1 5538   5.002   5.405   2.095
 1673WAT     H2 5539   5.109   5.453   2.000
 1674WAT      O 5540   3.685   6.132   2.451
 1674WAT     H1 5541   3.673   6.205   2.390
 1674WAT     H2 5542   3.654   6.055   2.403
 1675WAT      O 5543   3.449   6.449   3.032
 1675WAT     H1 5544   3.457   6.463   2.937
 1675WAT     H2 5545   3.510   6.379   3.051
 1676WAT      O 5546   3.573   6.619   2.673
 1676WAT     H1 5547   3.533   6.634   2.587
 1676WAT     H2 5548   3.663   6.591   2.653
 1677WAT      O 5549   5.154   5.869   3.603
 1677WAT     H1 5550   5.093   5.920   3.550
 1677WAT     H2 5551   5.122   5.779   3.597
 1678WAT      O 5552   3.455   6.554   3.286
 1678WAT     H1 5553   3.471   6.507   3.204
 1678WAT     H2 5554   3.501   6.503   3.352
 1679WAT      O 5555   3.932   5.467   2.789
 1679WAT     H1 5556   3.887   5.545   2.756
 1679WAT     H2 5557   3.988   5.499   2.860
 1680WAT      O 5558   4.360   5.753   3.350
 1680WAT     H1 5559   4.314   5.774   3.431
 1680WAT     H2 5560   4.320   5.672   3.320
 1681WAT      O 5561   4.861   5.875   3.463
 1681WAT     H1 5562   4.775   5.845   3.495
 1681WAT     H2 5563   4.845   5.900   3.372
 1682WAT      O 5564   4.570   6.025   3.673
 1682WAT     H1 5565   4.603   5.942   3.639
 1682WAT     H2 5566   4.649   6.078   3.688
 1683WAT      O 5567   4.243   5.429   2.278
 1683WAT     H1 5568   4.181   5.428   2.350
 1683WAT     H2 5569   4.235   5.342   2.238
 1684WAT      O 5570   4.136   5.521   2.975
 1684WAT     H1 5571   4.165   5.612   2.967
 1684WAT     H2 5572   4.190   5.472   2.914
 1685WAT      O 5573   3.911   5.979   2.562
 1685WAT     H1 5574   3.888   5.957   2.653
 1685WAT     H2 5575   3.833   6.022   2.528
 1686WAT      O 5576   4.634   5.980   2.422
 1686WAT     H1 5577   4.574   6.052   2.404
 1686WAT     H2 5578   4.689   5.973   2.344
 1687WAT      O 5579   4.155   6.069   3.629
 1687WAT     H1 5580   4.145   5.975   3.614
 1687WAT     H2 5581   4.239   6.091   3.589
 1688WAT      O 5582   4.495   5.843   2.625
 1688WAT     H1 5583   4.534   5.875   2.544
 1688WAT     H2 5584   4.531   5.755   2.637
 1689WAT      O 5585   3.668   5.710   3.444
 1689WAT     H1 5586   3.629   5.795   3.465
 1689WAT     H2 5587   3.599   5.646   3.463
 1690WAT      O 5588   4.325   5.718   3.751
 1690WAT     H1 5589   4.256   5.699   3.815
 1690WAT     H2 5590   4.400   5.747   3.804
 1691WAT      O 5591   3.398   5.502   2.847
 1691WAT     H1 5592   3.369   5.559   2.919
 1691WAT     H2 5593   3.473   5.454   2.884
 1692WAT      O 5594   3.417   5.896   1.969
 1692WAT     H1 5595   3.409   5.991   1.983
 1692WAT     H2 5596   3.382   5.882   1.881
 1693WAT      O 5597   4.553   6.102   3.035
 1693WAT     H1 5598   4.480   6.153   3.070
 1693WAT     H2 5599   4.513   6.021   3.005
 1694WAT      O 5600   4.197   5.770   2.875
 1694WAT     H1 5601   4.197   5.726   2.790
 1694WAT     H2 5602   4.286   5.802   2.886
 1695WAT      O 5603   3.782   5.758   2.771
 1695WAT     H1 5604   3.748   5.806   2.847
 1695WAT     H2 5605   3.706   5.713   2.735
 1696WAT      O 5606   4.203   5.870   2.174
 1696WAT     H1 5607   4.215   5.866   2.269
 1696WAT     H2 5608   4.165   5.956   2.159
 1697WAT      O 5609   4.599   5.648   2.976
 1697WAT     H1 5610   4.601   5.693   3.060
 1697WAT     H2 5611   4.574   5.558   2.997
 1698WAT      O 5612   4.104   6.101   2.114
 1698WAT     H1 5613   4.047   6.056   2.051
 1698WAT     H2 5614   4.175   6.137   2.061
 1699WAT      O 5615   4.942   5.389   3.560
 1699WAT     H1 5616   4.975   5.316   3.612
 1699WAT     H2 5617   4.946   5.357   3.470
 1700WAT      O 5618   3.612   6.491   3.502
 1700WAT     H1 5619   3.574   6.427   3.562
 1700WAT     H2 5620   3.643   6.561   3.559
 1701WAT      O 5621   4.227   6.176   3.050
 1701WAT     H1 5622   4.264   6.128   3.124
 1701WAT     H2 5623   4.208   6.263   3.084
 1702WAT      O 5624   3.513   5.650   2.663
 1702WAT     H1 5625   3.485   5.614   2.747
 1702WAT     H2 5626   3.507   5.577   2.601
 1703WAT      O 5627   4.006   6.080   3.282
 1703WAT     H1 5628   3.976   6.168   3.304
 1703WAT     H2 5629   4.101   6.086   3.285
 1704WAT      O 5630   3.859   6.501   2.341
 1704WAT     H1 5631   3.781   6.446   2.325
 1704WAT     H2 5632   3.932   6.449   2.308
 1705WAT      O 5633   4.935   6.400   2.921
 1705WAT     H1 5634   5.007   6.450   2.882
 1705WAT     H2 5635   4.914   6.332   2.856
 1706WAT      O 5636   4.481   5.540   2.335
 1706WAT     H1 5637   4.399   5.490   2.327
 1706WAT     H2 5638   4.461   5.624   2.293
 1707WAT      O 5639   4.473   6.407   3.509
 1707WAT     H1 5640   4.466   6.315   3.484
 1707WAT     H2 5641   4.410   6.417   3.581
 1708WAT      O 5642   4.752   5.977   2.165
 1708WAT     H1 5643   4.841   6.008   2.147
 1708WAT     H2 5644   4.749   5.889   2.125
 1709WAT      O 5645   3.863   6.467   2.705
 1709WAT     H1 5646   3.915   6.387   2.700
 1709WAT     H2 5647   3.818   6.461   2.789
 1710WAT      O 5648   3.612   6.164   3.396
 1710WAT     H1 5649   3.576   6.230   3.455
 1710WAT     H2 5650   3.582   6.081   3.434
 1711WAT      O 5651   3.932   6.210   3.685
 1711WAT     H1 5652   3.902   6.224   3.595
 1711WAT     H2 5653   4.009   6.154   3.676
 1712WAT      O 5654   4.979   6.108   2.111
 1712WAT     H1 5655   4.971   6.151   2.026
 1712WAT     H2 5656   5.051   6.154   2.155
 1713WAT      O 5657   5.087   6.354   3.419
 1713WAT     H1 5658   5.015   6.413   3.399
 1713WAT     H2 5659   5.140   6.353   3.339
 1714WAT      O 5660   4.640   6.526   2.769
 1714WAT     H1 5661   4.675   6.466   2.703
 1714WAT     H2 5662   4.552   6.494   2.786
 1715WAT      O 5663   3.463   6.164   2.059
 1715WAT     H1 5664   3.550   6.192   2.087
 1715WAT     H2 5665   3.414   6.245   2.047
 1716WAT      O 5666   4.179   6.303   2.471
 1716WAT     H1 5667   4.225   6.384   2.493
 1716WAT     H2 5668   4.144   6.271   2.554
 1717WAT      O 5669   3.769   5.337   2.518
 1717WAT     H1 5670   3.756   5.336   2.613
 1717WAT     H2 5671   3.687   5.371   2.483
 1718WAT      O 5672   3.469   5.513   3.464
 1718WAT     H1 5673   3.398   5.533   3.525
 1718WAT     H2 5674   3.511   5.435   3.501
 1719WAT      O 5675   4.879   6.474   2.204
 1719WAT     H1 5676   4.851   6.520   2.283
 1719WAT     H2 5677   4.959   6.428   2.231
 1720WAT      O 5678   3.661   6.346   2.272
 1720WAT     H1 5679   3.600   6.420   2.273
 1720WAT     H2 5680   3.709   6.355   2.189
 1721WAT      O 5681   4.618   5.762   3.239
 1721WAT     H1 5682   4.655   5.680   3.272
 1721WAT     H2 5683   4.532   5.768   3.281
 1722WAT      O 5684   4.955   5.658   2.320
 1722WAT     H1 5685   4.892   5.668   2.249
 1722WAT     H2 5686   4.906   5.680   2.399
 1723WAT      O 5687   4.152   5.886   2.462
 1723WAT     H1 5688   4.081   5.932   2.506
 1723WAT     H2 5689   4.180   5.820   2.525
 1724WAT      O 5690   4.314   6.027   3.262
 1724WAT     H1 5691   4.364   6.075   3.328
 1724WAT     H2 5692   4.329   5.935   3.282
 1725WAT      O 5693   4.555   5.558   2.606
 1725WAT     H1 5694   4.543   5.560   2.511
 1725WAT     H2 5695   4.650   5.563   2.618
 1726WAT      O 5696   3.972   5.716   2.199
 1726WAT     H1 5697   4.057   5.760   2.193
 1726WAT     H2 5698   3.936   5.748   2.282
 1727WAT      O 5699   5.035   5.649   3.346
 1727WAT     H1 5700   4.985   5.723   3.380
 1727WAT     H2 5701   5.117   5.688   3.314
 1728WAT      O 5702   4.864   6.173   2.690
 1728WAT     H1 5703   4.770   6.175   2.708
 1728WAT     H2 5704   4.896   6.095   2.735
 1729WAT      O 5705   3.862   6.342   2.046
 1729WAT     H1 5706   3.939   6.330   2.103
 1729WAT     H2 5707   3.870   6.272   1.981
 1730WAT      O 5708   3.732   6.085   2.115
 1730WAT     H1 5709   3.740   5.990   2.126
 1730WAT     H2 5710   3.821   6.118   2.125
 1731WAT      O 5711   4.596   6.629   3.739
 1731WAT     H1 5712   4.535   6.631   3.665
 1731WAT     H2 5713   4.566   6.556   3.792
 1732WAT      O 5714   3.484   6.267   3.638
 1732WAT     H1 5715   3.535   6.209   3.696
 1732WAT     H2 5716   3.410   6.295   3.692
 1733WAT      O 5717   4.175   6.539   1.994
 1733WAT     H1 5718   4.164   6.478   2.066
 1733WAT     H2 5719   4.158   6.487   1.915
 1734WAT      O 5720   4.190   6.408   3.592
 1734WAT     H1 5721   4.113   6.465   3.583
 1734WAT     H2 5722   4.208   6.379   3.502
 1735WAT      O 5723   4.499   6.445   2.054
 1735WAT     H1 5724   4.444   6.490   2.119
 1735WAT     H2 5725   4.561   6.395   2.107
 1736WAT      O 5726   4.904   6.581   3.647
 1736WAT     H1 5727   4.978   6.615   3.597
 1736WAT     H2 5728   4.828   6.598   3.592
 1737WAT      O 5729   3.688   6.081   3.728
 1737WAT     H1 5730   3.692   6.052   3.819
 1737WAT     H2 5731   3.773   6.121   3.712
 1738WAT      O 5732   4.065   6.341   2.244
 1738WAT     H1 5733   4.108   6.325   2.328
 1738WAT     H2 5734   4.078   6.260   2.194
 1739WAT      O 5735   3.882   5.939   3.525
 1739WAT     H1 5736   3.829   5.890   3.462
 1739WAT     H2 5737   3.949   5.982   3.471
 1740WAT      O 5738   4.317   6.244   1.969
 1740WAT     H1 5739   4.369   6.172   1.932
 1740WAT     H2 5740   4.381   6.308   1.999
 1741WAT      O 5741   4.771   6.386   3.501
 1741WAT     H1 5742   4.813   6.401   3.586
 1741WAT     H2 5743   4.678   6.399   3.517
 1742WAT      O 5744   4.819   6.120   3.701
 1742WAT     H1 5745   4.877   6.044   3.693
 1742WAT     H2 5746   4.836   6.173   3.624
 1743WAT      O 5747   3.930   5.636   3.533
 1743WAT     H1 5748   3.921   5.574   3.460
 1743WAT     H2 5749   3.872   5.709   3.510
 1744WAT      O 5750   4.207   5.492   3.236
 1744WAT     H1 5751   4.162   5.494   3.151
 1744WAT     H2 5752   4.144   5.452   3.296
 1745WAT      O 5753   4.248   6.381   3.298
 1745WAT     H1 5754   4.289   6.466   3.281
 1745WAT     H2 5755   4.156   6.395   3.275
 1746WAT      O 5756   4.481   6.154   3.436
 1746WAT     H1 5757   4.493   6.095   3.510
 1746WAT     H2 5758   4.567   6.158   3.394
 1747WAT      O 5759   4.715   6.210   3.294
 1747WAT     H1 5760   4.662   6.262   3.234
 1747WAT     H2 5761   4.749   6.273   3.357
 1748WAT      O 5762   3.955   5.949   1.938
 1748WAT     H1 5763   3.935   5.862   1.975
 1748WAT     H2 5764   3.938   5.940   1.845
 1749WAT      O 5765   4.158   5.809   3.562
 1749WAT     H1 5766   4.217   5.778   3.631
 1749WAT     H2 5767   4.076   5.761   3.578
 1750WAT      O 5768   4.640   5.770   3.585
 1750WAT     H1 5769   4.571   5.704   3.579
 1750WAT     H2 5770   4.712   5.726   3.630
 1751WAT      O 5771   4.703   5.430   2.191
 1751WAT     H1 5772   4.731   5.345   2.227
 1751WAT     H2 5773   4.625   5.453   2.243
 1752WAT      O 5774   3.835   5.659   1.937
 1752WAT     H1 5775   3.865   5.659   1.846
 1752WAT     H2 5776   3.909   5.624   1.987
 1753WAT      O 5777   4.157   5.553   2.036
 1753WAT     H1 5778   4.122   5.485   1.978
 1753WAT     H2 5779   4.177   5.507   2.117
 1754WAT      O 5780   3.737   6.589   2.021
 1754WAT     H1 5781   3.781   6.643   2.086
 1754WAT     H2 5782   3.786   6.507   2.022
 1755WAT      O 5783   5.141   6.354   2.252
 1755WAT     H1 5784   5.217   6.410   2.263
 1755WAT     H2 5785   5.142   6.297   2.329
 1756WAT      O 5786   3.491   6.206   2.675
 1756WAT     H1 5787   3.425   6.179   2.611
 1756WAT     H2 5788   3.574   6.195   2.631
 1757WAT      O 5789   5.241   6.439   2.737
 1757WAT     H1 5790   5.278   6.361   2.696
 1757WAT     H2 5791   5.305   6.508   2.719
 1758WAT      O 5792   4.940   6.577   3.278
 1758WAT     H1 5793   4.858   6.620   3.304
 1758WAT     H2 5794   4.980   6.639   3.217
 1759WAT      O 5795   5.146   6.383   1.968
 1759WAT     H1 5796   5.173   6.474   1.955
 1759WAT     H2 5797   5.127   6.376   2.062
 1760WAT      O 5798   4.786   5.685   2.098
 1760WAT     H1 5799   4.827   5.667   2.014
 1760WAT     H2 5800   4.755   5.600   2.129
 1761WAT      O 5801   5.135   6.177   2.467
 1761WAT     H1 5802   5.098   6.100   2.424
 1761WAT     H2 5803   5.063   6.215   2.516
 1762WAT      O 5804   3.594   6.244   3.130
 1762WAT     H1 5805   3.631   6.236   3.217
 1762WAT     H2 5806   3.538   6.168   3.120
 1763WAT      O 5807   5.074   6.091   3.431
 1763WAT     H1 5808   5.051   6.068   3.341
 1763WAT     H2 5809   5.101   6.183   3.426
 1764WAT      O 5810   3.550   5.936   3.520
 1764WAT     H1 5811   3.460   5.932   3.554
 1764WAT     H2 5812   3.604   5.955   3.597
 1765WAT      O 5813   4.918   5.614   3.709
 1765WAT     H1 5814   5.006   5.615   3.747
 1765WAT     H2 5815   4.920   5.540   3.648
 1766WAT      O 5816   3.412   5.927   2.270
 1766WAT     H1 5817   3.322   5.953   2.252
 1766WAT     H2 5818   3.460   5.954   2.192
 1767WAT      O 5819   5.063   5.999   2.797
 1767WAT     H1 5820   5.115   5.950   2.734
 1767WAT     H2 5821   5.122   6.013   2.872
 1768WAT      O 5822   5.081   6.008   3.150
 1768WAT     H1 5823   4.986   6.004   3.161
 1768WAT     H2 5824   5.099   6.099   3.126
 1769WAT      O 5825   3.666   5.833   2.061
 1769WAT     H1 5826   3.737   5.790   2.012
 1769WAT     H2 5827   3.595   5.839   1.998
 1770WAT      O 5828   3.631   5.438   1.965
 1770WAT     H1 5829   3.703   5.492   1.997
 1770WAT     H2 5830   3.658   5.411   1.877
 1771WAT      O 5831   5.012   5.925   2.391
 1771WAT     H1 5832   5.062   5.902   2.470
 1771WAT     H2 5833   4.992   5.841   2.350
 1772WAT      O 5834   3.600   5.363   2.955
 1772WAT     H1 5835   3.665   5.308   2.911
 1772WAT     H2 5836   3.642   5.388   3.037
 1773WAT      O 5837   5.155   5.788   2.645
 1773WAT     H1 5838   5.144   5.773   2.739
 1773WAT     H2 5839   5.231   5.736   2.621
 1774WAT      O 5840   4.990   5.382   3.291
 1774WAT     H1 5841   5.053   5.444   3.327
 1774WAT     H2 5842   5.004   5.386   3.196
 1775WAT      O 5843   5.244   5.572   1.969
 1775WAT     H1 5844   5.336   5.558   1.948
 1775WAT     H2 5845   5.242   5.579   2.064
 1776WAT      O 5846   5.251   5.649   2.231
 1776WAT     H1 5847   5.172   5.642   2.284
 1776WAT     H2 5848   5.272   5.742   2.230
 1777WAT      O 5849   3.575   5.379   3.229
 1777WAT     H1 5850   3.540   5.424   3.306
 1777WAT     H2 5851   3.542   5.289   3.237
 1778WAT      O 5852   4.327   5.498   3.581
 1778WAT     H1 5853   4.320   5.557   3.656
 1778WAT     H2 5854   4.421   5.487   3.567
 1779WAT      O 5855   4.590   5.463   3.545
 1779WAT     H1 5856   4.652   5.495   3.479
 1779WAT     H2 5857   4.645   5.415   3.607
 1780WAT      O 5858   3.643   5.331   3.557
 1780WAT     H1 5859   3.697   5.313   3.480
 1780WAT     H2 5860   3.649   5.252   3.610
 1781WAT      O 5861   4.664   5.320   3.178
 1781WAT     H1 5862   4.577   5.353   3.158
 1781WAT     H2 5863   4.653   5.272   3.261
 1782WAT      O 5864   4.755   5.540   3.316
 1782WAT     H1 5865   4.722   5.459   3.278
 1782WAT     H2 5866   4.850   5.536   3.304
 1783WAT      O 5867   4.439   5.411   3.072
 1783WAT     H1 5868   4.361   5.459   3.100
 1783WAT     H2 5869   4.410   5.321   3.061
 1784WAT      O 5870   4.894   5.482   2.876
 1784WAT     H1 5871   4.938   5.476   2.792
 1784WAT     H2 5872   4.867   5.573   2.884
 1785WAT      O 5873   5.081   5.445   2.678
 1785WAT     H1 5874   5.075   5.350   2.663
 1785WAT     H2 5875   5.159   5.456   2.732
 1786WAT      O 5876   3.574   5.442   2.324
 1786WAT     H1 5877   3.649   5.453   2.267
 1786WAT     H2 5878   3.527   5.526   2.319
 1787WAT      O 5879   4.228   5.653   2.623
 1787WAT     H1 5880   4.146   5.616   2.589
 1787WAT     H2 5881   4.278   5.578   2.653
 1788WAT      O 5882   4.678   5.320   2.747
 1788WAT     H1 5883   4.738   5.377   2.794
 1788WAT     H2 5884   4.604   5.376   2.725
 1789WAT      O 5885   4.992   5.360   2.274
 1789WAT     H1 5886   5.012   5.450   2.301
 1789WAT     H2 5887   4.914   5.337   2.324
 1790WAT      O 5888   3.811   5.495   2.178
 1790WAT     H1 5889   3.864   5.416   2.165
 1790WAT     H2 5890   3.874   5.562   2.201
 1791WAT      O 5891   4.030   5.468   2.484
 1791WAT     H1 5892   3.967   5.398   2.500
 1791WAT     H2 5893   3.976   5.544   2.462
 1792WAT      O 5894   4.043   5.396   3.727
 1792WAT     H1 5895   4.015   5.446   3.651
 1792WAT     H2 5896   4.081   5.316   3.690
 1793WAT      O 5897   4.703   5.338   3.785
 1793WAT     H1 5898   4.692   5.370   3.874
 1793WAT     H2 5899   4.785   5.378   3.755
 1794WAT      O 5900   4.593   6.140   0.821
 1794WAT     H1 5901   4.585   6.048   0.794
 1794WAT     H2 5902   4.552   6.189   0.751
 1795WAT      O 5903   4.407   6.317   1.009
 1795WAT     H1 5904   4.329   6.269   1.038
 1795WAT     H2 5905   4.472   6.249   0.992
 1796WAT      O 5906   3.808   6.349   1.097
 1796WAT     H1 5907   3.725   6.323   1.137
 1796WAT     H2 5908   3.869   6.356   1.171
 1797WAT      O 5909   3.649   5.845   0.475
 1797WAT     H1 5910   3.560   5.879   0.465
 1797WAT     H2 5911   3.678   5.825   0.386
 1798WAT      O 5912   3.446   6.105   1.064
 1798WAT     H1 5913   3.503   6.028   1.064
 1798WAT     H2 5914   3.446   6.135   0.973
 1799WAT      O 5915   4.351   6.585   1.010
 1799WAT     H1 5916   4.344   6.491   0.994
 1799WAT     H2 5917   4.427   6.594   1.067
 1800WAT      O 5918   3.570   5.645   1.243
 1800WAT     H1 5919   3.552   5.556   1.271
 1800WAT     H2 5920   3.530   5.700   1.310
 1801WAT      O 5921   4.454   5.866   1.033
 1801WAT     H1 5922   4.491   5.778   1.021
 1801WAT     H2 5923   4.444   5.899   0.944
 1802WAT      O 5924   3.867   5.703   0.579
 1802WAT     H1 5925   3.878   5.793   0.610
 1802WAT     H2 5926   3.776   5.698   0.550
 1803WAT      O 5927   4.832   5.615   0.726
 1803WAT     H1 5928   4.914   5.566   0.730
 1803WAT     H2 5929   4.835   5.674   0.801
 1804WAT      O 5930   3.632   5.895   1.103
 1804WAT     H1 5931   3.700   5.921   1.165
 1804WAT     H2 5932   3.600   5.811   1.137
 1805WAT      O 5933   4.051   6.000   1.012
 1805WAT     H1 5934   4.102   6.050   1.076
 1805WAT     H2 5935   4.104   5.922   0.995
 1806WAT      O 5936   5.261   5.817   1.382
 1806WAT     H1 5937   5.191   5.856   1.331
 1806WAT     H2 5938   5.288   5.886   1.443
 1807WAT      O 5939   3.879   5.464   1.439
 1807WAT     H1 5940   3.879   5.515   1.358
 1807WAT     H2 5941   3.796   5.416   1.436
 1808WAT      O 5942   4.518   6.475   0.589
 1808WAT     H1 5943   4.456   6.521   0.532
 1808WAT     H2 5944   4.569   6.544   0.630
 1809WAT      O 5945   4.004   6.428   1.256
 1809WAT     H1 5946   3.971   6.490   1.321
 1809WAT     H2 5947   4.022   6.480   1.179
 1810WAT      O 5948   4.856   5.809   1.003
 1810WAT     H1 5949   4.785   5.838   1.061
 1810WAT     H2 5950   4.892   5.890   0.967
 1811WAT      O 5951   3.847   5.635   1.239
 1811WAT     H1 5952   3.882   5.719   1.210
 1811WAT     H2 5953   3.754   5.650   1.251
 1812WAT      O 5954   3.455   6.543   0.326
 1812WAT     H1 5955   3.417   6.592   0.253
 1812WAT     H2 5956   3.481   6.611   0.389
 1813WAT      O 5957   5.163   5.754   1.042
 1813WAT     H1 5958   5.068   5.757   1.056
 1813WAT     H2 5959   5.195   5.835   1.081
 1814WAT      O 5960   4.216   5.384   0.872
 1814WAT     H1 5961   4.246   5.328   0.800
 1814WAT     H2 5962   4.123   5.397   0.854
 1815WAT      O 5963   4.711   6.446   1.234
 1815WAT     H1 5964   4.752   6.424   1.150
 1815WAT     H2 5965   4.783   6.471   1.291
 1816WAT      O 5966   4.455   6.190   0.546
 1816WAT     H1 5967   4.362   6.184   0.568
 1816WAT     H2 5968   4.470   6.284   0.534
 1817WAT      O 5969   4.453   5.817   0.245
 1817WAT     H1 5970   4.359   5.833   0.254
 1817WAT     H2 5971   4.485   5.889   0.191
 1818WAT      O 5972   5.105   6.285   1.243
 1818WAT     H1 5973   5.023   6.292   1.195
 1818WAT     H2 5974   5.165   6.344   1.196
 1819WAT      O 5975   4.857   6.346   0.596
 1819WAT     H1 5976   4.796   6.313   0.531
 1819WAT     H2 5977   4.856   6.282   0.667
 1820WAT      O 5978   4.802   5.964   1.338
 1820WAT     H1 5979   4.760   6.047   1.363
 1820WAT     H2 5980   4.729   5.906   1.318
 1821WAT      O 5981   4.015   6.243   0.824
 1821WAT     H1 5982   3.975   6.172   0.774
 1821WAT     H2 5983   4.024   6.208   0.913
 1822WAT      O 5984   4.062   6.611   1.040
 1822WAT     H1 5985   4.032   6.551   0.972
 1822WAT     H2 5986   4.157   6.615   1.029
 1823WAT      O 5987   3.886   5.920   1.202
 1823WAT     H1 5988   3.942   5.931   1.124
 1823WAT     H2 5989   3.938   5.958   1.273
 1824WAT      O 5990   3.971   6.585   1.705
 1824WAT     H1 5991   3.881   6.608   1.730
 1824WAT     H2 5992   3.974   6.598   1.610
 1825WAT      O 5993   4.675   6.270   0.297
 1825WAT     H1 5994   4.719   6.186   0.282
 1825WAT     H2 5995   4.746   6.334   0.305
 1826WAT      O 5996   3.854   6.272   1.563
 1826WAT     H1 5997   3.840   6.360   1.600
 1826WAT     H2 5998   3.766   6.238   1.548
 1827WAT      O 5999   3.685   6.132   0.574
 1827WAT     H1 6000   3.673   6.205   0.513
 1827WAT     H2 6001   3.654   6.055   0.526
 1828WAT      O 6002   3.449   6.449   1.154
 1828WAT     H1 6003   3.457   6.463   1.060
 1828WAT     H2 6004   3.510   6.379   1.174
 1829WAT      O 6005   3.573   6.619   0.796
 1829WAT     H1 6006   3.533   6.634   0.710
 1829WAT     H2 6007   3.663   6.591   0.775
 1830WAT      O 6008   5.154   5.869   1.726
 1830WAT     H1 6009   5.093   5.920   1.673
 1830WAT     H2 6010   5.122   5.779   1.720
 1831WAT      O 6011   3.455   6.554   1.408
 1831WAT     H1 6012   3.471   6.507   1.327
 1831WAT     H2 6013   3.501   6.503   1.475
 1832WAT      O 6014   3.932   5.467   0.912
 1832WAT     H1 6015   3.887   5.545   0.879
 1832WAT     H2 6016   3.988   5.499   0.983
 1833WAT      O 6017   4.360   5.753   1.472
 1833WAT     H1 6018   4.314   5.774   1.554
 1833WAT     H2 6019   4.320   5.672   1.442
 1834WAT      O 6020   4.861   5.875   1.585
 1834WAT     H1 6021   4.775   5.845   1.617
 1834WAT     H2 6022   4.845   5.900   1.494
 1835WAT      O 6023   4.570   6.025   1.795
 1835WAT     H1 6024   4.603   5.942   1.761
 1835WAT     H2 6025   4.649   6.078   1.810
 1836WAT      O 6026   4.243   5.429   0.400
 1836WAT     H1 6027   4.181   5.428   0.473
 1836WAT     H2 6028   4.235   5.342   0.360
 1837WAT      O 6029   4.136   5.521   1.098
 1837WAT     H1 6030   4.165   5.612   1.090
 1837WAT     H2 6031   4.190   5.472   1.037
 1838WAT      O 6032   3.911   5.979   0.685
 1838WAT     H1 6033   3.888   5.957   0.775
 1838WAT     H2 6034   3.833   6.022   0.650
 1839WAT      O 6035   4.634   5.980   0.545
 1839WAT     H1 6036   4.574   6.052   0.526
 1839WAT     H2 6037   4.689   5.973   0.466
 1840WAT      O 6038   4.155   6.069   1.751
 1840WAT     H1 6039   4.145   5.975   1.736
 1840WAT     H2 6040   4.239   6.091   1.712
 1841WAT      O 6041   4.495   5.843   0.748
 1841WAT     H1 6042   4.534   5.875   0.666
 1841WAT     H2 6043   4.531   5.755   0.759
 1842WAT      O 6044   3.668   5.710   1.567
 1842WAT     H1 6045   3.629   5.795   1.587
 1842WAT     H2 6046   3.599   5.646   1.586
 1843WAT      O 6047   4.325   5.718   1.874
 1843WAT     H1 6048   4.256   5.699   1.937
 1843WAT     H2 6049   4.400   5.747   1.927
 1844WAT      O 6050   3.398   5.502   0.970
 1844WAT     H1 6051   3.369   5.559   1.041
 1844WAT     H2 6052   3.473   5.454   1.006
 1845WAT      O 6053   4.553   6.102   1.157
 1845WAT     H1 6054   4.480   6.153   1.192
 1845WAT     H2 6055   4.513   6.021   1.127
 1846WAT      O 6056   4.197   5.770   0.998
 1846WAT     H1 6057   4.197   5.726   0.913
 1846WAT     H2 6058   4.286   5.802   1.009
 1847WAT      O 6059   3.782   5.758   0.894
 1847WAT     H1 6060   3.748   5.806   0.969
 1847WAT     H2 6061   3.706   5.713   0.858
 1848WAT      O 6062   4.203   5.870   0.297
 1848WAT     H1 6063   4.215   5.866   0.392
 1848WAT     H2 6064   4.165   5.956   0.281
 1849WAT      O 6065   4.599   5.648   1.098
 1849WAT     H1 6066   4.601   5.693   1.183
 1849WAT     H2 6067   4.574   5.558   1.120
 1850WAT      O 6068   4.104   6.101   0.237
 1850WAT     H1 6069   4.047   6.056   0.174
 1850WAT     H2 6070   4.175   6.137   0.183
 1851WAT      O 6071   4.942   5.389   1.682
 1851WAT     H1 6072   4.975   5.316   1.735
 1851WAT     H2 6073   4.946   5.357   1.592
 1852WAT      O 6074   3.612   6.491   1.624
 1852WAT     H1 6075   3.574   6.427   1.684
 1852WAT     H2 6076   3.643   6.561   1.681
 1853WAT      O 6077   4.227   6.176   1.172
 1853WAT     H1 6078   4.264   6.128   1.247
 1853WAT     H2 6079   4.208   6.263   1.207
 1854WAT      O 6080   3.513   5.650   0.785
 1854WAT     H1 6081   3.485   5.614   0.869
 1854WAT     H2 6082   3.507   5.577   0.724
 1855WAT      O 6083   4.006   6.080   1.404
 1855WAT     H1 6084   3.976   6.168   1.427
 1855WAT     H2 6085   4.101   6.086   1.408
 1856WAT      O 6086   3.859   6.501   0.464
 1856WAT     H1 6087   3.781   6.446   0.448
 1856WAT     H2 6088   3.932   6.449   0.430
 1857WAT      O 6089   4.935   6.400   1.043
 1857WAT     H1 6090   5.007   6.450   1.004
 1857WAT     H2 6091   4.914   6.332   0.979
 1858WAT      O 6092   4.481   5.540   0.458
 1858WAT     H1 6093   4.399   5.490   0.450
 1858WAT     H2 6094   4.461   5.624   0.416
 1859WAT      O 6095   4.473   6.407   1.632
 1859WAT     H1 6096   4.466   6.315   1.606
 1859WAT     H2 6097   4.410   6.417   1.703
 1860WAT      O 6098   4.752   5.977   0.287
 1860WAT     H1 6099   4.841   6.008   0.270
 1860WAT     H2 6100   4.749   5.889   0.248
 1861WAT      O 6101   3.863   6.467   0.828
 1861WAT     H1 6102   3.915   6.387   0.822
 1861WAT     H2 6103   3.818   6.461   0.912
 1862WAT      O 6104   3.612   6.164   1.519
 1862WAT     H1 6105   3.576   6.230   1.578
 1862WAT     H2 6106   3.582   6.081   1.556
 1863WAT      O 6107   3.932   6.210   1.807
 1863WAT     H1 6108   3.902   6.224   1.718
 1863WAT     H2 6109   4.009   6.154   1.798
 1864WAT      O 6110   5.087   6.354   1.542
 1864WAT     H1 6111   5.015   6.413   1.522
 1864WAT     H2 6112   5.140   6.353   1.462
 1865WAT      O 6113   4.640   6.526   0.891
 1865WAT     H1 6114   4.675   6.466   0.825
 1865WAT     H2 6115   4.552   6.494   0.909
 1866WAT      O 6116   3.463   6.164   0.181
 1866WAT     H1 6117   3.550   6.192   0.210
 1866WAT     H2 6118   3.414   6.245   0.170
 1867WAT      O 6119   4.179   6.303   0.593
 1867WAT     H1 6120   4.225   6.384   0.616
 1867WAT     H2 6121   4.144   6.271   0.677
 1868WAT      O 6122   3.769   5.337   0.641
 1868WAT     H1 6123   3.756   5.336   0.736
 1868WAT     H2 6124   3.687   5.371   0.606
 1869WAT      O 6125   3.469   5.513   1.587
 1869WAT     H1 6126   3.398   5.533   1.647
 1869WAT     H2 6127   3.511   5.435   1.624
 1870WAT      O 6128   4.879   6.474   0.327
 1870WAT     H1 6129   4.851   6.520   0.405
 1870WAT     H2 6130   4.959   6.428   0.354
 1871WAT      O 6131   3.661   6.346   0.394
 1871WAT     H1 6132   3.600   6.420   0.395
 1871WAT     H2 6133   3.709   6.355   0.312
 1872WAT      O 6134   4.618   5.762   1.362
 1872WAT     H1 6135   4.655   5.680   1.395
 1872WAT     H2 6136   4.532   5.768   1.403
 1873WAT      O 6137   4.955   5.658   0.443
 1873WAT     H1 6138   4.892   5.668   0.371
 1873WAT     H2 6139   4.906   5.680   0.522
 1874WAT      O 6140   4.152   5.886   0.584
 1874WAT     H1 6141   4.081   5.932   0.628
 1874WAT     H2 6142   4.180   5.820   0.648
 1875WAT      O 6143   4.314   6.027   1.384
 1875WAT     H1 6144   4.364   6.075   1.451
 1875WAT     H2 6145   4.329   5.935   1.405
 1876WAT      O 6146   4.555   5.558   0.728
 1876WAT     H1 6147   4.543   5.560   0.633
 1876WAT     H2 6148   4.650   5.563   0.740
 1877WAT      O 6149   3.972   5.716   0.322
 1877WAT     H1 6150   4.057   5.760   0.315
 1877WAT     H2 6151   3.936   5.748   0.404
 1878WAT      O 6152   5.035   5.649   1.468
 1878WAT     H1 6153   4.985   5.723   1.502
 1878WAT     H2 6154   5.117   5.688   1.437
 1879WAT      O 6155   4.864   6.173   0.813
 1879WAT     H1 6156   4.770   6.175   0.830
 1879WAT     H2 6157   4.896   6.095   0.858
 1880WAT      O 6158   3.732   6.085   0.237
 1880WAT     H1 6159   3.740   5.990   0.249
 1880WAT     H2 6160   3.821   6.118   0.248
 1881WAT      O 6161   4.596   6.629   1.861
 1881WAT     H1 6162   4.535   6.631   1.787
 1881WAT     H2 6163   4.566   6.556   1.915
 1882WAT      O 6164   3.484   6.267   1.761
 1882WAT     H1 6165   3.535   6.209   1.818
 1882WAT     H2 6166   3.410   6.295   1.815
 1883WAT      O 6167   4.190   6.408   1.714
 1883WAT     H1 6168   4.113   6.465   1.706
 1883WAT     H2 6169   4.208   6.379   1.625
 1884WAT      O 6170   4.499   6.445   0.177
 1884WAT     H1 6171   4.444   6.490   0.241
 1884WAT     H2 6172   4.561   6.395   0.229
 1885WAT      O 6173   4.904   6.581   1.770
 1885WAT     H1 6174   4.978   6.615   1.720
 1885WAT     H2 6175   4.828   6.598   1.715
 1886WAT      O 6176   3.688   6.081   1.850
 1886WAT     H1 6177   3.692   6.052   1.941
 1886WAT     H2 6178   3.773   6.121   1.835
 1887WAT      O 6179   4.065   6.341   0.366
 1887WAT     H1 6180   4.108   6.325   0.451
 1887WAT     H2 6181   4.078   6.260   0.317
 1888WAT      O 6182   3.882   5.939   1.647
 1888WAT     H1 6183   3.829   5.890   1.584
 1888WAT     H2 6184   3.949   5.982   1.594
 1889WAT      O 6185   4.771   6.386   1.624
 1889WAT     H1 6186   4.813   6.401   1.709
 1889WAT     H2 6187   4.678   6.399   1.640
 1890WAT      O 6188   4.819   6.120   1.824
 1890WAT     H1 6189   4.877   6.044   1.815
 1890WAT     H2 6190   4.836   6.173   1.746
 1891WAT      O 6191   3.930   5.636   1.655
 1891WAT     H1 6192   3.921   5.574   1.583
 1891WAT     H2 6193   3.872   5.709   1.632
 1892WAT      O 6194   4.207   5.492   1.358
 1892WAT     H1 6195   4.162   5.494   1.274
 1892WAT     H2 6196   4.144   5.452   1.418
 1893WAT      O 6197   4.248   6.381   1.421
 1893WAT     H1 6198   4.289   6.466   1.403
 1893WAT     H2 6199   4.156   6.395   1.398
 1894WAT      O 6200   4.481   6.154   1.559
 1894WAT     H1 6201   4.493   6.095   1.633
 1894WAT     H2 6202   4.567   6.158   1.517
 1895WAT      O 6203   4.715   6.210   1.417
 1895WAT     H1 6204   4.662   6.262   1.356
 1895WAT     H2 6205   4.749   6.273   1.480
 1896WAT      O 6206   4.158   5.809   1.685
 1896WAT     H1 6207   4.217   5.778   1.753
 1896WAT     H2 6208   4.076   5.761   1.700
 1897WAT      O 6209   4.640   5.770   1.708
 1897WAT     H1 6210   4.571   5.704   1.702
 1897WAT     H2 6211   4.712   5.726   1.753
 1898WAT      O 6212   4.703   5.430   0.314
 1898WAT     H1 6213   4.731   5.345   0.350
 1898WAT     H2 6214   4.625   5.453   0.365
 1899WAT      O 6215   5.141   6.354   0.375
 1899WAT     H1 6216   5.217   6.410   0.386
 1899WAT     H2 6217   5.142   6.297   0.452
 1900WAT      O 6218   3.491   6.206   0.798
 1900WAT     H1 6219   3.425   6.179   0.734
 1900WAT     H2 6220   3.574   6.195   0.753
 1901WAT      O 6221   5.241   6.439   0.859
 1901WAT     H1 6222   5.278   6.361   0.819
 1901WAT     H2 6223   5.305   6.508   0.842
 1902WAT      O 6224   4.940   6.577   1.401
 1902WAT     H1 6225   4.858   6.620   1.427
 1902WAT     H2 6226   4.980   6.639   1.339
 1903WAT      O 6227   5.135   6.177   0.590
 1903WAT     H1 6228   5.098   6.100   0.547
 1903WAT     H2 6229   5.063   6.215   0.639
 1904WAT      O 6230   3.594   6.244   1.252
 1904WAT     H1 6231   3.631   6.236   1.340
 1904WAT     H2 6232   3.538   6.168   1.242
 1905WAT      O 6233   5.074   6.091   1.553
 1905WAT     H1 6234   5.051   6.068   1.463
 1905WAT     H2 6235   5.101   6.183   1.549
 1906WAT      O 6236   3.550   5.936   1.643
 1906WAT     H1 6237   3.460   5.932   1.677
 1906WAT     H2 6238   3.604   5.955   1.719
 1907WAT      O 6239   4.918   5.614   1.831
 1907WAT     H1 6240   5.006   5.615   1.870
 1907WAT     H2 6241   4.920   5.540   1.770
 1908WAT      O 6242   3.412   5.927   0.392
 1908WAT     H1 6243   3.322   5.953   0.375
 1908WAT     H2 6244   3.460   5.954   0.314
 1909WAT      O 6245   5.063   5.999   0.920
 1909WAT     H1 6246   5.115   5.950   0.857
 1909WAT     H2 6247   5.122   6.013   0.995
 1910WAT      O 6248   5.081   6.008   1.272
 1910WAT     H1 6249   4.986   6.004   1.284
 1910WAT     H2 6250   5.099   6.099   1.249
 1911WAT      O 6251   5.012   5.925   0.514
 1911WAT     H1 6252   5.062   5.902   0.592
 1911WAT     H2 6253   4.992   5.841   0.472
 1912WAT      O 6254   3.600   5.363   1.077
 1912WAT     H1 6255   3.665   5.308   1.033
 1912WAT     H2 6256   3.642   5.388   1.160
 1913WAT      O 6257   5.155   5.788   0.767
 1913WAT     H1 6258   5.144   5.773   0.861
 1913WAT     H2 6259   5.231   5.736   0.743
 1914WAT      O 6260   4.990   5.382   1.413
 1914WAT     H1 6261   5.053   5.444   1.450
 1914WAT     H2 6262   5.004   5.386   1.319
 1915WAT      O 6263   5.251   5.649   0.354
 1915WAT     H1 6264   5.172   5.642   0.407
 1915WAT     H2 6265   5.272   5.742   0.353
 1916WAT      O 6266   3.575   5.379   1.352
 1916WAT     H1 6267   3.540   5.424   1.428
 1916WAT     H2 6268   3.542   5.289   1.360
 1917WAT      O 6269   4.327   5.498   1.704
 1917WAT     H1 6270   4.320   5.557   1.779
 1917WAT     H2 6271   4.421   5.487   1.689
 1918WAT      O 6272   4.590   5.463   1.668
 1918WAT     H1 6273   4.652   5.495   1.602
 1918WAT     H2 6274   4.645   5.415   1.730
 1919WAT      O 6275   3.643   5.331   1.679
 1919WAT     H1 6276   3.697   5.313   1.603
 1919WAT     H2 6277   3.649   5.252   1.733
 1920WAT      O 6278   4.664   5.320   1.301
 1920WAT     H1 6279   4.577   5.353   1.280
 1920WAT     H2 6280   4.653   5.272   1.383
 1921WAT      O 6281   4.755   5.540   1.439
 1921WAT     H1 6282   4.722   5.459   1.401
 1921WAT     H2 6283   4.850   5.536   1.427
 1922WAT      O 6284   4.439   5.411   1.194
 1922WAT     H1 6285   4.361   5.459   1.222
 1922WAT     H2 6286   4.410   5.321   1.184
 1923WAT      O 6287   4.894   5.482   0.999
 1923WAT     H1 6288   4.938   5.476   0.914
 1923WAT     H2 6289   4.867   5.573   1.006
 1924WAT      O 6290   5.081   5.445   0.800
 1924WAT     H1 6291   5.075   5.350   0.785
 1924WAT     H2 6292   5.159   5.456   0.855
 1925WAT      O 6293   3.574   5.442   0.447
 1925WAT     H1 6294   3.649   5.453   0.389
 1925WAT     H2 6295   3.527   5.526   0.442
 1926WAT      O 6296   4.228   5.653   0.746
 1926WAT     H1 6297   4.146   5.616   0.712
 1926WAT     H2 6298   4.278   5.578   0.776
 1927WAT      O 6299   4.678   5.320   0.869
 1927WAT     H1 6300   4.738   5.377   0.917
 1927WAT     H2 6301   4.604   5.376   0.847
 1928WAT      O 6302   4.992   5.360   0.397
 1928WAT     H1 6303   5.012   5.450   0.424
 1928WAT     H2 6304   4.914   5.337   0.446
 1929WAT      O 6305   3.811   5.495   0.301
 1929WAT     H1 6306   3.864   5.416   0.288
 1929WAT     H2 6307   3.874   5.562   0.324
 1930WAT      O 6308   4.030   5.468   0.606
 1930WAT     H1 6309   3.967   5.398   0.623
 1930WAT     H2 6310   3.976   5.544   0.584
 1931WAT      O 6311   4.043   5.396   1.850
 1931WAT     H1 6312   4.015   5.446   1.773
 1931WAT     H2 6313   4.081   5.316   1.813
 1932WAT      O 6314   4.703   5.338   1.907
 1932WAT     H1 6315   4.692   5.370   1.997
 1932WAT     H2 6316   4.785   5.378   1.878
 1933WAT      O 6317   4.593   4.262   4.576
 1933WAT     H1 6318   4.585   4.171   4.549
 1933WAT     H2 6319   4.552   4.312   4.505
 1934WAT      O 6320   4.407   4.440   4.764
 1934WAT     H1 6321   4.329   4.392   4.793
 1934WAT     H2 6322   4.472   4.372   4.747
 1935WAT      O 6323   3.808   4.471   4.852
 1935WAT     H1 6324   3.725   4.446   4.892
 1935WAT     H2 6325   3.869   4.478   4.926
 1936WAT      O 6326   4.809   4.881   4.642
 1936WAT     H1 6327   4.763   4.803   4.675
 1936WAT     H2 6328   4.890   4.883   4.693
 1937WAT      O 6329   3.806   4.875   4.872
 1937WAT     H1 6330   3.837   4.785   4.854
 1937WAT     H2 6331   3.881   4.930   4.849
 1938WAT      O 6332   3.649   3.967   4.230
 1938WAT     H1 6333   3.560   4.001   4.220
 1938WAT     H2 6334   3.678   3.947   4.141
 1939WAT      O 6335   3.446   4.227   4.819
 1939WAT     H1 6336   3.503   4.150   4.819
 1939WAT     H2 6337   3.446   4.257   4.728
 1940WAT      O 6338   4.431   5.109   4.604
 1940WAT     H1 6339   4.369   5.155   4.547
 1940WAT     H2 6340   4.517   5.125   4.564
 1941WAT      O 6341   4.351   4.707   4.765
 1941WAT     H1 6342   4.344   4.613   4.749
 1941WAT     H2 6343   4.427   4.717   4.822
 1942WAT      O 6344   3.570   3.768   4.997
 1942WAT     H1 6345   3.552   3.678   5.025
 1942WAT     H2 6346   3.530   3.823   5.065
 1943WAT      O 6347   4.454   3.988   4.788
 1943WAT     H1 6348   4.491   3.901   4.776
 1943WAT     H2 6349   4.444   4.022   4.698
 1944WAT      O 6350   3.867   3.825   4.334
 1944WAT     H1 6351   3.878   3.915   4.364
 1944WAT     H2 6352   3.776   3.821   4.305
 1945WAT      O 6353   4.832   3.738   4.481
 1945WAT     H1 6354   4.914   3.689   4.485
 1945WAT     H2 6355   4.835   3.797   4.556
 1946WAT      O 6356   3.632   4.018   4.858
 1946WAT     H1 6357   3.700   4.044   4.920
 1946WAT     H2 6358   3.600   3.934   4.892
 1947WAT      O 6359   4.051   4.122   4.767
 1947WAT     H1 6360   4.102   4.172   4.831
 1947WAT     H2 6361   4.104   4.045   4.749
 1948WAT      O 6362   5.261   3.939   5.137
 1948WAT     H1 6363   5.191   3.978   5.085
 1948WAT     H2 6364   5.288   4.009   5.197
 1949WAT      O 6365   3.879   3.586   5.194
 1949WAT     H1 6366   3.879   3.638   5.113
 1949WAT     H2 6367   3.796   3.539   5.191
 1950WAT      O 6368   4.518   4.597   4.344
 1950WAT     H1 6369   4.456   4.644   4.287
 1950WAT     H2 6370   4.569   4.667   4.385
 1951WAT      O 6371   4.004   4.550   5.011
 1951WAT     H1 6372   3.971   4.613   5.076
 1951WAT     H2 6373   4.022   4.603   4.933
 1952WAT      O 6374   4.856   3.932   4.758
 1952WAT     H1 6375   4.785   3.961   4.816
 1952WAT     H2 6376   4.892   4.013   4.722
 1953WAT      O 6377   3.847   3.757   4.994
 1953WAT     H1 6378   3.882   3.842   4.965
 1953WAT     H2 6379   3.754   3.772   5.006
 1954WAT      O 6380   3.925   4.747   5.193
 1954WAT     H1 6381   3.987   4.815   5.165
 1954WAT     H2 6382   3.839   4.788   5.184
 1955WAT      O 6383   3.455   4.666   4.081
 1955WAT     H1 6384   3.417   4.715   4.008
 1955WAT     H2 6385   3.481   4.733   4.144
 1956WAT      O 6386   5.017   4.893   4.984
 1956WAT     H1 6387   4.949   4.960   4.984
 1956WAT     H2 6388   5.071   4.913   4.908
 1957WAT      O 6389   5.163   3.876   4.797
 1957WAT     H1 6390   5.068   3.880   4.810
 1957WAT     H2 6391   5.195   3.958   4.836
 1958WAT      O 6392   4.216   3.506   4.627
 1958WAT     H1 6393   4.246   3.451   4.555
 1958WAT     H2 6394   4.123   3.520   4.609
 1959WAT      O 6395   4.771   5.078   4.856
 1959WAT     H1 6396   4.772   5.038   4.769
 1959WAT     H2 6397   4.716   5.155   4.845
 1960WAT      O 6398   4.900   4.750   4.365
 1960WAT     H1 6399   4.889   4.656   4.377
 1960WAT     H2 6400   4.900   4.786   4.453
 1961WAT      O 6401   4.711   4.568   4.989
 1961WAT     H1 6402   4.752   4.547   4.905
 1961WAT     H2 6403   4.783   4.594   5.046
 1962WAT      O 6404   4.455   4.313   4.300
 1962WAT     H1 6405   4.362   4.306   4.323
 1962WAT     H2 6406   4.470   4.407   4.289
 1963WAT      O 6407   4.453   3.940   4.000
 1963WAT     H1 6408   4.359   3.956   4.009
 1963WAT     H2 6409   4.485   4.012   3.945
 1964WAT      O 6410   5.105   4.408   4.998
 1964WAT     H1 6411   5.023   4.415   4.950
 1964WAT     H2 6412   5.165   4.467   4.951
 1965WAT      O 6413   4.857   4.469   4.351
 1965WAT     H1 6414   4.796   4.435   4.286
 1965WAT     H2 6415   4.856   4.405   4.422
 1966WAT      O 6416   4.802   4.087   5.092
 1966WAT     H1 6417   4.760   4.169   5.118
 1966WAT     H2 6418   4.729   4.028   5.073
 1967WAT      O 6419   4.015   4.365   4.579
 1967WAT     H1 6420   3.975   4.294   4.529
 1967WAT     H2 6421   4.024   4.331   4.667
 1968WAT      O 6422   4.062   4.734   4.795
 1968WAT     H1 6423   4.032   4.673   4.727
 1968WAT     H2 6424   4.157   4.738   4.784
 1969WAT      O 6425   3.886   4.043   4.957
 1969WAT     H1 6426   3.942   4.054   4.879
 1969WAT     H2 6427   3.938   4.080   5.028
 1970WAT      O 6428   4.871   5.091   5.161
 1970WAT     H1 6429   4.823   5.172   5.142
 1970WAT     H2 6430   4.802   5.026   5.176
 1971WAT      O 6431   3.971   4.708   5.460
 1971WAT     H1 6432   3.881   4.730   5.485
 1971WAT     H2 6433   3.974   4.720   5.365
 1972WAT      O 6434   4.675   4.393   4.051
 1972WAT     H1 6435   4.719   4.309   4.037
 1972WAT     H2 6436   4.746   4.456   4.060
 1973WAT      O 6437   3.854   4.395   5.318
 1973WAT     H1 6438   3.840   4.482   5.354
 1973WAT     H2 6439   3.766   4.361   5.303
 1974WAT      O 6440   4.486   4.887   4.448
 1974WAT     H1 6441   4.530   4.961   4.407
 1974WAT     H2 6442   4.480   4.911   4.541
 1975WAT      O 6443   4.034   4.989   5.538
 1975WAT     H1 6444   4.031   5.030   5.452
 1975WAT     H2 6445   4.017   4.896   5.522
 1976WAT      O 6446   5.033   3.518   3.883
 1976WAT     H1 6447   5.002   3.527   3.973
 1976WAT     H2 6448   5.109   3.576   3.878
 1977WAT      O 6449   3.685   4.255   4.329
 1977WAT     H1 6450   3.673   4.327   4.267
 1977WAT     H2 6451   3.654   4.178   4.281
 1978WAT      O 6452   3.449   4.572   4.909
 1978WAT     H1 6453   3.457   4.585   4.815
 1978WAT     H2 6454   3.510   4.501   4.929
 1979WAT      O 6455   3.573   4.742   4.550
 1979WAT     H1 6456   3.533   4.756   4.465
 1979WAT     H2 6457   3.663   4.714   4.530
 1980WAT      O 6458   5.169   4.787   5.384
 1980WAT     H1 6459   5.182   4.763   5.292
 1980WAT     H2 6460   5.173   4.703   5.431
 1981WAT      O 6461   4.555   5.157   5.241
 1981WAT     H1 6462   4.607   5.148   5.321
 1981WAT     H2 6463   4.471   5.191   5.270
 1982WAT      O 6464   4.753   5.185   4.184
 1982WAT     H1 6465   4.737   5.156   4.274
 1982WAT     H2 6466   4.736   5.108   4.130
 1983WAT      O 6467   4.001   5.163   4.362
 1983WAT     H1 6468   3.983   5.072   4.340
 1983WAT     H2 6469   3.915   5.199   4.386
 1984WAT      O 6470   4.723   4.936   4.040
 1984WAT     H1 6471   4.654   4.936   3.974
 1984WAT     H2 6472   4.797   4.894   3.997
 1985WAT      O 6473   4.680   5.099   4.447
 1985WAT     H1 6474   4.725   5.021   4.479
 1985WAT     H2 6475   4.713   5.170   4.502
 1986WAT      O 6476   5.154   3.992   5.481
 1986WAT     H1 6477   5.093   4.043   5.428
 1986WAT     H2 6478   5.122   3.902   5.475
 1987WAT      O 6479   3.455   4.676   5.163
 1987WAT     H1 6480   3.471   4.629   5.081
 1987WAT     H2 6481   3.501   4.625   5.230
 1988WAT      O 6482   3.932   3.589   4.667
 1988WAT     H1 6483   3.887   3.667   4.634
 1988WAT     H2 6484   3.988   3.621   4.738
 1989WAT      O 6485   4.360   3.876   5.227
 1989WAT     H1 6486   4.314   3.897   5.308
 1989WAT     H2 6487   4.320   3.794   5.197
 1990WAT      O 6488   4.861   3.998   5.340
 1990WAT     H1 6489   4.775   3.968   5.372
 1990WAT     H2 6490   4.845   4.022   5.249
 1991WAT      O 6491   4.570   4.148   5.550
 1991WAT     H1 6492   4.603   4.065   5.516
 1991WAT     H2 6493   4.649   4.200   5.565
 1992WAT      O 6494   4.243   3.551   4.155
 1992WAT     H1 6495   4.181   3.551   4.227
 1992WAT     H2 6496   4.235   3.465   4.115
 1993WAT      O 6497   4.136   3.644   4.853
 1993WAT     H1 6498   4.165   3.734   4.845
 1993WAT     H2 6499   4.190   3.595   4.791
 1994WAT      O 6500   3.911   4.101   4.440
 1994WAT     H1 6501   3.888   4.080   4.530
 1994WAT     H2 6502   3.833   4.145   4.405
 1995WAT      O 6503   4.634   4.102   4.300
 1995WAT     H1 6504   4.574   4.174   4.281
 1995WAT     H2 6505   4.689   4.096   4.221
 1996WAT      O 6506   4.155   4.191   5.506
 1996WAT     H1 6507   4.145   4.097   5.491
 1996WAT     H2 6508   4.239   4.213   5.467
 1997WAT      O 6509   4.495   3.966   4.503
 1997WAT     H1 6510   4.534   3.997   4.421
 1997WAT     H2 6511   4.531   3.878   4.514
 1998WAT      O 6512   3.668   3.832   5.322
 1998WAT     H1 6513   3.629   3.917   5.342
 1998WAT     H2 6514   3.599   3.769   5.341
 1999WAT      O 6515   3.398   3.625   4.725
 1999WAT     H1 6516   3.369   3.682   4.796
 1999WAT     H2 6517   3.473   3.577   4.761
 2000WAT      O 6518   4.553   4.225   4.912
 2000WAT     H1 6519   4.480   4.276   4.947
 2000WAT     H2 6520   4.513   4.143   4.882
 2001WAT      O 6521   4.197   3.892   4.753
 2001WAT     H1 6522   4.197   3.848   4.668
 2001WAT     H2 6523   4.286   3.925   4.763
 2002WAT      O 6524   3.782   3.881   4.649
 2002WAT     H1 6525   3.748   3.928   4.724
 2002WAT     H2 6526   3.706   3.835   4.613
 2003WAT      O 6527   4.203   3.992   4.052
 2003WAT     H1 6528   4.215   3.988   4.147
 2003WAT     H2 6529   4.165   4.079   4.036
 2004WAT      O 6530   4.599   3.770   4.853
 2004WAT     H1 6531   4.601   3.815   4.938
 2004WAT     H2 6532   4.574   3.680   4.875
 2005WAT      O 6533   4.104   4.223   3.992
 2005WAT     H1 6534   4.047   4.179   3.929
 2005WAT     H2 6535   4.175   4.259   3.938
 2006WAT      O 6536   4.942   3.511   5.437
 2006WAT     H1 6537   4.975   3.438   5.490
 2006WAT     H2 6538   4.946   3.480   5.347
 2007WAT      O 6539   3.612   4.614   5.379
 2007WAT     H1 6540   3.574   4.550   5.439
 2007WAT     H2 6541   3.643   4.684   5.436
 2008WAT      O 6542   4.227   4.298   4.927
 2008WAT     H1 6543   4.264   4.251   5.002
 2008WAT     H2 6544   4.208   4.386   4.961
 2009WAT      O 6545   3.513   3.773   4.540
 2009WAT     H1 6546   3.485   3.736   4.624
 2009WAT     H2 6547   3.507   3.700   4.479
 2010WAT      O 6548   4.006   4.202   5.159
 2010WAT     H1 6549   3.976   4.290   5.182
 2010WAT     H2 6550   4.101   4.208   5.163
 2011WAT      O 6551   3.859   4.623   4.219
 2011WAT     H1 6552   3.781   4.569   4.203
 2011WAT     H2 6553   3.932   4.571   4.185
 2012WAT      O 6554   4.935   4.523   4.798
 2012WAT     H1 6555   5.007   4.572   4.759
 2012WAT     H2 6556   4.914   4.455   4.734
 2013WAT      O 6557   4.481   3.662   4.212
 2013WAT     H1 6558   4.399   3.612   4.205
 2013WAT     H2 6559   4.461   3.746   4.171
 2014WAT      O 6560   4.473   4.530   5.387
 2014WAT     H1 6561   4.466   4.438   5.361
 2014WAT     H2 6562   4.410   4.540   5.458
 2015WAT      O 6563   4.752   4.099   4.042
 2015WAT     H1 6564   4.841   4.130   4.025
 2015WAT     H2 6565   4.749   4.012   4.003
 2016WAT      O 6566   3.863   4.590   4.583
 2016WAT     H1 6567   3.915   4.510   4.577
 2016WAT     H2 6568   3.818   4.584   4.667
 2017WAT      O 6569   4.352   4.717   4.110
 2017WAT     H1 6570   4.386   4.791   4.060
 2017WAT     H2 6571   4.269   4.748   4.146
 2018WAT      O 6572   3.612   4.286   5.274
 2018WAT     H1 6573   3.576   4.353   5.333
 2018WAT     H2 6574   3.582   4.203   5.311
 2019WAT      O 6575   3.932   4.332   5.562
 2019WAT     H1 6576   3.902   4.347   5.473
 2019WAT     H2 6577   4.009   4.276   5.553
 2020WAT      O 6578   4.466   4.812   5.362
 2020WAT     H1 6579   4.467   4.719   5.340
 2020WAT     H2 6580   4.395   4.821   5.426
 2021WAT      O 6581   4.979   4.230   3.989
 2021WAT     H1 6582   4.971   4.274   3.904
 2021WAT     H2 6583   5.051   4.276   4.032
 2022WAT      O 6584   5.087   4.476   5.297
 2022WAT     H1 6585   5.015   4.535   5.277
 2022WAT     H2 6586   5.140   4.475   5.217
 2023WAT      O 6587   5.082   4.916   4.262
 2023WAT     H1 6588   5.018   4.850   4.289
 2023WAT     H2 6589   5.044   4.956   4.184
 2024WAT      O 6590   4.640   4.649   4.646
 2024WAT     H1 6591   4.675   4.589   4.580
 2024WAT     H2 6592   4.552   4.616   4.663
 2025WAT      O 6593   4.249   4.725   4.387
 2025WAT     H1 6594   4.317   4.779   4.425
 2025WAT     H2 6595   4.170   4.779   4.391
 2026WAT      O 6596   4.179   4.425   4.348
 2026WAT     H1 6597   4.225   4.506   4.371
 2026WAT     H2 6598   4.144   4.393   4.431
 2027WAT      O 6599   4.409   4.976   5.071
 2027WAT     H1 6600   4.474   4.997   5.139
 2027WAT     H2 6601   4.446   4.900   5.026
 2028WAT      O 6602   3.769   3.460   4.396
 2028WAT     H1 6603   3.756   3.459   4.490
 2028WAT     H2 6604   3.687   3.493   4.360
 2029WAT      O 6605   4.537   4.777   4.943
 2029WAT     H1 6606   4.601   4.706   4.954
 2029WAT     H2 6607   4.589   4.855   4.925
 2030WAT      O 6608   4.921   4.805   3.915
 2030WAT     H1 6609   4.899   4.733   3.975
 2030WAT     H2 6610   4.882   4.780   3.832
 2031WAT      O 6611   4.714   4.856   5.263
 2031WAT     H1 6612   4.748   4.915   5.331
 2031WAT     H2 6613   4.622   4.843   5.286
 2032WAT      O 6614   3.499   5.208   3.993
 2032WAT     H1 6615   3.535   5.268   3.927
 2032WAT     H2 6616   3.485   5.262   4.070
 2033WAT      O 6617   3.469   3.635   5.342
 2033WAT     H1 6618   3.398   3.655   5.402
 2033WAT     H2 6619   3.511   3.558   5.379
 2034WAT      O 6620   4.879   4.597   4.082
 2034WAT     H1 6621   4.851   4.643   4.160
 2034WAT     H2 6622   4.959   4.551   4.108
 2035WAT      O 6623   3.498   5.034   5.440
 2035WAT     H1 6624   3.509   4.940   5.426
 2035WAT     H2 6625   3.433   5.061   5.375
 2036WAT      O 6626   4.101   4.946   4.075
 2036WAT     H1 6627   4.100   5.019   4.013
 2036WAT     H2 6628   4.009   4.921   4.084
 2037WAT      O 6629   3.661   4.468   4.149
 2037WAT     H1 6630   3.600   4.542   4.150
 2037WAT     H2 6631   3.709   4.477   4.066
 2038WAT      O 6632   4.618   3.885   5.117
 2038WAT     H1 6633   4.655   3.803   5.149
 2038WAT     H2 6634   4.532   3.891   5.158
 2039WAT      O 6635   4.955   3.780   4.197
 2039WAT     H1 6636   4.892   3.791   4.126
 2039WAT     H2 6637   4.906   3.802   4.276
 2040WAT      O 6638   4.400   4.952   3.941
 2040WAT     H1 6639   4.410   4.932   3.848
 2040WAT     H2 6640   4.310   4.927   3.961
 2041WAT      O 6641   4.152   4.008   4.339
 2041WAT     H1 6642   4.081   4.055   4.383
 2041WAT     H2 6643   4.180   3.942   4.403
 2042WAT      O 6644   4.314   4.150   5.139
 2042WAT     H1 6645   4.364   4.198   5.206
 2042WAT     H2 6646   4.329   4.058   5.160
 2043WAT      O 6647   4.555   3.681   4.483
 2043WAT     H1 6648   4.543   3.682   4.388
 2043WAT     H2 6649   4.650   3.685   4.495
 2044WAT      O 6650   4.264   5.204   4.410
 2044WAT     H1 6651   4.289   5.200   4.318
 2044WAT     H2 6652   4.169   5.191   4.410
 2045WAT      O 6653   3.972   3.839   4.077
 2045WAT     H1 6654   4.057   3.883   4.070
 2045WAT     H2 6655   3.936   3.870   4.159
 2046WAT      O 6656   5.035   3.772   5.223
 2046WAT     H1 6657   4.985   3.846   5.257
 2046WAT     H2 6658   5.117   3.811   5.192
 2047WAT      O 6659   4.864   4.296   4.568
 2047WAT     H1 6660   4.770   4.298   4.585
 2047WAT     H2 6661   4.896   4.217   4.612
 2048WAT      O 6662   3.862   4.464   3.924
 2048WAT     H1 6663   3.939   4.453   3.980
 2048WAT     H2 6664   3.870   4.395   3.859
 2049WAT      O 6665   5.065   5.013   4.735
 2049WAT     H1 6666   5.077   5.095   4.783
 2049WAT     H2 6667   5.151   4.992   4.701
 2050WAT      O 6668   3.812   5.222   4.703
 2050WAT     H1 6669   3.885   5.168   4.730
 2050WAT     H2 6670   3.850   5.309   4.689
 2051WAT      O 6671   3.500   4.829   4.290
 2051WAT     H1 6672   3.408   4.853   4.289
 2051WAT     H2 6673   3.547   4.912   4.278
 2052WAT      O 6674   4.123   5.140   3.885
 2052WAT     H1 6675   4.202   5.169   3.840
 2052WAT     H2 6676   4.071   5.097   3.817
 2053WAT      O 6677   4.739   5.125   5.477
 2053WAT     H1 6678   4.834   5.116   5.472
 2053WAT     H2 6679   4.724   5.191   5.545
 2054WAT      O 6680   5.028   5.062   4.027
 2054WAT     H1 6681   5.000   5.021   3.946
 2054WAT     H2 6682   5.008   5.155   4.015
 2055WAT      O 6683   4.175   4.662   3.871
 2055WAT     H1 6684   4.164   4.600   3.944
 2055WAT     H2 6685   4.158   4.609   3.793
 2056WAT      O 6686   4.190   4.530   5.469
 2056WAT     H1 6687   4.113   4.587   5.461
 2056WAT     H2 6688   4.208   4.501   5.380
 2057WAT      O 6689   4.499   4.568   3.932
 2057WAT     H1 6690   4.444   4.613   3.996
 2057WAT     H2 6691   4.561   4.517   3.984
 2058WAT      O 6692   4.904   4.703   5.525
 2058WAT     H1 6693   4.978   4.737   5.475
 2058WAT     H2 6694   4.828   4.720   5.470
 2059WAT      O 6695   4.065   4.464   4.121
 2059WAT     H1 6696   4.108   4.447   4.206
 2059WAT     H2 6697   4.078   4.383   4.072
 2060WAT      O 6698   3.882   4.062   5.402
 2060WAT     H1 6699   3.829   4.013   5.339
 2060WAT     H2 6700   3.949   4.105   5.349
 2061WAT      O 6701   4.317   4.366   3.846
 2061WAT     H1 6702   4.369   4.295   3.810
 2061WAT     H2 6703   4.381   4.430   3.876
 2062WAT      O 6704   4.771   4.509   5.378
 2062WAT     H1 6705   4.813   4.524   5.463
 2062WAT     H2 6706   4.678   4.521   5.395
 2063WAT      O 6707   3.930   3.758   5.410
 2063WAT     H1 6708   3.921   3.697   5.338
 2063WAT     H2 6709   3.872   3.831   5.387
 2064WAT      O 6710   4.207   3.614   5.113
 2064WAT     H1 6711   4.162   3.616   5.029
 2064WAT     H2 6712   4.144   3.574   5.173
 2065WAT      O 6713   4.248   4.504   5.175
 2065WAT     H1 6714   4.289   4.588   5.158
 2065WAT     H2 6715   4.156   4.517   5.153
 2066WAT      O 6716   4.481   4.277   5.314
 2066WAT     H1 6717   4.493   4.217   5.388
 2066WAT     H2 6718   4.567   4.281   5.272
 2067WAT      O 6719   4.715   4.332   5.171
 2067WAT     H1 6720   4.662   4.385   5.111
 2067WAT     H2 6721   4.749   4.396   5.235
 2068WAT      O 6722   4.033   5.134   5.287
 2068WAT     H1 6723   3.979   5.207   5.255
 2068WAT     H2 6724   4.058   5.087   5.208
 2069WAT      O 6725   4.158   3.931   5.440
 2069WAT     H1 6726   4.217   3.900   5.508
 2069WAT     H2 6727   4.076   3.884   5.455
 2070WAT      O 6728   4.640   3.893   5.463
 2070WAT     H1 6729   4.571   3.827   5.456
 2070WAT     H2 6730   4.712   3.848   5.507
 2071WAT      O 6731   4.703   3.552   4.069
 2071WAT     H1 6732   4.731   3.468   4.104
 2071WAT     H2 6733   4.625   3.576   4.120
 2072WAT      O 6734   4.318   5.258   5.313
 2072WAT     H1 6735   4.311   5.348   5.344
 2072WAT     H2 6736   4.228   5.226   5.310
 2073WAT      O 6737   4.157   3.676   3.913
 2073WAT     H1 6738   4.122   3.608   3.855
 2073WAT     H2 6739   4.177   3.629   3.995
 2074WAT      O 6740   4.373   5.174   4.075
 2074WAT     H1 6741   4.463   5.208   4.077
 2074WAT     H2 6742   4.376   5.102   4.012
 2075WAT      O 6743   3.737   4.712   3.898
 2075WAT     H1 6744   3.781   4.766   3.964
 2075WAT     H2 6745   3.786   4.629   3.899
 2076WAT      O 6746   3.459   4.991   4.643
 2076WAT     H1 6747   3.492   4.904   4.620
 2076WAT     H2 6748   3.501   5.011   4.726
 2077WAT      O 6749   3.918   4.824   4.409
 2077WAT     H1 6750   3.888   4.811   4.499
 2077WAT     H2 6751   3.908   4.738   4.368
 2078WAT      O 6752   3.507   5.077   4.917
 2078WAT     H1 6753   3.464   5.095   5.000
 2078WAT     H2 6754   3.564   5.153   4.903
 2079WAT      O 6755   5.071   5.027   5.346
 2079WAT     H1 6756   5.011   5.033   5.271
 2079WAT     H2 6757   5.084   4.933   5.359
 2080WAT      O 6758   5.195   4.802   3.880
 2080WAT     H1 6759   5.112   4.808   3.927
 2080WAT     H2 6760   5.213   4.891   3.849
 2081WAT      O 6761   5.141   4.476   4.130
 2081WAT     H1 6762   5.217   4.533   4.140
 2081WAT     H2 6763   5.142   4.419   4.207
 2082WAT      O 6764   3.491   4.328   4.553
 2082WAT     H1 6765   3.425   4.302   4.489
 2082WAT     H2 6766   3.574   4.318   4.508
 2083WAT      O 6767   5.241   4.562   4.614
 2083WAT     H1 6768   5.278   4.483   4.574
 2083WAT     H2 6769   5.305   4.630   4.596
 2084WAT      O 6770   4.940   4.700   5.156
 2084WAT     H1 6771   4.858   4.743   5.182
 2084WAT     H2 6772   4.980   4.761   5.094
 2085WAT      O 6773   5.146   4.505   3.846
 2085WAT     H1 6774   5.173   4.596   3.833
 2085WAT     H2 6775   5.127   4.499   3.939
 2086WAT      O 6776   4.786   3.808   3.975
 2086WAT     H1 6777   4.827   3.789   3.891
 2086WAT     H2 6778   4.755   3.723   4.006
 2087WAT      O 6779   5.135   4.299   4.345
 2087WAT     H1 6780   5.098   4.222   4.302
 2087WAT     H2 6781   5.063   4.337   4.394
 2088WAT      O 6782   3.594   4.367   5.007
 2088WAT     H1 6783   3.631   4.358   5.095
 2088WAT     H2 6784   3.538   4.291   4.997
 2089WAT      O 6785   5.074   4.214   5.308
 2089WAT     H1 6786   5.051   4.191   5.218
 2089WAT     H2 6787   5.101   4.306   5.304
 2090WAT      O 6788   3.550   4.058   5.398
 2090WAT     H1 6789   3.460   4.055   5.431
 2090WAT     H2 6790   3.604   4.078   5.474
 2091WAT      O 6791   5.063   4.122   4.675
 2091WAT     H1 6792   5.115   4.072   4.612
 2091WAT     H2 6793   5.122   4.135   4.749
 2092WAT      O 6794   5.081   4.130   5.027
 2092WAT     H1 6795   4.986   4.127   5.039
 2092WAT     H2 6796   5.099   4.221   5.004
 2093WAT      O 6797   5.012   4.047   4.269
 2093WAT     H1 6798   5.062   4.024   4.347
 2093WAT     H2 6799   4.992   3.964   4.227
 2094WAT      O 6800   3.600   3.486   4.832
 2094WAT     H1 6801   3.665   3.431   4.788
 2094WAT     H2 6802   3.642   3.511   4.915
 2095WAT      O 6803   5.155   3.911   4.522
 2095WAT     H1 6804   5.144   3.896   4.616
 2095WAT     H2 6805   5.231   3.858   4.498
 2096WAT      O 6806   4.990   3.505   5.168
 2096WAT     H1 6807   5.053   3.566   5.205
 2096WAT     H2 6808   5.004   3.509   5.074
 2097WAT      O 6809   5.244   3.694   3.846
 2097WAT     H1 6810   5.336   3.681   3.825
 2097WAT     H2 6811   5.242   3.702   3.942
 2098WAT      O 6812   5.251   3.771   4.109
 2098WAT     H1 6813   5.172   3.765   4.162
 2098WAT     H2 6814   5.272   3.865   4.108
 2099WAT      O 6815   4.945   5.175   4.508
 2099WAT     H1 6816   5.005   5.143   4.441
 2099WAT     H2 6817   4.971   5.128   4.587
 2100WAT      O 6818   3.575   3.501   5.107
 2100WAT     H1 6819   3.540   3.547   5.183
 2100WAT     H2 6820   3.542   3.412   5.115
 2101WAT      O 6821   4.106   4.974   5.083
 2101WAT     H1 6822   4.082   5.001   4.995
 2101WAT     H2 6823   4.200   4.991   5.089
 2102WAT      O 6824   4.327   3.620   5.459
 2102WAT     H1 6825   4.320   3.679   5.534
 2102WAT     H2 6826   4.421   3.609   5.444
 2103WAT      O 6827   4.590   3.586   5.423
 2103WAT     H1 6828   4.652   3.618   5.357
 2103WAT     H2 6829   4.645   3.537   5.485
 2104WAT      O 6830   5.232   5.176   5.163
 2104WAT     H1 6831   5.183   5.216   5.092
 2104WAT     H2 6832   5.171   5.113   5.203
 2105WAT      O 6833   3.643   3.454   5.434
 2105WAT     H1 6834   3.697   3.436   5.358
 2105WAT     H2 6835   3.649   3.375   5.488
 2106WAT      O 6836   3.720   5.113   5.235
 2106WAT     H1 6837   3.660   5.100   5.309
 2106WAT     H2 6838   3.719   5.029   5.189
 2107WAT      O 6839   4.664   3.442   5.055
 2107WAT     H1 6840   4.577   3.476   5.035
 2107WAT     H2 6841   4.653   3.395   5.138
 2108WAT      O 6842   4.755   3.663   5.194
 2108WAT     H1 6843   4.722   3.581   5.156
 2108WAT     H2 6844   4.850   3.659   5.182
 2109WAT      O 6845   5.000   5.240   4.891
 2109WAT     H1 6846   4.954   5.315   4.854
 2109WAT     H2 6847   4.938   5.168   4.885
 2110WAT      O 6848   3.683   4.850   5.130
 2110WAT     H1 6849   3.610   4.788   5.123
 2110WAT     H2 6850   3.689   4.889   5.043
 2111WAT      O 6851   4.043   5.071   4.809
 2111WAT     H1 6852   4.095   5.010   4.756
 2111WAT     H2 6853   4.108   5.121   4.858
 2112WAT      O 6854   4.317   5.160   4.891
 2112WAT     H1 6855   4.346   5.135   4.804
 2112WAT     H2 6856   4.369   5.105   4.950
 2113WAT      O 6857   4.439   3.534   4.949
 2113WAT     H1 6858   4.361   3.581   4.977
 2113WAT     H2 6859   4.410   3.444   4.938
 2114WAT      O 6860   4.894   3.604   4.754
 2114WAT     H1 6861   4.938   3.599   4.669
 2114WAT     H2 6862   4.867   3.696   4.761
 2115WAT      O 6863   5.081   3.567   4.555
 2115WAT     H1 6864   5.075   3.473   4.540
 2115WAT     H2 6865   5.159   3.578   4.609
 2116WAT      O 6866   3.511   5.181   4.451
 2116WAT     H1 6867   3.494   5.118   4.521
 2116WAT     H2 6868   3.425   5.202   4.416
 2117WAT      O 6869   3.574   3.564   4.201
 2117WAT     H1 6870   3.649   3.576   4.144
 2117WAT     H2 6871   3.527   3.648   4.197
 2118WAT      O 6872   4.228   3.776   4.501
 2118WAT     H1 6873   4.146   3.738   4.466
 2118WAT     H2 6874   4.278   3.700   4.531
 2119WAT      O 6875   4.678   3.442   4.624
 2119WAT     H1 6876   4.738   3.499   4.672
 2119WAT     H2 6877   4.604   3.499   4.602
 2120WAT      O 6878   4.992   3.482   4.152
 2120WAT     H1 6879   5.012   3.572   4.178
 2120WAT     H2 6880   4.914   3.459   4.201
 2121WAT      O 6881   3.672   5.051   4.196
 2121WAT     H1 6882   3.619   5.089   4.125
 2121WAT     H2 6883   3.664   5.113   4.268
 2122WAT      O 6884   4.030   3.591   4.361
 2122WAT     H1 6885   3.967   3.521   4.378
 2122WAT     H2 6886   3.976   3.667   4.339
 2123WAT      O 6887   5.148   5.206   4.328
 2123WAT     H1 6888   5.165   5.138   4.263
 2123WAT     H2 6889   5.078   5.259   4.289
 2124WAT      O 6890   3.932   5.245   4.083
 2124WAT     H1 6891   4.005   5.217   4.028
 2124WAT     H2 6892   3.958   5.222   4.172
 2125WAT      O 6893   3.848   4.857   4.084
 2125WAT     H1 6894   3.785   4.904   4.138
 2125WAT     H2 6895   3.859   4.773   4.127
 2126WAT      O 6896   4.593   4.262   2.699
 2126WAT     H1 6897   4.585   4.171   2.672
 2126WAT     H2 6898   4.552   4.312   2.628
 2127WAT      O 6899   4.407   4.440   2.887
 2127WAT     H1 6900   4.329   4.392   2.916
 2127WAT     H2 6901   4.472   4.372   2.869
 2128WAT      O 6902   3.808   4.471   2.974
 2128WAT     H1 6903   3.725   4.446   3.014
 2128WAT     H2 6904   3.869   4.478   3.048
 2129WAT      O 6905   4.809   4.881   2.765
 2129WAT     H1 6906   4.763   4.803   2.798
 2129WAT     H2 6907   4.890   4.883   2.815
 2130WAT      O 6908   3.806   4.875   2.994
 2130WAT     H1 6909   3.837   4.785   2.976
 2130WAT     H2 6910   3.881   4.930   2.971
 2131WAT      O 6911   3.649   3.967   2.353
 2131WAT     H1 6912   3.560   4.001   2.343
 2131WAT     H2 6913   3.678   3.947   2.264
 2132WAT      O 6914   3.446   4.227   2.941
 2132WAT     H1 6915   3.503   4.150   2.941
 2132WAT     H2 6916   3.446   4.257   2.850
 2133WAT      O 6917   4.431   5.109   2.727
 2133WAT     H1 6918   4.369   5.155   2.670
 2133WAT     H2 6919   4.517   5.125   2.687
 2134WAT      O 6920   4.351   4.707   2.887
 2134WAT     H1 6921   4.344   4.613   2.871
 2134WAT     H2 6922   4.427   4.717   2.945
 2135WAT      O 6923   4.454   3.988   2.910
 2135WAT     H1 6924   4.491   3.901   2.899
 2135WAT     H2 6925   4.444   4.022   2.821
 2136WAT      O 6926   3.867   3.825   2.456
 2136WAT     H1 6927   3.878   3.915   2.487
 2136WAT     H2 6928   3.776   3.821   2.427
 2137WAT      O 6929   4.832   3.738   2.603
 2137WAT     H1 6930   4.914   3.689   2.608
 2137WAT     H2 6931   4.835   3.797   2.679
 2138WAT      O 6932   3.632   4.018   2.981
 2138WAT     H1 6933   3.700   4.044   3.043
 2138WAT     H2 6934   3.600   3.934   3.014
 2139WAT      O 6935   4.051   4.122   2.890
 2139WAT     H1 6936   4.102   4.172   2.954
 2139WAT     H2 6937   4.104   4.045   2.872
 2140WAT      O 6938   5.261   3.939   3.260
 2140WAT     H1 6939   5.191   3.978   3.208
 2140WAT     H2 6940   5.288   4.009   3.320
 2141WAT      O 6941   3.879   3.586   3.316
 2141WAT     H1 6942   3.879   3.638   3.236
 2141WAT     H2 6943   3.796   3.539   3.314
 2142WAT      O 6944   4.518   4.597   2.466
 2142WAT     H1 6945   4.456   4.644   2.410
 2142WAT     H2 6946   4.569   4.667   2.508
 2143WAT      O 6947   4.004   4.550   3.134
 2143WAT     H1 6948   3.971   4.613   3.198
 2143WAT     H2 6949   4.022   4.603   3.056
 2144WAT      O 6950   4.856   3.932   2.881
 2144WAT     H1 6951   4.785   3.961   2.939
 2144WAT     H2 6952   4.892   4.013   2.845
 2145WAT      O 6953   3.847   3.757   3.117
 2145WAT     H1 6954   3.882   3.842   3.087
 2145WAT     H2 6955   3.754   3.772   3.129
 2146WAT      O 6956   3.925   4.747   3.315
 2146WAT     H1 6957   3.987   4.815   3.287
 2146WAT     H2 6958   3.839   4.788   3.306
 2147WAT      O 6959   3.455   4.666   2.203
 2147WAT     H1 6960   3.417   4.715   2.130
 2147WAT     H2 6961   3.481   4.733   2.267
 2148WAT      O 6962   5.017   4.893   3.107
 2148WAT     H1 6963   4.949   4.960   3.106
 2148WAT     H2 6964   5.071   4.913   3.030
 2149WAT      O 6965   5.163   3.876   2.920
 2149WAT     H1 6966   5.068   3.880   2.933
 2149WAT     H2 6967   5.195   3.958   2.958
 2150WAT      O 6968   4.216   3.506   2.749
 2150WAT     H1 6969   4.246   3.451   2.678
 2150WAT     H2 6970   4.123   3.520   2.731
 2151WAT      O 6971   4.771   5.078   2.978
 2151WAT     H1 6972   4.772   5.038   2.892
 2151WAT     H2 6973   4.716   5.155   2.968
 2152WAT      O 6974   4.900   4.750   2.487
 2152WAT     H1 6975   4.889   4.656   2.500
 2152WAT     H2 6976   4.900   4.786   2.576
 2153WAT      O 6977   4.711   4.568   3.111
 2153WAT     H1 6978   4.752   4.547   3.028
 2153WAT     H2 6979   4.783   4.594   3.168
 2154WAT      O 6980   4.455   4.313   2.423
 2154WAT     H1 6981   4.362   4.306   2.446
 2154WAT     H2 6982   4.470   4.407   2.411
 2155WAT      O 6983   4.453   3.940   2.123
 2155WAT     H1 6984   4.359   3.956   2.131
 2155WAT     H2 6985   4.485   4.012   2.068
 2156WAT      O 6986   5.105   4.408   3.120
 2156WAT     H1 6987   5.023   4.415   3.073
 2156WAT     H2 6988   5.165   4.467   3.074
 2157WAT      O 6989   4.857   4.469   2.473
 2157WAT     H1 6990   4.796   4.435   2.409
 2157WAT     H2 6991   4.856   4.405   2.544
 2158WAT      O 6992   4.802   4.087   3.215
 2158WAT     H1 6993   4.760   4.169   3.240
 2158WAT     H2 6994   4.729   4.028   3.196
 2159WAT      O 6995   4.015   4.365   2.701
 2159WAT     H1 6996   3.975   4.294   2.652
 2159WAT     H2 6997   4.024   4.331   2.790
 2160WAT      O 6998   4.062   4.734   2.918
 2160WAT     H1 6999   4.032   4.673   2.850
 2160WAT     H2 7000   4.157   4.738   2.906
 2161WAT      O 7001   3.886   4.043   3.079
 2161WAT     H1 7002   3.942   4.054   3.002
 2161WAT     H2 7003   3.938   4.080   3.151
 2162WAT      O 7004   4.871   5.091   3.284
 2162WAT     H1 7005   4.823   5.172   3.264
 2162WAT     H2 7006   4.802   5.026   3.299
 2163WAT      O 7007   3.971   4.708   3.583
 2163WAT     H1 7008   3.881   4.730   3.607
 2163WAT     H2 7009   3.974   4.720   3.488
 2164WAT      O 7010   4.675   4.393   2.174
 2164WAT     H1 7011   4.719   4.309   2.159
 2164WAT     H2 7012   4.746   4.456   2.183
 2165WAT      O 7013   3.854   4.395   3.440
 2165WAT     H1 7014   3.840   4.482   3.477
 2165WAT     H2 7015   3.766   4.361   3.426
 2166WAT      O 7016   4.486   4.887   2.571
 2166WAT     H1 7017   4.530   4.961   2.529
 2166WAT     H2 7018   4.480   4.911   2.663
 2167WAT      O 7019   4.034   4.989   3.661
 2167WAT     H1 7020   4.031   5.030   3.574
 2167WAT     H2 7021   4.017   4.896   3.645
 2168WAT      O 7022   5.033   3.518   2.005
 2168WAT     H1 7023   5.002   3.527   2.095
 2168WAT     H2 7024   5.109   3.576   2.000
 2169WAT      O 7025   3.685   4.255   2.451
 2169WAT     H1 7026   3.673   4.327   2.390
 2169WAT     H2 7027   3.654   4.178   2.403
 2170WAT      O 7028   5.229   5.067   3.791
 2170WAT     H1 7029   5.276   5.115   3.859
 2170WAT     H2 7030   5.291   5.061   3.718
 2171WAT      O 7031   3.573   4.742   2.673
 2171WAT     H1 7032   3.533   4.756   2.587
 2171WAT     H2 7033   3.663   4.714   2.653
 2172WAT      O 7034   5.169   4.787   3.507
 2172WAT     H1 7035   5.182   4.763   3.415
 2172WAT     H2 7036   5.173   4.703   3.554
 2173WAT      O 7037   4.555   5.157   3.364
 2173WAT     H1 7038   4.607   5.148   3.444
 2173WAT     H2 7039   4.471   5.191   3.393
 2174WAT      O 7040   4.753   5.185   2.306
 2174WAT     H1 7041   4.737   5.156   2.396
 2174WAT     H2 7042   4.736   5.108   2.253
 2175WAT      O 7043   4.001   5.163   2.484
 2175WAT     H1 7044   3.983   5.072   2.463
 2175WAT     H2 7045   3.915   5.199   2.508
 2176WAT      O 7046   4.723   4.936   2.162
 2176WAT     H1 7047   4.654   4.936   2.096
 2176WAT     H2 7048   4.797   4.894   2.119
 2177WAT      O 7049   4.680   5.099   2.570
 2177WAT     H1 7050   4.725   5.021   2.601
 2177WAT     H2 7051   4.713   5.170   2.624
 2178WAT      O 7052   5.154   3.992   3.603
 2178WAT     H1 7053   5.093   4.043   3.550
 2178WAT     H2 7054   5.122   3.902   3.597
 2179WAT      O 7055   3.932   3.589   2.789
 2179WAT     H1 7056   3.887   3.667   2.756
 2179WAT     H2 7057   3.988   3.621   2.860
 2180WAT      O 7058   4.360   3.876   3.350
 2180WAT     H1 7059   4.314   3.897   3.431
 2180WAT     H2 7060   4.320   3.794   3.320
 2181WAT      O 7061   4.861   3.998   3.463
 2181WAT     H1 7062   4.775   3.968   3.495
 2181WAT     H2 7063   4.845   4.022   3.372
 2182WAT      O 7064   4.570   4.148   3.673
 2182WAT     H1 7065   4.603   4.065   3.639
 2182WAT     H2 7066   4.649   4.200   3.688
 2183WAT      O 7067   4.243   3.551   2.278
 2183WAT     H1 7068   4.181   3.551   2.350
 2183WAT     H2 7069   4.235   3.465   2.238
 2184WAT      O 7070   4.136   3.644   2.975
 2184WAT     H1 7071   4.165   3.734   2.967
 2184WAT     H2 7072   4.190   3.595   2.914
 2185WAT      O 7073   3.911   4.101   2.562
 2185WAT     H1 7074   3.888   4.080   2.653
 2185WAT     H2 7075   3.833   4.145   2.528
 2186WAT      O 7076   4.634   4.102   2.422
 2186WAT     H1 7077   4.574   4.174   2.404
 2186WAT     H2 7078   4.689   4.096   2.344
 2187WAT      O 7079   4.155   4.191   3.629
 2187WAT     H1 7080   4.145   4.097   3.614
 2187WAT     H2 7081   4.239   4.213   3.589
 2188WAT      O 7082   4.495   3.966   2.625
 2188WAT     H1 7083   4.534   3.997   2.544
 2188WAT     H2 7084   4.531   3.878   2.637
 2189WAT      O 7085   4.325   3.841   3.751
 2189WAT     H1 7086   4.256   3.822   3.815
 2189WAT     H2 7087   4.400   3.869   3.804
 2190WAT      O 7088   3.417   4.019   1.969
 2190WAT     H1 7089   3.409   4.113   1.983
 2190WAT     H2 7090   3.382   4.005   1.881
 2191WAT      O 7091   4.553   4.225   3.035
 2191WAT     H1 7092   4.480   4.276   3.070
 2191WAT     H2 7093   4.513   4.143   3.005
 2192WAT      O 7094   4.197   3.892   2.875
 2192WAT     H1 7095   4.197   3.848   2.790
 2192WAT     H2 7096   4.286   3.925   2.886
 2193WAT      O 7097   3.782   3.881   2.771
 2193WAT     H1 7098   3.748   3.928   2.847
 2193WAT     H2 7099   3.706   3.835   2.735
 2194WAT      O 7100   4.203   3.992   2.174
 2194WAT     H1 7101   4.215   3.988   2.269
 2194WAT     H2 7102   4.165   4.079   2.159
 2195WAT      O 7103   4.599   3.770   2.976
 2195WAT     H1 7104   4.601   3.815   3.060
 2195WAT     H2 7105   4.574   3.680   2.997
 2196WAT      O 7106   4.104   4.223   2.114
 2196WAT     H1 7107   4.047   4.179   2.051
 2196WAT     H2 7108   4.175   4.259   2.061
 2197WAT      O 7109   4.942   3.511   3.560
 2197WAT     H1 7110   4.975   3.438   3.612
 2197WAT     H2 7111   4.946   3.480   3.470
 2198WAT      O 7112   4.227   4.298   3.050
 2198WAT     H1 7113   4.264   4.251   3.124
 2198WAT     H2 7114   4.208   4.386   3.084
 2199WAT      O 7115   3.513   3.773   2.663
 2199WAT     H1 7116   3.485   3.736   2.747
 2199WAT     H2 7117   3.507   3.700   2.601
 2200WAT      O 7118   4.006   4.202   3.282
 2200WAT     H1 7119   3.976   4.290   3.304
 2200WAT     H2 7120   4.101   4.208   3.285
 2201WAT      O 7121   3.859   4.623   2.341
 2201WAT     H1 7122   3.781   4.569   2.325
 2201WAT     H2 7123   3.932   4.571   2.308
 2202WAT      O 7124   4.935   4.523   2.921
 2202WAT     H1 7125   5.007   4.572   2.882
 2202WAT     H2 7126   4.914   4.455   2.856
 2203WAT      O 7127   4.481   3.662   2.335
 2203WAT     H1 7128   4.399   3.612   2.327
 2203WAT     H2 7129   4.461   3.746   2.293
 2204WAT      O 7130   4.473   4.530   3.509
 2204WAT     H1 7131   4.466   4.438   3.484
 2204WAT     H2 7132   4.410   4.540   3.581
 2205WAT      O 7133   4.752   4.099   2.165
 2205WAT     H1 7134   4.841   4.130   2.147
 2205WAT     H2 7135   4.749   4.012   2.125
 2206WAT      O 7136   3.863   4.590   2.705
 2206WAT     H1 7137   3.915   4.510   2.700
 2206WAT     H2 7138   3.818   4.584   2.789
 2207WAT      O 7139   4.352   4.717   2.232
 2207WAT     H1 7140   4.386   4.791   2.183
 2207WAT     H2 7141   4.269   4.748   2.269
 2208WAT      O 7142   3.932   4.332   3.685
 2208WAT     H1 7143   3.902   4.347   3.595
 2208WAT     H2 7144   4.009   4.276   3.676
 2209WAT      O 7145   4.466   4.812   3.484
 2209WAT     H1 7146   4.467   4.719   3.463
 2209WAT     H2 7147   4.395   4.821   3.548
 2210WAT      O 7148   4.979   4.230   2.111
 2210WAT     H1 7149   4.971   4.274   2.026
 2210WAT     H2 7150   5.051   4.276   2.155
 2211WAT      O 7151   5.087   4.476   3.419
 2211WAT     H1 7152   5.015   4.535   3.399
 2211WAT     H2 7153   5.140   4.475   3.339
 2212WAT      O 7154   5.082   4.916   2.384
 2212WAT     H1 7155   5.018   4.850   2.412
 2212WAT     H2 7156   5.044   4.956   2.307
 2213WAT      O 7157   4.640   4.649   2.769
 2213WAT     H1 7158   4.675   4.589   2.703
 2213WAT     H2 7159   4.552   4.616   2.786
 2214WAT      O 7160   4.249   4.725   2.510
 2214WAT     H1 7161   4.317   4.779   2.548
 2214WAT     H2 7162   4.170   4.779   2.513
 2215WAT      O 7163   3.463   4.286   2.059
 2215WAT     H1 7164   3.550   4.315   2.087
 2215WAT     H2 7165   3.414   4.368   2.047
 2216WAT      O 7166   4.179   4.425   2.471
 2216WAT     H1 7167   4.225   4.506   2.493
 2216WAT     H2 7168   4.144   4.393   2.554
 2217WAT      O 7169   4.409   4.976   3.194
 2217WAT     H1 7170   4.474   4.997   3.262
 2217WAT     H2 7171   4.446   4.900   3.148
 2218WAT      O 7172   3.769   3.460   2.518
 2218WAT     H1 7173   3.756   3.459   2.613
 2218WAT     H2 7174   3.687   3.493   2.483
 2219WAT      O 7175   4.537   4.777   3.066
 2219WAT     H1 7176   4.601   4.706   3.077
 2219WAT     H2 7177   4.589   4.855   3.048
 2220WAT      O 7178   4.921   4.805   2.038
 2220WAT     H1 7179   4.899   4.733   2.097
 2220WAT     H2 7180   4.882   4.780   1.954
 2221WAT      O 7181   4.714   4.856   3.386
 2221WAT     H1 7182   4.748   4.915   3.454
 2221WAT     H2 7183   4.622   4.843   3.409
 2222WAT      O 7184   3.499   5.208   2.115
 2222WAT     H1 7185   3.535   5.268   2.050
 2222WAT     H2 7186   3.485   5.262   2.193
 2223WAT      O 7187   4.879   4.597   2.204
 2223WAT     H1 7188   4.851   4.643   2.283
 2223WAT     H2 7189   4.959   4.551   2.231
 2224WAT      O 7190   3.498   5.034   3.563
 2224WAT     H1 7191   3.509   4.940   3.549
 2224WAT     H2 7192   3.433   5.061   3.498
 2225WAT      O 7193   4.297   4.861   3.703
 2225WAT     H1 7194   4.265   4.789   3.757
 2225WAT     H2 7195   4.229   4.929   3.710
 2226WAT      O 7196   4.101   4.946   2.197
 2226WAT     H1 7197   4.100   5.019   2.136
 2226WAT     H2 7198   4.009   4.921   2.206
 2227WAT      O 7199   3.661   4.468   2.272
 2227WAT     H1 7200   3.600   4.542   2.273
 2227WAT     H2 7201   3.709   4.477   2.189
 2228WAT      O 7202   4.618   3.885   3.239
 2228WAT     H1 7203   4.655   3.803   3.272
 2228WAT     H2 7204   4.532   3.891   3.281
 2229WAT      O 7205   4.955   3.780   2.320
 2229WAT     H1 7206   4.892   3.791   2.249
 2229WAT     H2 7207   4.906   3.802   2.399
 2230WAT      O 7208   4.400   4.952   2.063
 2230WAT     H1 7209   4.410   4.932   1.970
 2230WAT     H2 7210   4.310   4.927   2.084
 2231WAT      O 7211   4.152   4.008   2.462
 2231WAT     H1 7212   4.081   4.055   2.506
 2231WAT     H2 7213   4.180   3.942   2.525
 2232WAT      O 7214   4.314   4.150   3.262
 2232WAT     H1 7215   4.364   4.198   3.328
 2232WAT     H2 7216   4.329   4.058   3.282
 2233WAT      O 7217   4.555   3.681   2.606
 2233WAT     H1 7218   4.543   3.682   2.511
 2233WAT     H2 7219   4.650   3.685   2.618
 2234WAT      O 7220   4.264   5.204   2.533
 2234WAT     H1 7221   4.289   5.200   2.441
 2234WAT     H2 7222   4.169   5.191   2.532
 2235WAT      O 7223   3.972   3.839   2.199
 2235WAT     H1 7224   4.057   3.883   2.193
 2235WAT     H2 7225   3.936   3.870   2.282
 2236WAT      O 7226   5.035   3.772   3.346
 2236WAT     H1 7227   4.985   3.846   3.380
 2236WAT     H2 7228   5.117   3.811   3.314
 2237WAT      O 7229   4.864   4.296   2.690
 2237WAT     H1 7230   4.770   4.298   2.708
 2237WAT     H2 7231   4.896   4.217   2.735
 2238WAT      O 7232   3.862   4.464   2.046
 2238WAT     H1 7233   3.939   4.453   2.103
 2238WAT     H2 7234   3.870   4.395   1.981
 2239WAT      O 7235   3.732   4.208   2.115
 2239WAT     H1 7236   3.740   4.113   2.126
 2239WAT     H2 7237   3.821   4.241   2.125
 2240WAT      O 7238   5.065   5.013   2.858
 2240WAT     H1 7239   5.077   5.095   2.905
 2240WAT     H2 7240   5.151   4.992   2.823
 2241WAT      O 7241   3.812   5.222   2.825
 2241WAT     H1 7242   3.885   5.168   2.852
 2241WAT     H2 7243   3.850   5.309   2.811
 2242WAT      O 7244   3.500   4.829   2.413
 2242WAT     H1 7245   3.408   4.853   2.412
 2242WAT     H2 7246   3.547   4.912   2.400
 2243WAT      O 7247   3.712   5.141   3.744
 2243WAT     H1 7248   3.792   5.173   3.785
 2243WAT     H2 7249   3.661   5.105   3.816
 2244WAT      O 7250   4.123   5.140   2.007
 2244WAT     H1 7251   4.202   5.169   1.962
 2244WAT     H2 7252   4.071   5.097   1.940
 2245WAT      O 7253   4.596   4.752   3.739
 2245WAT     H1 7254   4.535   4.754   3.665
 2245WAT     H2 7255   4.566   4.679   3.792
 2246WAT      O 7256   4.739   5.125   3.600
 2246WAT     H1 7257   4.834   5.116   3.595
 2246WAT     H2 7258   4.724   5.191   3.667
 2247WAT      O 7259   5.028   5.062   2.150
 2247WAT     H1 7260   5.000   5.021   2.068
 2247WAT     H2 7261   5.008   5.155   2.138
 2248WAT      O 7262   4.175   4.662   1.994
 2248WAT     H1 7263   4.164   4.600   2.066
 2248WAT     H2 7264   4.158   4.609   1.915
 2249WAT      O 7265   4.190   4.530   3.592
 2249WAT     H1 7266   4.113   4.587   3.583
 2249WAT     H2 7267   4.208   4.501   3.502
 2250WAT      O 7268   4.499   4.568   2.054
 2250WAT     H1 7269   4.444   4.613   2.119
 2250WAT     H2 7270   4.561   4.517   2.107
 2251WAT      O 7271   4.904   4.703   3.647
 2251WAT     H1 7272   4.978   4.737   3.597
 2251WAT     H2 7273   4.828   4.720   3.592
 2252WAT      O 7274   4.065   4.464   2.244
 2252WAT     H1 7275   4.108   4.447   2.328
 2252WAT     H2 7276   4.078   4.383   2.194
 2253WAT      O 7277   4.317   4.366   1.969
 2253WAT     H1 7278   4.369   4.295   1.932
 2253WAT     H2 7279   4.381   4.430   1.999
 2254WAT      O 7280   4.771   4.509   3.501
 2254WAT     H1 7281   4.813   4.524   3.586
 2254WAT     H2 7282   4.678   4.521   3.517
 2255WAT      O 7283   4.819   4.243   3.701
 2255WAT     H1 7284   4.877   4.167   3.693
 2255WAT     H2 7285   4.836   4.296   3.624
 2256WAT      O 7286   4.207   3.614   3.236
 2256WAT     H1 7287   4.162   3.616   3.151
 2256WAT     H2 7288   4.144   3.574   3.296
 2257WAT      O 7289   4.248   4.504   3.298
 2257WAT     H1 7290   4.289   4.588   3.281
 2257WAT     H2 7291   4.156   4.517   3.275
 2258WAT      O 7292   4.481   4.277   3.436
 2258WAT     H1 7293   4.493   4.217   3.510
 2258WAT     H2 7294   4.567   4.281   3.394
 2259WAT      O 7295   4.715   4.332   3.294
 2259WAT     H1 7296   4.662   4.385   3.234
 2259WAT     H2 7297   4.749   4.396   3.357
 2260WAT      O 7298   3.955   4.071   1.938
 2260WAT     H1 7299   3.935   3.985   1.975
 2260WAT     H2 7300   3.938   4.063   1.845
 2261WAT      O 7301   4.033   5.134   3.410
 2261WAT     H1 7302   3.979   5.207   3.378
 2261WAT     H2 7303   4.058   5.087   3.331
 2262WAT      O 7304   4.158   3.931   3.562
 2262WAT     H1 7305   4.217   3.900   3.631
 2262WAT     H2 7306   4.076   3.884   3.578
 2263WAT      O 7307   4.640   3.893   3.585
 2263WAT     H1 7308   4.571   3.827   3.579
 2263WAT     H2 7309   4.712   3.848   3.630
 2264WAT      O 7310   4.703   3.552   2.191
 2264WAT     H1 7311   4.731   3.468   2.227
 2264WAT     H2 7312   4.625   3.576   2.243
 2265WAT      O 7313   3.835   3.781   1.937
 2265WAT     H1 7314   3.865   3.782   1.846
 2265WAT     H2 7315   3.909   3.746   1.987
 2266WAT      O 7316   4.318   5.258   3.435
 2266WAT     H1 7317   4.311   5.348   3.466
 2266WAT     H2 7318   4.228   5.226   3.433
 2267WAT      O 7319   4.157   3.676   2.036
 2267WAT     H1 7320   4.122   3.608   1.978
 2267WAT     H2 7321   4.177   3.629   2.117
 2268WAT      O 7322   4.373   5.174   2.198
 2268WAT     H1 7323   4.463   5.208   2.200
 2268WAT     H2 7324   4.376   5.102   2.135
 2269WAT      O 7325   3.737   4.712   2.021
 2269WAT     H1 7326   3.781   4.766   2.086
 2269WAT     H2 7327   3.786   4.629   2.022
 2270WAT      O 7328   3.918   4.824   2.532
 2270WAT     H1 7329   3.888   4.811   2.622
 2270WAT     H2 7330   3.908   4.738   2.491
 2271WAT      O 7331   5.071   5.027   3.468
 2271WAT     H1 7332   5.011   5.033   3.394
 2271WAT     H2 7333   5.084   4.933   3.481
 2272WAT      O 7334   5.195   4.802   2.002
 2272WAT     H1 7335   5.112   4.808   2.049
 2272WAT     H2 7336   5.213   4.891   1.972
 2273WAT      O 7337   5.141   4.476   2.252
 2273WAT     H1 7338   5.217   4.533   2.263
 2273WAT     H2 7339   5.142   4.419   2.329
 2274WAT      O 7340   3.491   4.328   2.675
 2274WAT     H1 7341   3.425   4.302   2.611
 2274WAT     H2 7342   3.574   4.318   2.631
 2275WAT      O 7343   5.241   4.562   2.737
 2275WAT     H1 7344   5.278   4.483   2.696
 2275WAT     H2 7345   5.305   4.630   2.719
 2276WAT      O 7346   4.940   4.700   3.278
 2276WAT     H1 7347   4.858   4.743   3.304
 2276WAT     H2 7348   4.980   4.761   3.217
 2277WAT      O 7349   5.146   4.505   1.968
 2277WAT     H1 7350   5.173   4.596   1.955
 2277WAT     H2 7351   5.127   4.499   2.062
 2278WAT      O 7352   4.786   3.808   2.098
 2278WAT     H1 7353   4.827   3.789   2.014
 2278WAT     H2 7354   4.755   3.723   2.129
 2279WAT      O 7355   5.135   4.299   2.467
 2279WAT     H1 7356   5.098   4.222   2.424
 2279WAT     H2 7357   5.063   4.337   2.516
 2280WAT      O 7358   3.594   4.367   3.130
 2280WAT     H1 7359   3.631   4.358   3.217
 2280WAT     H2 7360   3.538   4.291   3.120
 2281WAT      O 7361   5.074   4.214   3.431
 2281WAT     H1 7362   5.051   4.191   3.341
 2281WAT     H2 7363   5.101   4.306   3.426
 2282WAT      O 7364   4.918   3.736   3.709
 2282WAT     H1 7365   5.006   3.737   3.747
 2282WAT     H2 7366   4.920   3.663   3.648
 2283WAT      O 7367   3.412   4.049   2.270
 2283WAT     H1 7368   3.322   4.076   2.252
 2283WAT     H2 7369   3.460   4.077   2.192
 2284WAT      O 7370   5.063   4.122   2.797
 2284WAT     H1 7371   5.115   4.072   2.734
 2284WAT     H2 7372   5.122   4.135   2.872
 2285WAT      O 7373   5.081   4.130   3.150
 2285WAT     H1 7374   4.986   4.127   3.161
 2285WAT     H2 7375   5.099   4.221   3.126
 2286WAT      O 7376   3.666   3.955   2.061
 2286WAT     H1 7377   3.737   3.913   2.012
 2286WAT     H2 7378   3.595   3.962   1.998
 2287WAT      O 7379   3.631   3.561   1.965
 2287WAT     H1 7380   3.703   3.615   1.997
 2287WAT     H2 7381   3.658   3.533   1.877
 2288WAT      O 7382   5.012   4.047   2.391
 2288WAT     H1 7383   5.062   4.024   2.470
 2288WAT     H2 7384   4.992   3.964   2.350
 2289WAT      O 7385   5.155   3.911   2.645
 2289WAT     H1 7386   5.144   3.896   2.739
 2289WAT     H2 7387   5.231   3.858   2.621
 2290WAT      O 7388   4.990   3.505   3.291
 2290WAT     H1 7389   5.053   3.566   3.327
 2290WAT     H2 7390   5.004   3.509   3.196
 2291WAT      O 7391   5.244   3.694   1.969
 2291WAT     H1 7392   5.336   3.681   1.948
 2291WAT     H2 7393   5.242   3.702   2.064
 2292WAT      O 7394   5.251   3.771   2.231
 2292WAT     H1 7395   5.172   3.765   2.284
 2292WAT     H2 7396   5.272   3.865   2.230
 2293WAT      O 7397   4.945   5.175   2.631
 2293WAT     H1 7398   5.005   5.143   2.563
 2293WAT     H2 7399   4.971   5.128   2.710
 2294WAT      O 7400   3.736   4.818   3.646
 2294WAT     H1 7401   3.732   4.781   3.734
 2294WAT     H2 7402   3.749   4.912   3.660
 2295WAT      O 7403   4.106   4.974   3.206
 2295WAT     H1 7404   4.082   5.001   3.117
 2295WAT     H2 7405   4.200   4.991   3.211
 2296WAT      O 7406   4.327   3.620   3.581
 2296WAT     H1 7407   4.320   3.679   3.656
 2296WAT     H2 7408   4.421   3.609   3.567
 2297WAT      O 7409   4.590   3.586   3.545
 2297WAT     H1 7410   4.652   3.618   3.479
 2297WAT     H2 7411   4.645   3.537   3.607
 2298WAT      O 7412   5.232   5.176   3.286
 2298WAT     H1 7413   5.183   5.216   3.214
 2298WAT     H2 7414   5.171   5.113   3.325
 2299WAT      O 7415   3.720   5.113   3.358
 2299WAT     H1 7416   3.660   5.100   3.432
 2299WAT     H2 7417   3.719   5.029   3.311
 2300WAT      O 7418   4.664   3.442   3.178
 2300WAT     H1 7419   4.577   3.476   3.158
 2300WAT     H2 7420   4.653   3.395   3.261
 2301WAT      O 7421   4.755   3.663   3.316
 2301WAT     H1 7422   4.722   3.581   3.278
 2301WAT     H2 7423   4.850   3.659   3.304
 2302WAT      O 7424   5.000   5.240   3.014
 2302WAT     H1 7425   4.954   5.315   2.976
 2302WAT     H2 7426   4.938   5.168   3.008
 2303WAT      O 7427   4.043   5.071   2.931
 2303WAT     H1 7428   4.095   5.010   2.879
 2303WAT     H2 7429   4.108   5.121   2.980
 2304WAT      O 7430   4.317   5.160   3.014
 2304WAT     H1 7431   4.346   5.135   2.926
 2304WAT     H2 7432   4.369   5.105   3.073
 2305WAT      O 7433   4.439   3.534   3.072
 2305WAT     H1 7434   4.361   3.581   3.100
 2305WAT     H2 7435   4.410   3.444   3.061
 2306WAT      O 7436   4.894   3.604   2.876
 2306WAT     H1 7437   4.938   3.599   2.792
 2306WAT     H2 7438   4.867   3.696   2.884
 2307WAT      O 7439   5.081   3.567   2.678
 2307WAT     H1 7440   5.075   3.473   2.663
 2307WAT     H2 7441   5.159   3.578   2.732
 2308WAT      O 7442   3.511   5.181   2.574
 2308WAT     H1 7443   3.494   5.118   2.644
 2308WAT     H2 7444   3.425   5.202   2.539
 2309WAT      O 7445   3.574   3.564   2.324
 2309WAT     H1 7446   3.649   3.576   2.267
 2309WAT     H2 7447   3.527   3.648   2.319
 2310WAT      O 7448   4.228   3.776   2.623
 2310WAT     H1 7449   4.146   3.738   2.589
 2310WAT     H2 7450   4.278   3.700   2.653
 2311WAT      O 7451   4.678   3.442   2.747
 2311WAT     H1 7452   4.738   3.499   2.794
 2311WAT     H2 7453   4.604   3.499   2.725
 2312WAT      O 7454   4.992   3.482   2.274
 2312WAT     H1 7455   5.012   3.572   2.301
 2312WAT     H2 7456   4.914   3.459   2.324
 2313WAT      O 7457   3.672   5.051   2.318
 2313WAT     H1 7458   3.619   5.089   2.248
 2313WAT     H2 7459   3.664   5.113   2.390
 2314WAT      O 7460   3.811   3.617   2.178
 2314WAT     H1 7461   3.864   3.538   2.165
 2314WAT     H2 7462   3.874   3.685   2.201
 2315WAT      O 7463   4.030   3.591   2.484
 2315WAT     H1 7464   3.967   3.521   2.500
 2315WAT     H2 7465   3.976   3.667   2.462
 2316WAT      O 7466   4.324   5.252   3.751
 2316WAT     H1 7467   4.417   5.229   3.755
 2316WAT     H2 7468   4.323   5.335   3.703
 2317WAT      O 7469   5.148   5.206   2.450
 2317WAT     H1 7470   5.165   5.138   2.386
 2317WAT     H2 7471   5.078   5.259   2.411
 2318WAT      O 7472   3.932   5.245   2.206
 2318WAT     H1 7473   4.005   5.217   2.151
 2318WAT     H2 7474   3.958   5.222   2.295
 2319WAT      O 7475   3.848   4.857   2.206
 2319WAT     H1 7476   3.785   4.904   2.261
 2319WAT     H2 7477   3.859   4.773   2.250
 2320WAT      O 7478   4.703   3.460   3.785
 2320WAT     H1 7479   4.692   3.492   3.874
 2320WAT     H2 7480   4.785   3.500   3.755
 2321WAT      O 7481   4.981   5.175   3.733
 2321WAT     H1 7482   5.060   5.125   3.712
 2321WAT     H2 7483   5.010   5.243   3.794
 2322WAT      O 7484   4.593   4.262   0.821
 2322WAT     H1 7485   4.585   4.171   0.794
 2322WAT     H2 7486   4.552   4.312   0.751
 2323WAT      O 7487   4.407   4.440   1.009
 2323WAT     H1 7488   4.329   4.392   1.038
 2323WAT     H2 7489   4.472   4.372   0.992
 2324WAT      O 7490   3.808   4.471   1.097
 2324WAT     H1 7491   3.725   4.446   1.137
 2324WAT     H2 7492   3.869   4.478   1.171
 2325WAT      O 7493   4.809   4.881   0.887
 2325WAT     H1 7494   4.763   4.803   0.920
 2325WAT     H2 7495   4.890   4.883   0.938
 2326WAT      O 7496   3.806   4.875   1.117
 2326WAT     H1 7497   3.837   4.785   1.099
 2326WAT     H2 7498   3.881   4.930   1.094
 2327WAT      O 7499   3.649   3.967   0.475
 2327WAT     H1 7500   3.560   4.001   0.465
 2327WAT     H2 7501   3.678   3.947   0.386
 2328WAT      O 7502   3.446   4.227   1.064
 2328WAT     H1 7503   3.503   4.150   1.064
 2328WAT     H2 7504   3.446   4.257   0.973
 2329WAT      O 7505   4.431   5.109   0.849
 2329WAT     H1 7506   4.369   5.155   0.792
 2329WAT     H2 7507   4.517   5.125   0.809
 2330WAT      O 7508   4.351   4.707   1.010
 2330WAT     H1 7509   4.344   4.613   0.994
 2330WAT     H2 7510   4.427   4.717   1.067
 2331WAT      O 7511   3.570   3.768   1.243
 2331WAT     H1 7512   3.552   3.678   1.271
 2331WAT     H2 7513   3.530   3.823   1.310
 2332WAT      O 7514   4.454   3.988   1.033
 2332WAT     H1 7515   4.491   3.901   1.021
 2332WAT     H2 7516   4.444   4.022   0.944
 2333WAT      O 7517   3.867   3.825   0.579
 2333WAT     H1 7518   3.878   3.915   0.610
 2333WAT     H2 7519   3.776   3.821   0.550
 2334WAT      O 7520   4.832   3.738   0.726
 2334WAT     H1 7521   4.914   3.689   0.730
 2334WAT     H2 7522   4.835   3.797   0.801
 2335WAT      O 7523   3.632   4.018   1.103
 2335WAT     H1 7524   3.700   4.044   1.165
 2335WAT     H2 7525   3.600   3.934   1.137
 2336WAT      O 7526   4.051   4.122   1.012
 2336WAT     H1 7527   4.102   4.172   1.076
 2336WAT     H2 7528   4.104   4.045   0.995
 2337WAT      O 7529   5.261   3.939   1.382
 2337WAT     H1 7530   5.191   3.978   1.331
 2337WAT     H2 7531   5.288   4.009   1.443
 2338WAT      O 7532   3.879   3.586   1.439
 2338WAT     H1 7533   3.879   3.638   1.358
 2338WAT     H2 7534   3.796   3.539   1.436
 2339WAT      O 7535   4.518   4.597   0.589
 2339WAT     H1 7536   4.456   4.644   0.532
 2339WAT     H2 7537   4.569   4.667   0.630
 2340WAT      O 7538   4.004   4.550   1.256
 2340WAT     H1 7539   3.971   4.613   1.321
 2340WAT     H2 7540   4.022   4.603   1.179
 2341WAT      O 7541   4.856   3.932   1.003
 2341WAT     H1 7542   4.785   3.961   1.061
 2341WAT     H2 7543   4.892   4.013   0.967
 2342WAT      O 7544   3.847   3.757   1.239
 2342WAT     H1 7545   3.882   3.842   1.210
 2342WAT     H2 7546   3.754   3.772   1.251
 2343WAT      O 7547   3.925   4.747   1.438
 2343WAT     H1 7548   3.987   4.815   1.410
 2343WAT     H2 7549   3.839   4.788   1.429
 2344WAT      O 7550   3.455   4.666   0.326
 2344WAT     H1 7551   3.417   4.715   0.253
 2344WAT     H2 7552   3.481   4.733   0.389
 2345WAT      O 7553   5.017   4.893   1.230
 2345WAT     H1 7554   4.949   4.960   1.229
 2345WAT     H2 7555   5.071   4.913   1.153
 2346WAT      O 7556   5.163   3.876   1.042
 2346WAT     H1 7557   5.068   3.880   1.056
 2346WAT     H2 7558   5.195   3.958   1.081
 2347WAT      O 7559   4.216   3.506   0.872
 2347WAT     H1 7560   4.246   3.451   0.800
 2347WAT     H2 7561   4.123   3.520   0.854
 2348WAT      O 7562   4.771   5.078   1.101
 2348WAT     H1 7563   4.772   5.038   1.014
 2348WAT     H2 7564   4.716   5.155   1.091
 2349WAT      O 7565   4.900   4.750   0.610
 2349WAT     H1 7566   4.889   4.656   0.622
 2349WAT     H2 7567   4.900   4.786   0.699
 2350WAT      O 7568   4.711   4.568   1.234
 2350WAT     H1 7569   4.752   4.547   1.150
 2350WAT     H2 7570   4.783   4.594   1.291
 2351WAT      O 7571   4.455   4.313   0.546
 2351WAT     H1 7572   4.362   4.306   0.568
 2351WAT     H2 7573   4.470   4.407   0.534
 2352WAT      O 7574   4.453   3.940   0.245
 2352WAT     H1 7575   4.359   3.956   0.254
 2352WAT     H2 7576   4.485   4.012   0.191
 2353WAT      O 7577   5.105   4.408   1.243
 2353WAT     H1 7578   5.023   4.415   1.195
 2353WAT     H2 7579   5.165   4.467   1.196
 2354WAT      O 7580   4.857   4.469   0.596
 2354WAT     H1 7581   4.796   4.435   0.531
 2354WAT     H2 7582   4.856   4.405   0.667
 2355WAT      O 7583   4.802   4.087   1.338
 2355WAT     H1 7584   4.760   4.169   1.363
 2355WAT     H2 7585   4.729   4.028   1.318
 2356WAT      O 7586   4.015   4.365   0.824
 2356WAT     H1 7587   3.975   4.294   0.774
 2356WAT     H2 7588   4.024   4.331   0.913
 2357WAT      O 7589   4.062   4.734   1.040
 2357WAT     H1 7590   4.032   4.673   0.972
 2357WAT     H2 7591   4.157   4.738   1.029
 2358WAT      O 7592   3.886   4.043   1.202
 2358WAT     H1 7593   3.942   4.054   1.124
 2358WAT     H2 7594   3.938   4.080   1.273
 2359WAT      O 7595   4.871   5.091   1.406
 2359WAT     H1 7596   4.823   5.172   1.387
 2359WAT     H2 7597   4.802   5.026   1.422
 2360WAT      O 7598   3.971   4.708   1.705
 2360WAT     H1 7599   3.881   4.730   1.730
 2360WAT     H2 7600   3.974   4.720   1.610
 2361WAT      O 7601   4.675   4.393   0.297
 2361WAT     H1 7602   4.719   4.309   0.282
 2361WAT     H2 7603   4.746   4.456   0.305
 2362WAT      O 7604   3.854   4.395   1.563
 2362WAT     H1 7605   3.840   4.482   1.600
 2362WAT     H2 7606   3.766   4.361   1.548
 2363WAT      O 7607   4.486   4.887   0.693
 2363WAT     H1 7608   4.530   4.961   0.652
 2363WAT     H2 7609   4.480   4.911   0.786
 2364WAT      O 7610   4.034   4.989   1.784
 2364WAT     H1 7611   4.031   5.030   1.697
 2364WAT     H2 7612   4.017   4.896   1.767
 2365WAT      O 7613   3.685   4.255   0.574
 2365WAT     H1 7614   3.673   4.327   0.513
 2365WAT     H2 7615   3.654   4.178   0.526
 2366WAT      O 7616   5.229   5.067   1.913
 2366WAT     H1 7617   5.276   5.115   1.981
 2366WAT     H2 7618   5.291   5.061   1.841
 2367WAT      O 7619   3.449   4.572   1.154
 2367WAT     H1 7620   3.457   4.585   1.060
 2367WAT     H2 7621   3.510   4.501   1.174
 2368WAT      O 7622   3.573   4.742   0.796
 2368WAT     H1 7623   3.533   4.756   0.710
 2368WAT     H2 7624   3.663   4.714   0.775
 2369WAT      O 7625   5.169   4.787   1.629
 2369WAT     H1 7626   5.182   4.763   1.537
 2369WAT     H2 7627   5.173   4.703   1.676
 2370WAT      O 7628   4.555   5.157   1.486
 2370WAT     H1 7629   4.607   5.148   1.566
 2370WAT     H2 7630   4.471   5.191   1.515
 2371WAT      O 7631   4.753   5.185   0.429
 2371WAT     H1 7632   4.737   5.156   0.519
 2371WAT     H2 7633   4.736   5.108   0.375
 2372WAT      O 7634   4.001   5.163   0.607
 2372WAT     H1 7635   3.983   5.072   0.585
 2372WAT     H2 7636   3.915   5.199   0.631
 2373WAT      O 7637   4.723   4.936   0.285
 2373WAT     H1 7638   4.654   4.936   0.219
 2373WAT     H2 7639   4.797   4.894   0.242
 2374WAT      O 7640   4.680   5.099   0.692
 2374WAT     H1 7641   4.725   5.021   0.724
 2374WAT     H2 7642   4.713   5.170   0.747
 2375WAT      O 7643   5.154   3.992   1.726
 2375WAT     H1 7644   5.093   4.043   1.673
 2375WAT     H2 7645   5.122   3.902   1.720
 2376WAT      O 7646   3.455   4.676   1.408
 2376WAT     H1 7647   3.471   4.629   1.327
 2376WAT     H2 7648   3.501   4.625   1.475
 2377WAT      O 7649   3.932   3.589   0.912
 2377WAT     H1 7650   3.887   3.667   0.879
 2377WAT     H2 7651   3.988   3.621   0.983
 2378WAT      O 7652   4.360   3.876   1.472
 2378WAT     H1 7653   4.314   3.897   1.554
 2378WAT     H2 7654   4.320   3.794   1.442
 2379WAT      O 7655   4.861   3.998   1.585
 2379WAT     H1 7656   4.775   3.968   1.617
 2379WAT     H2 7657   4.845   4.022   1.494
 2380WAT      O 7658   4.570   4.148   1.795
 2380WAT     H1 7659   4.603   4.065   1.761
 2380WAT     H2 7660   4.649   4.200   1.810
 2381WAT      O 7661   4.243   3.551   0.400
 2381WAT     H1 7662   4.181   3.551   0.473
 2381WAT     H2 7663   4.235   3.465   0.360
 2382WAT      O 7664   4.136   3.644   1.098
 2382WAT     H1 7665   4.165   3.734   1.090
 2382WAT     H2 7666   4.190   3.595   1.037
 2383WAT      O 7667   3.911   4.101   0.685
 2383WAT     H1 7668   3.888   4.080   0.775
 2383WAT     H2 7669   3.833   4.145   0.650
 2384WAT      O 7670   4.634   4.102   0.545
 2384WAT     H1 7671   4.574   4.174   0.526
 2384WAT     H2 7672   4.689   4.096   0.466
 2385WAT      O 7673   4.155   4.191   1.751
 2385WAT     H1 7674   4.145   4.097   1.736
 2385WAT     H2 7675   4.239   4.213   1.712
 2386WAT      O 7676   4.495   3.966   0.748
 2386WAT     H1 7677   4.534   3.997   0.666
 2386WAT     H2 7678   4.531   3.878   0.759
 2387WAT      O 7679   3.668   3.832   1.567
 2387WAT     H1 7680   3.629   3.917   1.587
 2387WAT     H2 7681   3.599   3.769   1.586
 2388WAT      O 7682   4.325   3.841   1.874
 2388WAT     H1 7683   4.256   3.822   1.937
 2388WAT     H2 7684   4.400   3.869   1.927
 2389WAT      O 7685   3.398   3.625   0.970
 2389WAT     H1 7686   3.369   3.682   1.041
 2389WAT     H2 7687   3.473   3.577   1.006
 2390WAT      O 7688   4.553   4.225   1.157
 2390WAT     H1 7689   4.480   4.276   1.192
 2390WAT     H2 7690   4.513   4.143   1.127
 2391WAT      O 7691   4.197   3.892   0.998
 2391WAT     H1 7692   4.197   3.848   0.913
 2391WAT     H2 7693   4.286   3.925   1.009
 2392WAT      O 7694   3.782   3.881   0.894
 2392WAT     H1 7695   3.748   3.928   0.969
 2392WAT     H2 7696   3.706   3.835   0.858
 2393WAT      O 7697   4.203   3.992   0.297
 2393WAT     H1 7698   4.215   3.988   0.392
 2393WAT     H2 7699   4.165   4.079   0.281
 2394WAT      O 7700   4.599   3.770   1.098
 2394WAT     H1 7701   4.601   3.815   1.183
 2394WAT     H2 7702   4.574   3.680   1.120
 2395WAT      O 7703   4.104   4.223   0.237
 2395WAT     H1 7704   4.047   4.179   0.174
 2395WAT     H2 7705   4.175   4.259   0.183
 2396WAT      O 7706   4.942   3.511   1.682
 2396WAT     H1 7707   4.975   3.438   1.735
 2396WAT     H2 7708   4.946   3.480   1.592
 2397WAT      O 7709   3.612   4.614   1.624
 2397WAT     H1 7710   3.574   4.550   1.684
 2397WAT     H2 7711   3.643   4.684   1.681
 2398WAT      O 7712   4.227   4.298   1.172
 2398WAT     H1 7713   4.264   4.251   1.247
 2398WAT     H2 7714   4.208   4.386   1.207
 2399WAT      O 7715   3.513   3.773   0.785
 2399WAT     H1 7716   3.485   3.736   0.869
 2399WAT     H2 7717   3.507   3.700   0.724
 2400WAT      O 7718   4.006   4.202   1.404
 2400WAT     H1 7719   3.976   4.290   1.427
 2400WAT     H2 7720   4.101   4.208   1.408
 2401WAT      O 7721   3.859   4.623   0.464
 2401WAT     H1 7722   3.781   4.569   0.448
 2401WAT     H2 7723   3.932   4.571   0.430
 2402WAT      O 7724   4.935   4.523   1.043
 2402WAT     H1 7725   5.007   4.572   1.004
 2402WAT     H2 7726   4.914   4.455   0.979
 2403WAT      O 7727   4.481   3.662   0.458
 2403WAT     H1 7728   4.399   3.612   0.450
 2403WAT     H2 7729   4.461   3.746   0.416
 2404WAT      O 7730   4.473   4.530   1.632
 2404WAT     H1 7731   4.466   4.438   1.606
 2404WAT     H2 7732   4.410   4.540   1.703
 2405WAT      O 7733   4.752   4.099   0.287
 2405WAT     H1 7734   4.841   4.130   0.270
 2405WAT     H2 7735   4.749   4.012   0.248
 2406WAT      O 7736   3.863   4.590   0.828
 2406WAT     H1 7737   3.915   4.510   0.822
 2406WAT     H2 7738   3.818   4.584   0.912
 2407WAT      O 7739   4.352   4.717   0.355
 2407WAT     H1 7740   4.386   4.791   0.305
 2407WAT     H2 7741   4.269   4.748   0.391
 2408WAT      O 7742   3.612   4.286   1.519
 2408WAT     H1 7743   3.576   4.353   1.578
 2408WAT     H2 7744   3.582   4.203   1.556
 2409WAT      O 7745   3.932   4.332   1.807
 2409WAT     H1 7746   3.902   4.347   1.718
 2409WAT     H2 7747   4.009   4.276   1.798
 2410WAT      O 7748   4.466   4.812   1.607
 2410WAT     H1 7749   4.467   4.719   1.585
 2410WAT     H2 7750   4.395   4.821   1.671
 2411WAT      O 7751   5.087   4.476   1.542
 2411WAT     H1 7752   5.015   4.535   1.522
 2411WAT     H2 7753   5.140   4.475   1.462
 2412WAT      O 7754   5.082   4.916   0.507
 2412WAT     H1 7755   5.018   4.850   0.534
 2412WAT     H2 7756   5.044   4.956   0.429
 2413WAT      O 7757   4.640   4.649   0.891
 2413WAT     H1 7758   4.675   4.589   0.825
 2413WAT     H2 7759   4.552   4.616   0.909
 2414WAT      O 7760   4.249   4.725   0.632
 2414WAT     H1 7761   4.317   4.779   0.670
 2414WAT     H2 7762   4.170   4.779   0.636
 2415WAT      O 7763   3.463   4.286   0.181
 2415WAT     H1 7764   3.550   4.315   0.210
 2415WAT     H2 7765   3.414   4.368   0.170
 2416WAT      O 7766   4.179   4.425   0.593
 2416WAT     H1 7767   4.225   4.506   0.616
 2416WAT     H2 7768   4.144   4.393   0.677
 2417WAT      O 7769   4.409   4.976   1.316
 2417WAT     H1 7770   4.474   4.997   1.384
 2417WAT     H2 7771   4.446   4.900   1.271
 2418WAT      O 7772   3.769   3.460   0.641
 2418WAT     H1 7773   3.756   3.459   0.736
 2418WAT     H2 7774   3.687   3.493   0.606
 2419WAT      O 7775   4.537   4.777   1.188
 2419WAT     H1 7776   4.601   4.706   1.199
 2419WAT     H2 7777   4.589   4.855   1.170
 2420WAT      O 7778   4.714   4.856   1.508
 2420WAT     H1 7779   4.748   4.915   1.576
 2420WAT     H2 7780   4.622   4.843   1.531
 2421WAT      O 7781   3.499   5.208   0.238
 2421WAT     H1 7782   3.535   5.268   0.173
 2421WAT     H2 7783   3.485   5.262   0.315
 2422WAT      O 7784   3.469   3.635   1.587
 2422WAT     H1 7785   3.398   3.655   1.647
 2422WAT     H2 7786   3.511   3.558   1.624
 2423WAT      O 7787   4.879   4.597   0.327
 2423WAT     H1 7788   4.851   4.643   0.405
 2423WAT     H2 7789   4.959   4.551   0.354
 2424WAT      O 7790   3.498   5.034   1.685
 2424WAT     H1 7791   3.509   4.940   1.671
 2424WAT     H2 7792   3.433   5.061   1.621
 2425WAT      O 7793   4.297   4.861   1.825
 2425WAT     H1 7794   4.265   4.789   1.880
 2425WAT     H2 7795   4.229   4.929   1.833
 2426WAT      O 7796   4.101   4.946   0.320
 2426WAT     H1 7797   4.100   5.019   0.258
 2426WAT     H2 7798   4.009   4.921   0.329
 2427WAT      O 7799   3.661   4.468   0.394
 2427WAT     H1 7800   3.600   4.542   0.395
 2427WAT     H2 7801   3.709   4.477   0.312
 2428WAT      O 7802   4.618   3.885   1.362
 2428WAT     H1 7803   4.655   3.803   1.395
 2428WAT     H2 7804   4.532   3.891   1.403
 2429WAT      O 7805   4.955   3.780   0.443
 2429WAT     H1 7806   4.892   3.791   0.371
 2429WAT     H2 7807   4.906   3.802   0.522
 2430WAT      O 7808   4.152   4.008   0.584
 2430WAT     H1 7809   4.081   4.055   0.628
 2430WAT     H2 7810   4.180   3.942   0.648
 2431WAT      O 7811   4.314   4.150   1.384
 2431WAT     H1 7812   4.364   4.198   1.451
 2431WAT     H2 7813   4.329   4.058   1.405
 2432WAT      O 7814   4.555   3.681   0.728
 2432WAT     H1 7815   4.543   3.682   0.633
 2432WAT     H2 7816   4.650   3.685   0.740
 2433WAT      O 7817   4.264   5.204   0.655
 2433WAT     H1 7818   4.289   5.200   0.563
 2433WAT     H2 7819   4.169   5.191   0.655
 2434WAT      O 7820   3.972   3.839   0.322
 2434WAT     H1 7821   4.057   3.883   0.315
 2434WAT     H2 7822   3.936   3.870   0.404
 2435WAT      O 7823   5.035   3.772   1.468
 2435WAT     H1 7824   4.985   3.846   1.502
 2435WAT     H2 7825   5.117   3.811   1.437
 2436WAT      O 7826   4.864   4.296   0.813
 2436WAT     H1 7827   4.770   4.298   0.830
 2436WAT     H2 7828   4.896   4.217   0.858
 2437WAT      O 7829   3.732   4.208   0.237
 2437WAT     H1 7830   3.740   4.113   0.249
 2437WAT     H2 7831   3.821   4.241   0.248
 2438WAT      O 7832   5.065   5.013   0.981
 2438WAT     H1 7833   5.077   5.095   1.028
 2438WAT     H2 7834   5.151   4.992   0.946
 2439WAT      O 7835   3.812   5.222   0.948
 2439WAT     H1 7836   3.885   5.168   0.975
 2439WAT     H2 7837   3.850   5.309   0.934
 2440WAT      O 7838   3.500   4.829   0.535
 2440WAT     H1 7839   3.408   4.853   0.534
 2440WAT     H2 7840   3.547   4.912   0.523
 2441WAT      O 7841   3.712   5.141   1.867
 2441WAT     H1 7842   3.792   5.173   1.908
 2441WAT     H2 7843   3.661   5.105   1.939
 2442WAT      O 7844   4.596   4.752   1.861
 2442WAT     H1 7845   4.535   4.754   1.787
 2442WAT     H2 7846   4.566   4.679   1.915
 2443WAT      O 7847   4.739   5.125   1.722
 2443WAT     H1 7848   4.834   5.116   1.717
 2443WAT     H2 7849   4.724   5.191   1.790
 2444WAT      O 7850   5.028   5.062   0.272
 2444WAT     H1 7851   5.000   5.021   0.191
 2444WAT     H2 7852   5.008   5.155   0.260
 2445WAT      O 7853   3.484   4.390   1.761
 2445WAT     H1 7854   3.535   4.332   1.818
 2445WAT     H2 7855   3.410   4.418   1.815
 2446WAT      O 7856   4.190   4.530   1.714
 2446WAT     H1 7857   4.113   4.587   1.706
 2446WAT     H2 7858   4.208   4.501   1.625
 2447WAT      O 7859   4.499   4.568   0.177
 2447WAT     H1 7860   4.444   4.613   0.241
 2447WAT     H2 7861   4.561   4.517   0.229
 2448WAT      O 7862   4.904   4.703   1.770
 2448WAT     H1 7863   4.978   4.737   1.720
 2448WAT     H2 7864   4.828   4.720   1.715
 2449WAT      O 7865   3.688   4.204   1.850
 2449WAT     H1 7866   3.692   4.174   1.941
 2449WAT     H2 7867   3.773   4.244   1.835
 2450WAT      O 7868   4.065   4.464   0.366
 2450WAT     H1 7869   4.108   4.447   0.451
 2450WAT     H2 7870   4.078   4.383   0.317
 2451WAT      O 7871   3.882   4.062   1.647
 2451WAT     H1 7872   3.829   4.013   1.584
 2451WAT     H2 7873   3.949   4.105   1.594
 2452WAT      O 7874   4.771   4.509   1.624
 2452WAT     H1 7875   4.813   4.524   1.709
 2452WAT     H2 7876   4.678   4.521   1.640
 2453WAT      O 7877   4.819   4.243   1.824
 2453WAT     H1 7878   4.877   4.167   1.815
 2453WAT     H2 7879   4.836   4.296   1.746
 2454WAT      O 7880   3.930   3.758   1.655
 2454WAT     H1 7881   3.921   3.697   1.583
 2454WAT     H2 7882   3.872   3.831   1.632
 2455WAT      O 7883   4.207   3.614   1.358
 2455WAT     H1 7884   4.162   3.616   1.274
 2455WAT     H2 7885   4.144   3.574   1.418
 2456WAT      O 7886   4.248   4.504   1.421
 2456WAT     H1 7887   4.289   4.588   1.403
 2456WAT     H2 7888   4.156   4.517   1.398
 2457WAT      O 7889   4.481   4.277   1.559
 2457WAT     H1 7890   4.493   4.217   1.633
 2457WAT     H2 7891   4.567   4.281   1.517
 2458WAT      O 7892   4.715   4.332   1.417
 2458WAT     H1 7893   4.662   4.385   1.356
 2458WAT     H2 7894   4.749   4.396   1.480
 2459WAT      O 7895   4.033   5.134   1.532
 2459WAT     H1 7896   3.979   5.207   1.500
 2459WAT     H2 7897   4.058   5.087   1.453
 2460WAT      O 7898   4.158   3.931   1.685
 2460WAT     H1 7899   4.217   3.900   1.753
 2460WAT     H2 7900   4.076   3.884   1.700
 2461WAT      O 7901   4.640   3.893   1.708
 2461WAT     H1 7902   4.571   3.827   1.702
 2461WAT     H2 7903   4.712   3.848   1.753
 2462WAT      O 7904   4.703   3.552   0.314
 2462WAT     H1 7905   4.731   3.468   0.350
 2462WAT     H2 7906   4.625   3.576   0.365
 2463WAT      O 7907   4.318   5.258   1.558
 2463WAT     H1 7908   4.311   5.348   1.589
 2463WAT     H2 7909   4.228   5.226   1.555
 2464WAT      O 7910   4.373   5.174   0.320
 2464WAT     H1 7911   4.463   5.208   0.322
 2464WAT     H2 7912   4.376   5.102   0.258
 2465WAT      O 7913   3.459   4.991   0.888
 2465WAT     H1 7914   3.492   4.904   0.865
 2465WAT     H2 7915   3.501   5.011   0.971
 2466WAT      O 7916   3.918   4.824   0.654
 2466WAT     H1 7917   3.888   4.811   0.744
 2466WAT     H2 7918   3.908   4.738   0.614
 2467WAT      O 7919   3.507   5.077   1.162
 2467WAT     H1 7920   3.464   5.095   1.245
 2467WAT     H2 7921   3.564   5.153   1.148
 2468WAT      O 7922   5.071   5.027   1.591
 2468WAT     H1 7923   5.011   5.033   1.517
 2468WAT     H2 7924   5.084   4.933   1.604
 2469WAT      O 7925   5.141   4.476   0.375
 2469WAT     H1 7926   5.217   4.533   0.386
 2469WAT     H2 7927   5.142   4.419   0.452
 2470WAT      O 7928   3.491   4.328   0.798
 2470WAT     H1 7929   3.425   4.302   0.734
 2470WAT     H2 7930   3.574   4.318   0.753
 2471WAT      O 7931   5.241   4.562   0.859
 2471WAT     H1 7932   5.278   4.483   0.819
 2471WAT     H2 7933   5.305   4.630   0.842
 2472WAT      O 7934   4.940   4.700   1.401
 2472WAT     H1 7935   4.858   4.743   1.427
 2472WAT     H2 7936   4.980   4.761   1.339
 2473WAT      O 7937   5.135   4.299   0.590
 2473WAT     H1 7938   5.098   4.222   0.547
 2473WAT     H2 7939   5.063   4.337   0.639
 2474WAT      O 7940   3.594   4.367   1.252
 2474WAT     H1 7941   3.631   4.358   1.340
 2474WAT     H2 7942   3.538   4.291   1.242
 2475WAT      O 7943   5.074   4.214   1.553
 2475WAT     H1 7944   5.051   4.191   1.463
 2475WAT     H2 7945   5.101   4.306   1.549
 2476WAT      O 7946   3.550   4.058   1.643
 2476WAT     H1 7947   3.460   4.055   1.677
 2476WAT     H2 7948   3.604   4.078   1.719
 2477WAT      O 7949   4.918   3.736   1.831
 2477WAT     H1 7950   5.006   3.737   1.870
 2477WAT     H2 7951   4.920   3.663   1.770
 2478WAT      O 7952   3.412   4.049   0.392
 2478WAT     H1 7953   3.322   4.076   0.375
 2478WAT     H2 7954   3.460   4.077   0.314
 2479WAT      O 7955   5.063   4.122   0.920
 2479WAT     H1 7956   5.115   4.072   0.857
 2479WAT     H2 7957   5.122   4.135   0.995
 2480WAT      O 7958   5.081   4.130   1.272
 2480WAT     H1 7959   4.986   4.127   1.284
 2480WAT     H2 7960   5.099   4.221   1.249
 2481WAT      O 7961   5.012   4.047   0.514
 2481WAT     H1 7962   5.062   4.024   0.592
 2481WAT     H2 7963   4.992   3.964   0.472
 2482WAT      O 7964   3.600   3.486   1.077
 2482WAT     H1 7965   3.665   3.431   1.033
 2482WAT     H2 7966   3.642   3.511   1.160
 2483WAT      O 7967   5.155   3.911   0.767
 2483WAT     H1 7968   5.144   3.896   0.861
 2483WAT     H2 7969   5.231   3.858   0.743
 2484WAT      O 7970   4.990   3.505   1.413
 2484WAT     H1 7971   5.053   3.566   1.450
 2484WAT     H2 7972   5.004   3.509   1.319
 2485WAT      O 7973   5.251   3.771   0.354
 2485WAT     H1 7974   5.172   3.765   0.407
 2485WAT     H2 7975   5.272   3.865   0.353
 2486WAT      O 7976   4.945   5.175   0.753
 2486WAT     H1 7977   5.005   5.143   0.686
 2486WAT     H2 7978   4.971   5.128   0.833
 2487WAT      O 7979   3.575   3.501   1.352
 2487WAT     H1 7980   3.540   3.547   1.428
 2487WAT     H2 7981   3.542   3.412   1.360
 2488WAT      O 7982   3.736   4.818   1.768
 2488WAT     H1 7983   3.732   4.781   1.856
 2488WAT     H2 7984   3.749   4.912   1.782
 2489WAT      O 7985   4.106   4.974   1.328
 2489WAT     H1 7986   4.082   5.001   1.240
 2489WAT     H2 7987   4.200   4.991   1.334
 2490WAT      O 7988   4.327   3.620   1.704
 2490WAT     H1 7989   4.320   3.679   1.779
 2490WAT     H2 7990   4.421   3.609   1.689
 2491WAT      O 7991   4.590   3.586   1.668
 2491WAT     H1 7992   4.652   3.618   1.602
 2491WAT     H2 7993   4.645   3.537   1.730
 2492WAT      O 7994   5.232   5.176   1.408
 2492WAT     H1 7995   5.183   5.216   1.337
 2492WAT     H2 7996   5.171   5.113   1.448
 2493WAT      O 7997   3.643   3.454   1.679
 2493WAT     H1 7998   3.697   3.436   1.603
 2493WAT     H2 7999   3.649   3.375   1.733
 2494WAT      O 8000   3.720   5.113   1.480
 2494WAT     H1 8001   3.660   5.100   1.554
 2494WAT     H2 8002   3.719   5.029   1.434
 2495WAT      O 8003   4.664   3.442   1.301
 2495WAT     H1 8004   4.577   3.476   1.280
 2495WAT     H2 8005   4.653   3.395   1.383
 2496WAT      O 8006   4.755   3.663   1.439
 2496WAT     H1 8007   4.722   3.581   1.401
 2496WAT     H2 8008   4.850   3.659   1.427
 2497WAT      O 8009   5.000   5.240   1.136
 2497WAT     H1 8010   4.954   5.315   1.099
 2497WAT     H2 8011   4.938   5.168   1.131
 2498WAT      O 8012   3.683   4.850   1.375
 2498WAT     H1 8013   3.610   4.788   1.369
 2498WAT     H2 8014   3.689   4.889   1.288
 2499WAT      O 8015   4.043   5.071   1.054
 2499WAT     H1 8016   4.095   5.010   1.001
 2499WAT     H2 8017   4.108   5.121   1.103
 2500WAT      O 8018   4.317   5.160   1.137
 2500WAT     H1 8019   4.346   5.135   1.049
 2500WAT     H2 8020   4.369   5.105   1.196
 2501WAT      O 8021   4.439   3.534   1.194
 2501WAT     H1 8022   4.361   3.581   1.222
 2501WAT     H2 8023   4.410   3.444   1.184
 2502WAT      O 8024   4.894   3.604   0.999
 2502WAT     H1 8025   4.938   3.599   0.914
 2502WAT     H2 8026   4.867   3.696   1.006
 2503WAT      O 8027   5.081   3.567   0.800
 2503WAT     H1 8028   5.075   3.473   0.785
 2503WAT     H2 8029   5.159   3.578   0.855
 2504WAT      O 8030   3.511   5.181   0.696
 2504WAT     H1 8031   3.494   5.118   0.766
 2504WAT     H2 8032   3.425   5.202   0.661
 2505WAT      O 8033   3.574   3.564   0.447
 2505WAT     H1 8034   3.649   3.576   0.389
 2505WAT     H2 8035   3.527   3.648   0.442
 2506WAT      O 8036   4.228   3.776   0.746
 2506WAT     H1 8037   4.146   3.738   0.712
 2506WAT     H2 8038   4.278   3.700   0.776
 2507WAT      O 8039   4.678   3.442   0.869
 2507WAT     H1 8040   4.738   3.499   0.917
 2507WAT     H2 8041   4.604   3.499   0.847
 2508WAT      O 8042   4.992   3.482   0.397
 2508WAT     H1 8043   5.012   3.572   0.424
 2508WAT     H2 8044   4.914   3.459   0.446
 2509WAT      O 8045   3.672   5.051   0.441
 2509WAT     H1 8046   3.619   5.089   0.370
 2509WAT     H2 8047   3.664   5.113   0.513
 2510WAT      O 8048   3.811   3.617   0.301
 2510WAT     H1 8049   3.864   3.538   0.288
 2510WAT     H2 8050   3.874   3.685   0.324
 2511WAT      O 8051   4.030   3.591   0.606
 2511WAT     H1 8052   3.967   3.521   0.623
 2511WAT     H2 8053   3.976   3.667   0.584
 2512WAT      O 8054   4.324   5.252   1.873
 2512WAT     H1 8055   4.417   5.229   1.878
 2512WAT     H2 8056   4.323   5.335   1.825
 2513WAT      O 8057   5.148   5.206   0.573
 2513WAT     H1 8058   5.165   5.138   0.509
 2513WAT     H2 8059   5.078   5.259   0.534
 2514WAT      O 8060   4.043   3.519   1.850
 2514WAT     H1 8061   4.015   3.569   1.773
 2514WAT     H2 8062   4.081   3.439   1.813
 2515WAT      O 8063   3.932   5.245   0.328
 2515WAT     H1 8064   4.005   5.217   0.274
 2515WAT     H2 8065   3.958   5.222   0.417
 2516WAT      O 8066   3.848   4.857   0.329
 2516WAT     H1 8067   3.785   4.904   0.384
 2516WAT     H2 8068   3.859   4.773   0.372
 2517WAT      O 8069   4.703   3.460   1.907
 2517WAT     H1 8070   4.692   3.492   1.997
 2517WAT     H2 8071   4.785   3.500   1.878
 2518WAT      O 8072   4.981   5.175   1.856
 2518WAT     H1 8073   5.060   5.125   1.835
 2518WAT     H2 8074   5.010   5.243   1.916
 2519WAT      O 8075   4.593   2.385   4.576
 2519WAT     H1 8076   4.585   2.293   4.549
 2519WAT     H2 8077   4.552   2.434   4.505
 2520WAT      O 8078   4.407   2.562   4.764
 2520WAT     H1 8079   4.329   2.514   4.793
 2520WAT     H2 8080   4.472   2.495   4.747
 2521WAT      O 8081   3.808   2.594   4.852
 2521WAT     H1 8082   3.725   2.568   4.892
 2521WAT     H2 8083   3.869   2.601   4.926
 2522WAT      O 8084   4.809   3.003   4.642
 2522WAT     H1 8085   4.763   2.926   4.675
 2522WAT     H2 8086   4.890   3.006   4.693
 2523WAT      O 8087   3.806   2.997   4.872
 2523WAT     H1 8088   3.837   2.908   4.854
 2523WAT     H2 8089   3.881   3.053   4.849
 2524WAT      O 8090   3.649   2.090   4.230
 2524WAT     H1 8091   3.560   2.124   4.220
 2524WAT     H2 8092   3.678   2.070   4.141
 2525WAT      O 8093   3.446   2.350   4.819
 2525WAT     H1 8094   3.503   2.273   4.819
 2525WAT     H2 8095   3.446   2.380   4.728
 2526WAT      O 8096   4.431   3.232   4.604
 2526WAT     H1 8097   4.369   3.277   4.547
 2526WAT     H2 8098   4.517   3.247   4.564
 2527WAT      O 8099   4.351   2.830   4.765
 2527WAT     H1 8100   4.344   2.736   4.749
 2527WAT     H2 8101   4.427   2.839   4.822
 2528WAT      O 8102   3.570   1.891   4.997
 2528WAT     H1 8103   3.552   1.801   5.025
 2528WAT     H2 8104   3.530   1.945   5.065
 2529WAT      O 8105   4.454   2.111   4.788
 2529WAT     H1 8106   4.491   2.023   4.776
 2529WAT     H2 8107   4.444   2.144   4.698
 2530WAT      O 8108   3.867   1.948   4.334
 2530WAT     H1 8109   3.878   2.038   4.364
 2530WAT     H2 8110   3.776   1.943   4.305
 2531WAT      O 8111   4.832   1.860   4.481
 2531WAT     H1 8112   4.914   1.811   4.485
 2531WAT     H2 8113   4.835   1.919   4.556
 2532WAT      O 8114   3.632   2.140   4.858
 2532WAT     H1 8115   3.700   2.167   4.920
 2532WAT     H2 8116   3.600   2.056   4.892
 2533WAT      O 8117   4.051   2.245   4.767
 2533WAT     H1 8118   4.102   2.295   4.831
 2533WAT     H2 8119   4.104   2.167   4.749
 2534WAT      O 8120   5.261   2.062   5.137
 2534WAT     H1 8121   5.191   2.101   5.085
 2534WAT     H2 8122   5.288   2.131   5.197
 2535WAT      O 8123   3.879   1.709   5.194
 2535WAT     H1 8124   3.879   1.761   5.113
 2535WAT     H2 8125   3.796   1.661   5.191
 2536WAT      O 8126   4.518   2.720   4.344
 2536WAT     H1 8127   4.456   2.767   4.287
 2536WAT     H2 8128   4.569   2.789   4.385
 2537WAT      O 8129   4.004   2.673   5.011
 2537WAT     H1 8130   3.971   2.736   5.076
 2537WAT     H2 8131   4.022   2.725   4.933
 2538WAT      O 8132   4.856   2.054   4.758
 2538WAT     H1 8133   4.785   2.083   4.816
 2538WAT     H2 8134   4.892   2.135   4.722
 2539WAT      O 8135   3.847   1.880   4.994
 2539WAT     H1 8136   3.882   1.964   4.965
 2539WAT     H2 8137   3.754   1.895   5.006
 2540WAT      O 8138   3.925   2.870   5.193
 2540WAT     H1 8139   3.987   2.937   5.165
 2540WAT     H2 8140   3.839   2.911   5.184
 2541WAT      O 8141   3.455   2.789   4.081
 2541WAT     H1 8142   3.417   2.837   4.008
 2541WAT     H2 8143   3.481   2.856   4.144
 2542WAT      O 8144   5.017   3.016   4.984
 2542WAT     H1 8145   4.949   3.083   4.984
 2542WAT     H2 8146   5.071   3.036   4.908
 2543WAT      O 8147   5.163   1.999   4.797
 2543WAT     H1 8148   5.068   2.002   4.810
 2543WAT     H2 8149   5.195   2.080   4.836
 2544WAT      O 8150   4.216   1.629   4.627
 2544WAT     H1 8151   4.246   1.573   4.555
 2544WAT     H2 8152   4.123   1.642   4.609
 2545WAT      O 8153   4.771   3.200   4.856
 2545WAT     H1 8154   4.772   3.160   4.769
 2545WAT     H2 8155   4.716   3.278   4.845
 2546WAT      O 8156   4.900   2.873   4.365
 2546WAT     H1 8157   4.889   2.778   4.377
 2546WAT     H2 8158   4.900   2.909   4.453
 2547WAT      O 8159   4.711   2.691   4.989
 2547WAT     H1 8160   4.752   2.669   4.905
 2547WAT     H2 8161   4.783   2.716   5.046
 2548WAT      O 8162   4.455   2.435   4.300
 2548WAT     H1 8163   4.362   2.429   4.323
 2548WAT     H2 8164   4.470   2.529   4.289
 2549WAT      O 8165   4.453   2.062   4.000
 2549WAT     H1 8166   4.359   2.079   4.009
 2549WAT     H2 8167   4.485   2.134   3.945
 2550WAT      O 8168   5.105   2.531   4.998
 2550WAT     H1 8169   5.023   2.538   4.950
 2550WAT     H2 8170   5.165   2.589   4.951
 2551WAT      O 8171   4.857   2.591   4.351
 2551WAT     H1 8172   4.796   2.558   4.286
 2551WAT     H2 8173   4.856   2.527   4.422
 2552WAT      O 8174   4.802   2.209   5.092
 2552WAT     H1 8175   4.760   2.292   5.118
 2552WAT     H2 8176   4.729   2.151   5.073
 2553WAT      O 8177   4.015   2.488   4.579
 2553WAT     H1 8178   3.975   2.417   4.529
 2553WAT     H2 8179   4.024   2.453   4.667
 2554WAT      O 8180   4.062   2.857   4.795
 2554WAT     H1 8181   4.032   2.796   4.727
 2554WAT     H2 8182   4.157   2.860   4.784
 2555WAT      O 8183   3.886   2.165   4.957
 2555WAT     H1 8184   3.942   2.176   4.879
 2555WAT     H2 8185   3.938   2.203   5.028
 2556WAT      O 8186   4.871   3.214   5.161
 2556WAT     H1 8187   4.823   3.295   5.142
 2556WAT     H2 8188   4.802   3.149   5.176
 2557WAT      O 8189   3.971   2.830   5.460
 2557WAT     H1 8190   3.881   2.853   5.485
 2557WAT     H2 8191   3.974   2.843   5.365
 2558WAT      O 8192   4.675   2.515   4.051
 2558WAT     H1 8193   4.719   2.432   4.037
 2558WAT     H2 8194   4.746   2.579   4.060
 2559WAT      O 8195   3.854   2.518   5.318
 2559WAT     H1 8196   3.840   2.605   5.354
 2559WAT     H2 8197   3.766   2.483   5.303
 2560WAT      O 8198   4.486   3.009   4.448
 2560WAT     H1 8199   4.530   3.084   4.407
 2560WAT     H2 8200   4.480   3.034   4.541
 2561WAT      O 8201   4.034   3.112   5.538
 2561WAT     H1 8202   4.031   3.152   5.452
 2561WAT     H2 8203   4.017   3.019   5.522
 2562WAT      O 8204   5.033   1.641   3.883
 2562WAT     H1 8205   5.002   1.650   3.973
 2562WAT     H2 8206   5.109   1.699   3.878
 2563WAT      O 8207   3.685   2.377   4.329
 2563WAT     H1 8208   3.673   2.450   4.267
 2563WAT     H2 8209   3.654   2.300   4.281
 2564WAT      O 8210   3.449   2.695   4.909
 2564WAT     H1 8211   3.457   2.708   4.815
 2564WAT     H2 8212   3.510   2.624   4.929
 2565WAT      O 8213   3.573   2.865   4.550
 2565WAT     H1 8214   3.533   2.879   4.465
 2565WAT     H2 8215   3.663   2.836   4.530
 2566WAT      O 8216   5.169   2.909   5.384
 2566WAT     H1 8217   5.182   2.885   5.292
 2566WAT     H2 8218   5.173   2.826   5.431
 2567WAT      O 8219   4.555   3.279   5.241
 2567WAT     H1 8220   4.607   3.271   5.321
 2567WAT     H2 8221   4.471   3.314   5.270
 2568WAT      O 8222   4.753   3.308   4.184
 2568WAT     H1 8223   4.737   3.279   4.274
 2568WAT     H2 8224   4.736   3.230   4.130
 2569WAT      O 8225   4.001   3.286   4.362
 2569WAT     H1 8226   3.983   3.194   4.340
 2569WAT     H2 8227   3.915   3.322   4.386
 2570WAT      O 8228   4.723   3.059   4.040
 2570WAT     H1 8229   4.654   3.059   3.974
 2570WAT     H2 8230   4.797   3.016   3.997
 2571WAT      O 8231   4.680   3.221   4.447
 2571WAT     H1 8232   4.725   3.143   4.479
 2571WAT     H2 8233   4.713   3.293   4.502
 2572WAT      O 8234   5.154   2.114   5.481
 2572WAT     H1 8235   5.093   2.165   5.428
 2572WAT     H2 8236   5.122   2.024   5.475
 2573WAT      O 8237   3.455   2.799   5.163
 2573WAT     H1 8238   3.471   2.752   5.081
 2573WAT     H2 8239   3.501   2.748   5.230
 2574WAT      O 8240   3.932   1.712   4.667
 2574WAT     H1 8241   3.887   1.790   4.634
 2574WAT     H2 8242   3.988   1.744   4.738
 2575WAT      O 8243   4.360   1.998   5.227
 2575WAT     H1 8244   4.314   2.019   5.308
 2575WAT     H2 8245   4.320   1.917   5.197
 2576WAT      O 8246   4.861   2.120   5.340
 2576WAT     H1 8247   4.775   2.091   5.372
 2576WAT     H2 8248   4.845   2.145   5.249
 2577WAT      O 8249   4.570   2.271   5.550
 2577WAT     H1 8250   4.603   2.187   5.516
 2577WAT     H2 8251   4.649   2.323   5.565
 2578WAT      O 8252   4.243   1.674   4.155
 2578WAT     H1 8253   4.181   1.673   4.227
 2578WAT     H2 8254   4.235   1.587   4.115
 2579WAT      O 8255   4.136   1.766   4.853
 2579WAT     H1 8256   4.165   1.857   4.845
 2579WAT     H2 8257   4.190   1.717   4.791
 2580WAT      O 8258   3.911   2.224   4.440
 2580WAT     H1 8259   3.888   2.202   4.530
 2580WAT     H2 8260   3.833   2.267   4.405
 2581WAT      O 8261   4.634   2.225   4.300
 2581WAT     H1 8262   4.574   2.297   4.281
 2581WAT     H2 8263   4.689   2.218   4.221
 2582WAT      O 8264   4.155   2.314   5.506
 2582WAT     H1 8265   4.145   2.220   5.491
 2582WAT     H2 8266   4.239   2.336   5.467
 2583WAT      O 8267   4.495   2.088   4.503
 2583WAT     H1 8268   4.534   2.120   4.421
 2583WAT     H2 8269   4.531   2.000   4.514
 2584WAT      O 8270   3.668   1.955   5.322
 2584WAT     H1 8271   3.629   2.040   5.342
 2584WAT     H2 8272   3.599   1.891   5.341
 2585WAT      O 8273   3.398   1.747   4.725
 2585WAT     H1 8274   3.369   1.804   4.796
 2585WAT     H2 8275   3.473   1.699   4.761
 2586WAT      O 8276   3.417   2.142   3.846
 2586WAT     H1 8277   3.409   2.236   3.860
 2586WAT     H2 8278   3.382   2.127   3.758
 2587WAT      O 8279   4.553   2.347   4.912
 2587WAT     H1 8280   4.480   2.398   4.947
 2587WAT     H2 8281   4.513   2.266   4.882
 2588WAT      O 8282   4.197   2.015   4.753
 2588WAT     H1 8283   4.197   1.971   4.668
 2588WAT     H2 8284   4.286   2.047   4.763
 2589WAT      O 8285   3.782   2.003   4.649
 2589WAT     H1 8286   3.748   2.051   4.724
 2589WAT     H2 8287   3.706   1.958   4.613
 2590WAT      O 8288   4.203   2.115   4.052
 2590WAT     H1 8289   4.215   2.111   4.147
 2590WAT     H2 8290   4.165   2.201   4.036
 2591WAT      O 8291   4.599   1.893   4.853
 2591WAT     H1 8292   4.601   1.938   4.938
 2591WAT     H2 8293   4.574   1.803   4.875
 2592WAT      O 8294   4.104   2.346   3.992
 2592WAT     H1 8295   4.047   2.301   3.929
 2592WAT     H2 8296   4.175   2.382   3.938
 2593WAT      O 8297   4.942   1.634   5.437
 2593WAT     H1 8298   4.975   1.561   5.490
 2593WAT     H2 8299   4.946   1.602   5.347
 2594WAT      O 8300   3.612   2.736   5.379
 2594WAT     H1 8301   3.574   2.672   5.439
 2594WAT     H2 8302   3.643   2.807   5.436
 2595WAT      O 8303   4.227   2.421   4.927
 2595WAT     H1 8304   4.264   2.374   5.002
 2595WAT     H2 8305   4.208   2.508   4.961
 2596WAT      O 8306   3.513   1.895   4.540
 2596WAT     H1 8307   3.485   1.859   4.624
 2596WAT     H2 8308   3.507   1.822   4.479
 2597WAT      O 8309   4.006   2.325   5.159
 2597WAT     H1 8310   3.976   2.413   5.182
 2597WAT     H2 8311   4.101   2.331   5.163
 2598WAT      O 8312   3.859   2.746   4.219
 2598WAT     H1 8313   3.781   2.692   4.203
 2598WAT     H2 8314   3.932   2.694   4.185
 2599WAT      O 8315   4.935   2.645   4.798
 2599WAT     H1 8316   5.007   2.695   4.759
 2599WAT     H2 8317   4.914   2.577   4.734
 2600WAT      O 8318   4.481   1.785   4.212
 2600WAT     H1 8319   4.399   1.735   4.205
 2600WAT     H2 8320   4.461   1.869   4.171
 2601WAT      O 8321   4.473   2.652   5.387
 2601WAT     H1 8322   4.466   2.560   5.361
 2601WAT     H2 8323   4.410   2.662   5.458
 2602WAT      O 8324   4.752   2.222   4.042
 2602WAT     H1 8325   4.841   2.253   4.025
 2602WAT     H2 8326   4.749   2.135   4.003
 2603WAT      O 8327   3.863   2.712   4.583
 2603WAT     H1 8328   3.915   2.632   4.577
 2603WAT     H2 8329   3.818   2.706   4.667
 2604WAT      O 8330   4.352   2.839   4.110
 2604WAT     H1 8331   4.386   2.914   4.060
 2604WAT     H2 8332   4.269   2.870   4.146
 2605WAT      O 8333   3.612   2.409   5.274
 2605WAT     H1 8334   3.576   2.476   5.333
 2605WAT     H2 8335   3.582   2.326   5.311
 2606WAT      O 8336   3.932   2.455   5.562
 2606WAT     H1 8337   3.902   2.469   5.473
 2606WAT     H2 8338   4.009   2.399   5.553
 2607WAT      O 8339   4.466   2.935   5.362
 2607WAT     H1 8340   4.467   2.841   5.340
 2607WAT     H2 8341   4.395   2.943   5.426
 2608WAT      O 8342   4.979   2.353   3.989
 2608WAT     H1 8343   4.971   2.396   3.904
 2608WAT     H2 8344   5.051   2.399   4.032
 2609WAT      O 8345   5.087   2.599   5.297
 2609WAT     H1 8346   5.015   2.658   5.277
 2609WAT     H2 8347   5.140   2.598   5.217
 2610WAT      O 8348   5.082   3.038   4.262
 2610WAT     H1 8349   5.018   2.973   4.289
 2610WAT     H2 8350   5.044   3.079   4.184
 2611WAT      O 8351   4.640   2.771   4.646
 2611WAT     H1 8352   4.675   2.712   4.580
 2611WAT     H2 8353   4.552   2.739   4.663
 2612WAT      O 8354   4.249   2.847   4.387
 2612WAT     H1 8355   4.317   2.902   4.425
 2612WAT     H2 8356   4.170   2.902   4.391
 2613WAT      O 8357   3.463   2.409   3.936
 2613WAT     H1 8358   3.550   2.437   3.965
 2613WAT     H2 8359   3.414   2.490   3.925
 2614WAT      O 8360   4.179   2.548   4.348
 2614WAT     H1 8361   4.225   2.629   4.371
 2614WAT     H2 8362   4.144   2.516   4.431
 2615WAT      O 8363   4.409   3.099   5.071
 2615WAT     H1 8364   4.474   3.119   5.139
 2615WAT     H2 8365   4.446   3.023   5.026
 2616WAT      O 8366   3.769   1.582   4.396
 2616WAT     H1 8367   3.756   1.581   4.490
 2616WAT     H2 8368   3.687   1.616   4.360
 2617WAT      O 8369   4.537   2.899   4.943
 2617WAT     H1 8370   4.601   2.829   4.954
 2617WAT     H2 8371   4.589   2.977   4.925
 2618WAT      O 8372   4.921   2.928   3.915
 2618WAT     H1 8373   4.899   2.856   3.975
 2618WAT     H2 8374   4.882   2.903   3.832
 2619WAT      O 8375   4.714   2.979   5.263
 2619WAT     H1 8376   4.748   3.038   5.331
 2619WAT     H2 8377   4.622   2.966   5.286
 2620WAT      O 8378   3.469   1.758   5.342
 2620WAT     H1 8379   3.398   1.778   5.402
 2620WAT     H2 8380   3.511   1.680   5.379
 2621WAT      O 8381   4.879   2.719   4.082
 2621WAT     H1 8382   4.851   2.765   4.160
 2621WAT     H2 8383   4.959   2.673   4.108
 2622WAT      O 8384   3.498   3.157   5.440
 2622WAT     H1 8385   3.509   3.063   5.426
 2622WAT     H2 8386   3.433   3.183   5.375
 2623WAT      O 8387   4.101   3.069   4.075
 2623WAT     H1 8388   4.100   3.142   4.013
 2623WAT     H2 8389   4.009   3.044   4.084
 2624WAT      O 8390   3.661   2.591   4.149
 2624WAT     H1 8391   3.600   2.665   4.150
 2624WAT     H2 8392   3.709   2.600   4.066
 2625WAT      O 8393   4.618   2.007   5.117
 2625WAT     H1 8394   4.655   1.925   5.149
 2625WAT     H2 8395   4.532   2.013   5.158
 2626WAT      O 8396   4.955   1.903   4.197
 2626WAT     H1 8397   4.892   1.913   4.126
 2626WAT     H2 8398   4.906   1.925   4.276
 2627WAT      O 8399   4.400   3.075   3.941
 2627WAT     H1 8400   4.410   3.054   3.848
 2627WAT     H2 8401   4.310   3.049   3.961
 2628WAT      O 8402   4.152   2.131   4.339
 2628WAT     H1 8403   4.081   2.178   4.383
 2628WAT     H2 8404   4.180   2.065   4.403
 2629WAT      O 8405   4.314   2.273   5.139
 2629WAT     H1 8406   4.364   2.320   5.206
 2629WAT     H2 8407   4.329   2.180   5.160
 2630WAT      O 8408   4.555   1.803   4.483
 2630WAT     H1 8409   4.543   1.805   4.388
 2630WAT     H2 8410   4.650   1.808   4.495
 2631WAT      O 8411   4.264   3.327   4.410
 2631WAT     H1 8412   4.289   3.323   4.318
 2631WAT     H2 8413   4.169   3.314   4.410
 2632WAT      O 8414   3.972   1.961   4.077
 2632WAT     H1 8415   4.057   2.005   4.070
 2632WAT     H2 8416   3.936   1.993   4.159
 2633WAT      O 8417   5.035   1.894   5.223
 2633WAT     H1 8418   4.985   1.968   5.257
 2633WAT     H2 8419   5.117   1.933   5.192
 2634WAT      O 8420   4.864   2.419   4.568
 2634WAT     H1 8421   4.770   2.420   4.585
 2634WAT     H2 8422   4.896   2.340   4.612
 2635WAT      O 8423   3.862   2.587   3.924
 2635WAT     H1 8424   3.939   2.576   3.980
 2635WAT     H2 8425   3.870   2.517   3.859
 2636WAT      O 8426   3.732   2.330   3.992
 2636WAT     H1 8427   3.740   2.235   4.003
 2636WAT     H2 8428   3.821   2.363   4.003
 2637WAT      O 8429   5.065   3.136   4.735
 2637WAT     H1 8430   5.077   3.218   4.783
 2637WAT     H2 8431   5.151   3.115   4.701
 2638WAT      O 8432   3.812   3.345   4.703
 2638WAT     H1 8433   3.885   3.290   4.730
 2638WAT     H2 8434   3.850   3.432   4.689
 2639WAT      O 8435   3.500   2.952   4.290
 2639WAT     H1 8436   3.408   2.976   4.289
 2639WAT     H2 8437   3.547   3.034   4.278
 2640WAT      O 8438   4.123   3.262   3.885
 2640WAT     H1 8439   4.202   3.291   3.840
 2640WAT     H2 8440   4.071   3.219   3.817
 2641WAT      O 8441   4.739   3.247   5.477
 2641WAT     H1 8442   4.834   3.239   5.472
 2641WAT     H2 8443   4.724   3.313   5.545
 2642WAT      O 8444   5.028   3.185   4.027
 2642WAT     H1 8445   5.000   3.144   3.946
 2642WAT     H2 8446   5.008   3.278   4.015
 2643WAT      O 8447   4.175   2.784   3.871
 2643WAT     H1 8448   4.164   2.723   3.944
 2643WAT     H2 8449   4.158   2.732   3.793
 2644WAT      O 8450   4.190   2.653   5.469
 2644WAT     H1 8451   4.113   2.710   5.461
 2644WAT     H2 8452   4.208   2.624   5.380
 2645WAT      O 8453   4.499   2.691   3.932
 2645WAT     H1 8454   4.444   2.735   3.996
 2645WAT     H2 8455   4.561   2.640   3.984
 2646WAT      O 8456   4.904   2.826   5.525
 2646WAT     H1 8457   4.978   2.860   5.475
 2646WAT     H2 8458   4.828   2.843   5.470
 2647WAT      O 8459   4.065   2.586   4.121
 2647WAT     H1 8460   4.108   2.570   4.206
 2647WAT     H2 8461   4.078   2.505   4.072
 2648WAT      O 8462   3.882   2.184   5.402
 2648WAT     H1 8463   3.829   2.135   5.339
 2648WAT     H2 8464   3.949   2.227   5.349
 2649WAT      O 8465   4.317   2.489   3.846
 2649WAT     H1 8466   4.369   2.417   3.810
 2649WAT     H2 8467   4.381   2.553   3.876
 2650WAT      O 8468   4.771   2.631   5.378
 2650WAT     H1 8469   4.813   2.647   5.463
 2650WAT     H2 8470   4.678   2.644   5.395
 2651WAT      O 8471   3.930   1.881   5.410
 2651WAT     H1 8472   3.921   1.819   5.338
 2651WAT     H2 8473   3.872   1.954   5.387
 2652WAT      O 8474   4.207   1.737   5.113
 2652WAT     H1 8475   4.162   1.739   5.029
 2652WAT     H2 8476   4.144   1.697   5.173
 2653WAT      O 8477   4.248   2.626   5.175
 2653WAT     H1 8478   4.289   2.711   5.158
 2653WAT     H2 8479   4.156   2.640   5.153
 2654WAT      O 8480   4.481   2.399   5.314
 2654WAT     H1 8481   4.493   2.340   5.388
 2654WAT     H2 8482   4.567   2.403   5.272
 2655WAT      O 8483   4.715   2.455   5.171
 2655WAT     H1 8484   4.662   2.507   5.111
 2655WAT     H2 8485   4.749   2.518   5.235
 2656WAT      O 8486   3.955   2.194   3.816
 2656WAT     H1 8487   3.935   2.107   3.852
 2656WAT     H2 8488   3.938   2.185   3.722
 2657WAT      O 8489   4.033   3.257   5.287
 2657WAT     H1 8490   3.979   3.329   5.255
 2657WAT     H2 8491   4.058   3.209   5.208
 2658WAT      O 8492   4.158   2.054   5.440
 2658WAT     H1 8493   4.217   2.023   5.508
 2658WAT     H2 8494   4.076   2.007   5.455
 2659WAT      O 8495   4.640   2.015   5.463
 2659WAT     H1 8496   4.571   1.949   5.456
 2659WAT     H2 8497   4.712   1.971   5.507
 2660WAT      O 8498   4.703   1.675   4.069
 2660WAT     H1 8499   4.731   1.591   4.104
 2660WAT     H2 8500   4.625   1.698   4.120
 2661WAT      O 8501   3.835   1.904   3.815
 2661WAT     H1 8502   3.865   1.904   3.724
 2661WAT     H2 8503   3.909   1.869   3.864
 2662WAT      O 8504   4.318   3.380   5.313
 2662WAT     H1 8505   4.311   3.471   5.344
 2662WAT     H2 8506   4.228   3.348   5.310
 2663WAT      O 8507   4.157   1.798   3.913
 2663WAT     H1 8508   4.122   1.730   3.855
 2663WAT     H2 8509   4.177   1.752   3.995
 2664WAT      O 8510   4.373   3.297   4.075
 2664WAT     H1 8511   4.463   3.331   4.077
 2664WAT     H2 8512   4.376   3.225   4.012
 2665WAT      O 8513   3.737   2.834   3.898
 2665WAT     H1 8514   3.781   2.889   3.964
 2665WAT     H2 8515   3.786   2.752   3.899
 2666WAT      O 8516   3.459   3.113   4.643
 2666WAT     H1 8517   3.492   3.026   4.620
 2666WAT     H2 8518   3.501   3.134   4.726
 2667WAT      O 8519   3.918   2.946   4.409
 2667WAT     H1 8520   3.888   2.934   4.499
 2667WAT     H2 8521   3.908   2.860   4.368
 2668WAT      O 8522   3.507   3.200   4.917
 2668WAT     H1 8523   3.464   3.218   5.000
 2668WAT     H2 8524   3.564   3.276   4.903
 2669WAT      O 8525   5.071   3.150   5.346
 2669WAT     H1 8526   5.011   3.156   5.271
 2669WAT     H2 8527   5.084   3.056   5.359
 2670WAT      O 8528   5.195   2.924   3.880
 2670WAT     H1 8529   5.112   2.931   3.927
 2670WAT     H2 8530   5.213   3.013   3.849
 2671WAT      O 8531   5.141   2.599   4.130
 2671WAT     H1 8532   5.217   2.656   4.140
 2671WAT     H2 8533   5.142   2.542   4.207
 2672WAT      O 8534   3.491   2.451   4.553
 2672WAT     H1 8535   3.425   2.424   4.489
 2672WAT     H2 8536   3.574   2.440   4.508
 2673WAT      O 8537   5.241   2.684   4.614
 2673WAT     H1 8538   5.278   2.606   4.574
 2673WAT     H2 8539   5.305   2.753   4.596
 2674WAT      O 8540   4.940   2.823   5.156
 2674WAT     H1 8541   4.858   2.865   5.182
 2674WAT     H2 8542   4.980   2.884   5.094
 2675WAT      O 8543   5.146   2.628   3.846
 2675WAT     H1 8544   5.173   2.719   3.833
 2675WAT     H2 8545   5.127   2.622   3.939
 2676WAT      O 8546   4.786   1.930   3.975
 2676WAT     H1 8547   4.827   1.912   3.891
 2676WAT     H2 8548   4.755   1.845   4.006
 2677WAT      O 8549   5.135   2.422   4.345
 2677WAT     H1 8550   5.098   2.345   4.302
 2677WAT     H2 8551   5.063   2.460   4.394
 2678WAT      O 8552   3.594   2.490   5.007
 2678WAT     H1 8553   3.631   2.481   5.095
 2678WAT     H2 8554   3.538   2.413   4.997
 2679WAT      O 8555   5.074   2.336   5.308
 2679WAT     H1 8556   5.051   2.314   5.218
 2679WAT     H2 8557   5.101   2.428   5.304
 2680WAT      O 8558   3.550   2.181   5.398
 2680WAT     H1 8559   3.460   2.177   5.431
 2680WAT     H2 8560   3.604   2.201   5.474
 2681WAT      O 8561   3.412   2.172   4.147
 2681WAT     H1 8562   3.322   2.198   4.130
 2681WAT     H2 8563   3.460   2.199   4.069
 2682WAT      O 8564   5.063   2.244   4.675
 2682WAT     H1 8565   5.115   2.195   4.612
 2682WAT     H2 8566   5.122   2.258   4.749
 2683WAT      O 8567   5.081   2.253   5.027
 2683WAT     H1 8568   4.986   2.249   5.039
 2683WAT     H2 8569   5.099   2.344   5.004
 2684WAT      O 8570   3.666   2.078   3.938
 2684WAT     H1 8571   3.737   2.036   3.890
 2684WAT     H2 8572   3.595   2.084   3.875
 2685WAT      O 8573   3.631   1.683   3.842
 2685WAT     H1 8574   3.703   1.737   3.874
 2685WAT     H2 8575   3.658   1.656   3.755
 2686WAT      O 8576   5.012   2.170   4.269
 2686WAT     H1 8577   5.062   2.147   4.347
 2686WAT     H2 8578   4.992   2.086   4.227
 2687WAT      O 8579   3.600   1.608   4.832
 2687WAT     H1 8580   3.665   1.553   4.788
 2687WAT     H2 8581   3.642   1.634   4.915
 2688WAT      O 8582   5.155   2.034   4.522
 2688WAT     H1 8583   5.144   2.018   4.616
 2688WAT     H2 8584   5.231   1.981   4.498
 2689WAT      O 8585   4.990   1.628   5.168
 2689WAT     H1 8586   5.053   1.689   5.205
 2689WAT     H2 8587   5.004   1.631   5.074
 2690WAT      O 8588   5.244   1.817   3.846
 2690WAT     H1 8589   5.336   1.803   3.825
 2690WAT     H2 8590   5.242   1.825   3.942
 2691WAT      O 8591   5.251   1.894   4.109
 2691WAT     H1 8592   5.172   1.887   4.162
 2691WAT     H2 8593   5.272   1.987   4.108
 2692WAT      O 8594   4.945   3.298   4.508
 2692WAT     H1 8595   5.005   3.266   4.441
 2692WAT     H2 8596   4.971   3.250   4.587
 2693WAT      O 8597   3.575   1.624   5.107
 2693WAT     H1 8598   3.540   1.669   5.183
 2693WAT     H2 8599   3.542   1.534   5.115
 2694WAT      O 8600   4.106   3.096   5.083
 2694WAT     H1 8601   4.082   3.123   4.995
 2694WAT     H2 8602   4.200   3.114   5.089
 2695WAT      O 8603   4.327   1.743   5.459
 2695WAT     H1 8604   4.320   1.802   5.534
 2695WAT     H2 8605   4.421   1.732   5.444
 2696WAT      O 8606   4.590   1.709   5.423
 2696WAT     H1 8607   4.652   1.740   5.357
 2696WAT     H2 8608   4.645   1.660   5.485
 2697WAT      O 8609   5.232   3.298   5.163
 2697WAT     H1 8610   5.183   3.338   5.092
 2697WAT     H2 8611   5.171   3.236   5.203
 2698WAT      O 8612   3.643   1.576   5.434
 2698WAT     H1 8613   3.697   1.558   5.358
 2698WAT     H2 8614   3.649   1.497   5.488
 2699WAT      O 8615   3.720   3.236   5.235
 2699WAT     H1 8616   3.660   3.222   5.309
 2699WAT     H2 8617   3.719   3.152   5.189
 2700WAT      O 8618   4.664   1.565   5.055
 2700WAT     H1 8619   4.577   1.598   5.035
 2700WAT     H2 8620   4.653   1.518   5.138
 2701WAT      O 8621   4.755   1.786   5.194
 2701WAT     H1 8622   4.722   1.704   5.156
 2701WAT     H2 8623   4.850   1.781   5.182
 2702WAT      O 8624   5.000   3.363   4.891
 2702WAT     H1 8625   4.954   3.438   4.854
 2702WAT     H2 8626   4.938   3.291   4.885
 2703WAT      O 8627   3.683   2.972   5.130
 2703WAT     H1 8628   3.610   2.910   5.123
 2703WAT     H2 8629   3.689   3.011   5.043
 2704WAT      O 8630   4.043   3.194   4.809
 2704WAT     H1 8631   4.095   3.132   4.756
 2704WAT     H2 8632   4.108   3.244   4.858
 2705WAT      O 8633   4.317   3.283   4.891
 2705WAT     H1 8634   4.346   3.257   4.804
 2705WAT     H2 8635   4.369   3.227   4.950
 2706WAT      O 8636   4.439   1.657   4.949
 2706WAT     H1 8637   4.361   1.704   4.977
 2706WAT     H2 8638   4.410   1.566   4.938
 2707WAT      O 8639   4.894   1.727   4.754
 2707WAT     H1 8640   4.938   1.721   4.669
 2707WAT     H2 8641   4.867   1.818   4.761
 2708WAT      O 8642   5.081   1.690   4.555
 2708WAT     H1 8643   5.075   1.596   4.540
 2708WAT     H2 8644   5.159   1.701   4.609
 2709WAT      O 8645   3.511   3.304   4.451
 2709WAT     H1 8646   3.494   3.241   4.521
 2709WAT     H2 8647   3.425   3.324   4.416
 2710WAT      O 8648   3.574   1.687   4.201
 2710WAT     H1 8649   3.649   1.698   4.144
 2710WAT     H2 8650   3.527   1.771   4.197
 2711WAT      O 8651   4.228   1.898   4.501
 2711WAT     H1 8652   4.146   1.861   4.466
 2711WAT     H2 8653   4.278   1.823   4.531
 2712WAT      O 8654   4.678   1.565   4.624
 2712WAT     H1 8655   4.738   1.622   4.672
 2712WAT     H2 8656   4.604   1.621   4.602
 2713WAT      O 8657   4.992   1.605   4.152
 2713WAT     H1 8658   5.012   1.695   4.178
 2713WAT     H2 8659   4.914   1.582   4.201
 2714WAT      O 8660   3.672   3.173   4.196
 2714WAT     H1 8661   3.619   3.211   4.125
 2714WAT     H2 8662   3.664   3.236   4.268
 2715WAT      O 8663   3.811   1.740   4.056
 2715WAT     H1 8664   3.864   1.661   4.043
 2715WAT     H2 8665   3.874   1.808   4.079
 2716WAT      O 8666   4.030   1.713   4.361
 2716WAT     H1 8667   3.967   1.643   4.378
 2716WAT     H2 8668   3.976   1.789   4.339
 2717WAT      O 8669   5.148   3.329   4.328
 2717WAT     H1 8670   5.165   3.260   4.263
 2717WAT     H2 8671   5.078   3.382   4.289
 2718WAT      O 8672   3.932   3.368   4.083
 2718WAT     H1 8673   4.005   3.340   4.028
 2718WAT     H2 8674   3.958   3.344   4.172
 2719WAT      O 8675   3.848   2.980   4.084
 2719WAT     H1 8676   3.785   3.026   4.138
 2719WAT     H2 8677   3.859   2.895   4.127
 2720WAT      O 8678   3.570   1.891   3.120
 2720WAT     H1 8679   3.552   1.801   3.148
 2720WAT     H2 8680   3.530   1.945   3.187
 2721WAT      O 8681   4.454   2.111   2.910
 2721WAT     H1 8682   4.491   2.023   2.899
 2721WAT     H2 8683   4.444   2.144   2.821
 2722WAT      O 8684   4.832   1.860   2.603
 2722WAT     H1 8685   4.914   1.811   2.608
 2722WAT     H2 8686   4.835   1.919   2.679
 2723WAT      O 8687   5.261   2.062   3.260
 2723WAT     H1 8688   5.191   2.101   3.208
 2723WAT     H2 8689   5.288   2.131   3.320
 2724WAT      O 8690   3.879   1.709   3.316
 2724WAT     H1 8691   3.879   1.761   3.236
 2724WAT     H2 8692   3.796   1.661   3.314
 2725WAT      O 8693   4.856   2.054   2.881
 2725WAT     H1 8694   4.785   2.083   2.939
 2725WAT     H2 8695   4.892   2.135   2.845
 2726WAT      O 8696   3.847   1.880   3.117
 2726WAT     H1 8697   3.882   1.964   3.087
 2726WAT     H2 8698   3.754   1.895   3.129
 2727WAT      O 8699   3.925   2.870   3.315
 2727WAT     H1 8700   3.987   2.937   3.287
 2727WAT     H2 8701   3.839   2.911   3.306
 2728WAT      O 8702   5.017   3.016   3.107
 2728WAT     H1 8703   4.949   3.083   3.106
 2728WAT     H2 8704   5.071   3.036   3.030
 2729WAT      O 8705   5.163   1.999   2.920
 2729WAT     H1 8706   5.068   2.002   2.933
 2729WAT     H2 8707   5.195   2.080   2.958
 2730WAT      O 8708   4.216   1.629   2.749
 2730WAT     H1 8709   4.246   1.573   2.678
 2730WAT     H2 8710   4.123   1.642   2.731
 2731WAT      O 8711   4.771   3.200   2.978
 2731WAT     H1 8712   4.772   3.160   2.892
 2731WAT     H2 8713   4.716   3.278   2.968
 2732WAT      O 8714   4.711   2.691   3.111
 2732WAT     H1 8715   4.752   2.669   3.028
 2732WAT     H2 8716   4.783   2.716   3.168
 2733WAT      O 8717   4.453   2.062   2.123
 2733WAT     H1 8718   4.359   2.079   2.131
 2733WAT     H2 8719   4.485   2.134   2.068
 2734WAT      O 8720   5.105   2.531   3.120
 2734WAT     H1 8721   5.023   2.538   3.073
 2734WAT     H2 8722   5.165   2.589   3.074
 2735WAT      O 8723   4.802   2.209   3.215
 2735WAT     H1 8724   4.760   2.292   3.240
 2735WAT     H2 8725   4.729   2.151   3.196
 2736WAT      O 8726   4.871   3.214   3.284
 2736WAT     H1 8727   4.823   3.295   3.264
 2736WAT     H2 8728   4.802   3.149   3.299
 2737WAT      O 8729   3.971   2.830   3.583
 2737WAT     H1 8730   3.881   2.853   3.607
 2737WAT     H2 8731   3.974   2.843   3.488
 2738WAT      O 8732   4.034   3.112   3.661
 2738WAT     H1 8733   4.031   3.152   3.574
 2738WAT     H2 8734   4.017   3.019   3.645
 2739WAT      O 8735   5.033   1.641   2.005
 2739WAT     H1 8736   5.002   1.650   2.095
 2739WAT     H2 8737   5.109   1.699   2.000
 2740WAT      O 8738   5.229   3.190   3.791
 2740WAT     H1 8739   5.276   3.238   3.859
 2740WAT     H2 8740   5.291   3.183   3.718
 2741WAT      O 8741   5.169   2.909   3.507
 2741WAT     H1 8742   5.182   2.885   3.415
 2741WAT     H2 8743   5.173   2.826   3.554
 2742WAT      O 8744   4.555   3.279   3.364
 2742WAT     H1 8745   4.607   3.271   3.444
 2742WAT     H2 8746   4.471   3.314   3.393
 2743WAT      O 8747   4.753   3.308   2.306
 2743WAT     H1 8748   4.737   3.279   2.396
 2743WAT     H2 8749   4.736   3.230   2.253
 2744WAT      O 8750   4.723   3.059   2.162
 2744WAT     H1 8751   4.654   3.059   2.096
 2744WAT     H2 8752   4.797   3.016   2.119
 2745WAT      O 8753   5.154   2.114   3.603
 2745WAT     H1 8754   5.093   2.165   3.550
 2745WAT     H2 8755   5.122   2.024   3.597
 2746WAT      O 8756   3.932   1.712   2.789
 2746WAT     H1 8757   3.887   1.790   2.756
 2746WAT     H2 8758   3.988   1.744   2.860
 2747WAT      O 8759   4.360   1.998   3.350
 2747WAT     H1 8760   4.314   2.019   3.431
 2747WAT     H2 8761   4.320   1.917   3.320
 2748WAT      O 8762   4.861   2.120   3.463
 2748WAT     H1 8763   4.775   2.091   3.495
 2748WAT     H2 8764   4.845   2.145   3.372
 2749WAT      O 8765   4.570   2.271   3.673
 2749WAT     H1 8766   4.603   2.187   3.639
 2749WAT     H2 8767   4.649   2.323   3.688
 2750WAT      O 8768   4.243   1.674   2.278
 2750WAT     H1 8769   4.181   1.673   2.350
 2750WAT     H2 8770   4.235   1.587   2.238
 2751WAT      O 8771   4.136   1.766   2.975
 2751WAT     H1 8772   4.165   1.857   2.967
 2751WAT     H2 8773   4.190   1.717   2.914
 2752WAT      O 8774   4.155   2.314   3.629
 2752WAT     H1 8775   4.145   2.220   3.614
 2752WAT     H2 8776   4.239   2.336   3.589
 2753WAT      O 8777   4.495   2.088   2.625
 2753WAT     H1 8778   4.534   2.120   2.544
 2753WAT     H2 8779   4.531   2.000   2.637
 2754WAT      O 8780   3.668   1.955   3.444
 2754WAT     H1 8781   3.629   2.040   3.465
 2754WAT     H2 8782   3.599   1.891   3.463
 2755WAT      O 8783   4.325   1.963   3.751
 2755WAT     H1 8784   4.256   1.944   3.815
 2755WAT     H2 8785   4.400   1.992   3.804
 2756WAT      O 8786   3.398   1.747   2.847
 2756WAT     H1 8787   3.369   1.804   2.919
 2756WAT     H2 8788   3.473   1.699   2.884
 2757WAT      O 8789   3.417   2.142   1.969
 2757WAT     H1 8790   3.409   2.236   1.983
 2757WAT     H2 8791   3.382   2.127   1.881
 2758WAT      O 8792   4.553   2.347   3.035
 2758WAT     H1 8793   4.480   2.398   3.070
 2758WAT     H2 8794   4.513   2.266   3.005
 2759WAT      O 8795   4.203   2.115   2.174
 2759WAT     H1 8796   4.215   2.111   2.269
 2759WAT     H2 8797   4.165   2.201   2.159
 2760WAT      O 8798   4.599   1.893   2.976
 2760WAT     H1 8799   4.601   1.938   3.060
 2760WAT     H2 8800   4.574   1.803   2.997
 2761WAT      O 8801   4.942   1.634   3.560
 2761WAT     H1 8802   4.975   1.561   3.612
 2761WAT     H2 8803   4.946   1.602   3.470
 2762WAT      O 8804   4.481   1.785   2.335
 2762WAT     H1 8805   4.399   1.735   2.327
 2762WAT     H2 8806   4.461   1.869   2.293
 2763WAT      O 8807   4.473   2.652   3.509
 2763WAT     H1 8808   4.466   2.560   3.484
 2763WAT     H2 8809   4.410   2.662   3.581
 2764WAT      O 8810   3.932   2.455   3.685
 2764WAT     H1 8811   3.902   2.469   3.595
 2764WAT     H2 8812   4.009   2.399   3.676
 2765WAT      O 8813   4.466   2.935   3.484
 2765WAT     H1 8814   4.467   2.841   3.463
 2765WAT     H2 8815   4.395   2.943   3.548
 2766WAT      O 8816   5.087   2.599   3.419
 2766WAT     H1 8817   5.015   2.658   3.399
 2766WAT     H2 8818   5.140   2.598   3.339
 2767WAT      O 8819   4.409   3.099   3.194
 2767WAT     H1 8820   4.474   3.119   3.262
 2767WAT     H2 8821   4.446   3.023   3.148
 2768WAT      O 8822   3.769   1.582   2.518
 2768WAT     H1 8823   3.756   1.581   2.613
 2768WAT     H2 8824   3.687   1.616   2.483
 2769WAT      O 8825   4.537   2.899   3.066
 2769WAT     H1 8826   4.601   2.829   3.077
 2769WAT     H2 8827   4.589   2.977   3.048
 2770WAT      O 8828   4.921   2.928   2.038
 2770WAT     H1 8829   4.899   2.856   2.097
 2770WAT     H2 8830   4.882   2.903   1.954
 2771WAT      O 8831   4.714   2.979   3.386
 2771WAT     H1 8832   4.748   3.038   3.454
 2771WAT     H2 8833   4.622   2.966   3.409
 2772WAT      O 8834   3.499   3.330   2.115
 2772WAT     H1 8835   3.535   3.390   2.050
 2772WAT     H2 8836   3.485   3.385   2.193
 2773WAT      O 8837   3.469   1.758   3.464
 2773WAT     H1 8838   3.398   1.778   3.525
 2773WAT     H2 8839   3.511   1.680   3.501
 2774WAT      O 8840   4.297   2.984   3.703
 2774WAT     H1 8841   4.265   2.912   3.757
 2774WAT     H2 8842   4.229   3.052   3.710
 2775WAT      O 8843   4.618   2.007   3.239
 2775WAT     H1 8844   4.655   1.925   3.272
 2775WAT     H2 8845   4.532   2.013   3.281
 2776WAT      O 8846   4.955   1.903   2.320
 2776WAT     H1 8847   4.892   1.913   2.249
 2776WAT     H2 8848   4.906   1.925   2.399
 2777WAT      O 8849   4.152   2.131   2.462
 2777WAT     H1 8850   4.081   2.178   2.506
 2777WAT     H2 8851   4.180   2.065   2.525
 2778WAT      O 8852   4.314   2.273   3.262
 2778WAT     H1 8853   4.364   2.320   3.328
 2778WAT     H2 8854   4.329   2.180   3.282
 2779WAT      O 8855   4.555   1.803   2.606
 2779WAT     H1 8856   4.543   1.805   2.511
 2779WAT     H2 8857   4.650   1.808   2.618
 2780WAT      O 8858   3.972   1.961   2.199
 2780WAT     H1 8859   4.057   2.005   2.193
 2780WAT     H2 8860   3.936   1.993   2.282
 2781WAT      O 8861   5.035   1.894   3.346
 2781WAT     H1 8862   4.985   1.968   3.380
 2781WAT     H2 8863   5.117   1.933   3.314
 2782WAT      O 8864   5.065   3.136   2.858
 2782WAT     H1 8865   5.077   3.218   2.905
 2782WAT     H2 8866   5.151   3.115   2.823
 2783WAT      O 8867   3.812   3.345   2.825
 2783WAT     H1 8868   3.885   3.290   2.852
 2783WAT     H2 8869   3.850   3.432   2.811
 2784WAT      O 8870   4.596   2.874   3.739
 2784WAT     H1 8871   4.535   2.877   3.665
 2784WAT     H2 8872   4.566   2.801   3.792
 2785WAT      O 8873   4.739   3.247   3.600
 2785WAT     H1 8874   4.834   3.239   3.595
 2785WAT     H2 8875   4.724   3.313   3.667
 2786WAT      O 8876   5.028   3.185   2.150
 2786WAT     H1 8877   5.000   3.144   2.068
 2786WAT     H2 8878   5.008   3.278   2.138
 2787WAT      O 8879   4.190   2.653   3.592
 2787WAT     H1 8880   4.113   2.710   3.583
 2787WAT     H2 8881   4.208   2.624   3.502
 2788WAT      O 8882   4.904   2.826   3.647
 2788WAT     H1 8883   4.978   2.860   3.597
 2788WAT     H2 8884   4.828   2.843   3.592
 2789WAT      O 8885   3.688   2.327   3.728
 2789WAT     H1 8886   3.692   2.297   3.819
 2789WAT     H2 8887   3.773   2.367   3.712
 2790WAT      O 8888   3.882   2.184   3.525
 2790WAT     H1 8889   3.829   2.135   3.462
 2790WAT     H2 8890   3.949   2.227   3.471
 2791WAT      O 8891   4.771   2.631   3.501
 2791WAT     H1 8892   4.813   2.647   3.586
 2791WAT     H2 8893   4.678   2.644   3.517
 2792WAT      O 8894   4.819   2.365   3.701
 2792WAT     H1 8895   4.877   2.290   3.693
 2792WAT     H2 8896   4.836   2.418   3.624
 2793WAT      O 8897   3.930   1.881   3.533
 2793WAT     H1 8898   3.921   1.819   3.460
 2793WAT     H2 8899   3.872   1.954   3.510
 2794WAT      O 8900   4.207   1.737   3.236
 2794WAT     H1 8901   4.162   1.739   3.151
 2794WAT     H2 8902   4.144   1.697   3.296
 2795WAT      O 8903   4.248   2.626   3.298
 2795WAT     H1 8904   4.289   2.711   3.281
 2795WAT     H2 8905   4.156   2.640   3.275
 2796WAT      O 8906   4.481   2.399   3.436
 2796WAT     H1 8907   4.493   2.340   3.510
 2796WAT     H2 8908   4.567   2.403   3.394
 2797WAT      O 8909   4.715   2.455   3.294
 2797WAT     H1 8910   4.662   2.507   3.234
 2797WAT     H2 8911   4.749   2.518   3.357
 2798WAT      O 8912   3.955   2.194   1.938
 2798WAT     H1 8913   3.935   2.107   1.975
 2798WAT     H2 8914   3.938   2.185   1.845
 2799WAT      O 8915   4.033   3.257   3.410
 2799WAT     H1 8916   3.979   3.329   3.378
 2799WAT     H2 8917   4.058   3.209   3.331
 2800WAT      O 8918   4.158   2.054   3.562
 2800WAT     H1 8919   4.217   2.023   3.631
 2800WAT     H2 8920   4.076   2.007   3.578
 2801WAT      O 8921   4.640   2.015   3.585
 2801WAT     H1 8922   4.571   1.949   3.579
 2801WAT     H2 8923   4.712   1.971   3.630
 2802WAT      O 8924   4.703   1.675   2.191
 2802WAT     H1 8925   4.731   1.591   2.227
 2802WAT     H2 8926   4.625   1.698   2.243
 2803WAT      O 8927   3.835   1.904   1.937
 2803WAT     H1 8928   3.865   1.904   1.846
 2803WAT     H2 8929   3.909   1.869   1.987
 2804WAT      O 8930   4.318   3.380   3.435
 2804WAT     H1 8931   4.311   3.471   3.466
 2804WAT     H2 8932   4.228   3.348   3.433
 2805WAT      O 8933   4.157   1.798   2.036
 2805WAT     H1 8934   4.122   1.730   1.978
 2805WAT     H2 8935   4.177   1.752   2.117
 2806WAT      O 8936   5.071   3.150   3.468
 2806WAT     H1 8937   5.011   3.156   3.394
 2806WAT     H2 8938   5.084   3.056   3.481
 2807WAT      O 8939   5.195   2.924   2.002
 2807WAT     H1 8940   5.112   2.931   2.049
 2807WAT     H2 8941   5.213   3.013   1.972
 2808WAT      O 8942   5.141   2.599   2.252
 2808WAT     H1 8943   5.217   2.656   2.263
 2808WAT     H2 8944   5.142   2.542   2.329
 2809WAT      O 8945   4.940   2.823   3.278
 2809WAT     H1 8946   4.858   2.865   3.304
 2809WAT     H2 8947   4.980   2.884   3.217
 2810WAT      O 8948   5.146   2.628   1.968
 2810WAT     H1 8949   5.173   2.719   1.955
 2810WAT     H2 8950   5.127   2.622   2.062
 2811WAT      O 8951   4.786   1.930   2.098
 2811WAT     H1 8952   4.827   1.912   2.014
 2811WAT     H2 8953   4.755   1.845   2.129
 2812WAT      O 8954   5.135   2.422   2.467
 2812WAT     H1 8955   5.098   2.345   2.424
 2812WAT     H2 8956   5.063   2.460   2.516
 2813WAT      O 8957   5.074   2.336   3.431
 2813WAT     H1 8958   5.051   2.314   3.341
 2813WAT     H2 8959   5.101   2.428   3.426
 2814WAT      O 8960   4.918   1.859   3.709
 2814WAT     H1 8961   5.006   1.860   3.747
 2814WAT     H2 8962   4.920   1.785   3.648
 2815WAT      O 8963   5.063   2.244   2.797
 2815WAT     H1 8964   5.115   2.195   2.734
 2815WAT     H2 8965   5.122   2.258   2.872
 2816WAT      O 8966   5.081   2.253   3.150
 2816WAT     H1 8967   4.986   2.249   3.161
 2816WAT     H2 8968   5.099   2.344   3.126
 2817WAT      O 8969   3.666   2.078   2.061
 2817WAT     H1 8970   3.737   2.036   2.012
 2817WAT     H2 8971   3.595   2.084   1.998
 2818WAT      O 8972   3.631   1.683   1.965
 2818WAT     H1 8973   3.703   1.737   1.997
 2818WAT     H2 8974   3.658   1.656   1.877
 2819WAT      O 8975   5.012   2.170   2.391
 2819WAT     H1 8976   5.062   2.147   2.470
 2819WAT     H2 8977   4.992   2.086   2.350
 2820WAT      O 8978   3.600   1.608   2.955
 2820WAT     H1 8979   3.665   1.553   2.911
 2820WAT     H2 8980   3.642   1.634   3.037
 2821WAT      O 8981   5.155   2.034   2.645
 2821WAT     H1 8982   5.144   2.018   2.739
 2821WAT     H2 8983   5.231   1.981   2.621
 2822WAT      O 8984   4.990   1.628   3.291
 2822WAT     H1 8985   5.053   1.689   3.327
 2822WAT     H2 8986   5.004   1.631   3.196
 2823WAT      O 8987   5.244   1.817   1.969
 2823WAT     H1 8988   5.336   1.803   1.948
 2823WAT     H2 8989   5.242   1.825   2.064
 2824WAT      O 8990   5.251   1.894   2.231
 2824WAT     H1 8991   5.172   1.887   2.284
 2824WAT     H2 8992   5.272   1.987   2.230
 2825WAT      O 8993   4.945   3.298   2.631
 2825WAT     H1 8994   5.005   3.266   2.563
 2825WAT     H2 8995   4.971   3.250   2.710
 2826WAT      O 8996   3.575   1.624   3.229
 2826WAT     H1 8997   3.540   1.669   3.306
 2826WAT     H2 8998   3.542   1.534   3.237
 2827WAT      O 8999   4.106   3.096   3.206
 2827WAT     H1 9000   4.082   3.123   3.117
 2827WAT     H2 9001   4.200   3.114   3.211
 2828WAT      O 9002   4.327   1.743   3.581
 2828WAT     H1 9003   4.320   1.802   3.656
 2828WAT     H2 9004   4.421   1.732   3.567
 2829WAT      O 9005   4.590   1.709   3.545
 2829WAT     H1 9006   4.652   1.740   3.479
 2829WAT     H2 9007   4.645   1.660   3.607
 2830WAT      O 9008   5.232   3.298   3.286
 2830WAT     H1 9009   5.183   3.338   3.214
 2830WAT     H2 9010   5.171   3.236   3.325
 2831WAT      O 9011   3.643   1.576   3.557
 2831WAT     H1 9012   3.697   1.558   3.480
 2831WAT     H2 9013   3.649   1.497   3.610
 2832WAT      O 9014   4.664   1.565   3.178
 2832WAT     H1 9015   4.577   1.598   3.158
 2832WAT     H2 9016   4.653   1.518   3.261
 2833WAT      O 9017   4.755   1.786   3.316
 2833WAT     H1 9018   4.722   1.704   3.278
 2833WAT     H2 9019   4.850   1.781   3.304
 2834WAT      O 9020   5.000   3.363   3.014
 2834WAT     H1 9021   4.954   3.438   2.976
 2834WAT     H2 9022   4.938   3.291   3.008
 2835WAT      O 9023   3.683   2.972   3.253
 2835WAT     H1 9024   3.610   2.910   3.246
 2835WAT     H2 9025   3.689   3.011   3.166
 2836WAT      O 9026   4.317   3.283   3.014
 2836WAT     H1 9027   4.346   3.257   2.926
 2836WAT     H2 9028   4.369   3.227   3.073
 2837WAT      O 9029   4.439   1.657   3.072
 2837WAT     H1 9030   4.361   1.704   3.100
 2837WAT     H2 9031   4.410   1.566   3.061
 2838WAT      O 9032   4.894   1.727   2.876
 2838WAT     H1 9033   4.938   1.721   2.792
 2838WAT     H2 9034   4.867   1.818   2.884
 2839WAT      O 9035   5.081   1.690   2.678
 2839WAT     H1 9036   5.075   1.596   2.663
 2839WAT     H2 9037   5.159   1.701   2.732
 2840WAT      O 9038   3.511   3.304   2.574
 2840WAT     H1 9039   3.494   3.241   2.644
 2840WAT     H2 9040   3.425   3.324   2.539
 2841WAT      O 9041   3.574   1.687   2.324
 2841WAT     H1 9042   3.649   1.698   2.267
 2841WAT     H2 9043   3.527   1.771   2.319
 2842WAT      O 9044   4.228   1.898   2.623
 2842WAT     H1 9045   4.146   1.861   2.589
 2842WAT     H2 9046   4.278   1.823   2.653
 2843WAT      O 9047   4.678   1.565   2.747
 2843WAT     H1 9048   4.738   1.622   2.794
 2843WAT     H2 9049   4.604   1.621   2.725
 2844WAT      O 9050   4.992   1.605   2.274
 2844WAT     H1 9051   5.012   1.695   2.301
 2844WAT     H2 9052   4.914   1.582   2.324
 2845WAT      O 9053   3.811   1.740   2.178
 2845WAT     H1 9054   3.864   1.661   2.165
 2845WAT     H2 9055   3.874   1.808   2.201
 2846WAT      O 9056   4.030   1.713   2.484
 2846WAT     H1 9057   3.967   1.643   2.500
 2846WAT     H2 9058   3.976   1.789   2.462
 2847WAT      O 9059   4.324   3.375   3.751
 2847WAT     H1 9060   4.417   3.351   3.755
 2847WAT     H2 9061   4.323   3.458   3.703
 2848WAT      O 9062   5.148   3.329   2.450
 2848WAT     H1 9063   5.165   3.260   2.386
 2848WAT     H2 9064   5.078   3.382   2.411
 2849WAT      O 9065   4.043   1.641   3.727
 2849WAT     H1 9066   4.015   1.692   3.651
 2849WAT     H2 9067   4.081   1.561   3.690
 2850WAT      O 9068   4.703   1.583   3.785
 2850WAT     H1 9069   4.692   1.615   3.874
 2850WAT     H2 9070   4.785   1.623   3.755
 2851WAT      O 9071   4.981   3.297   3.733
 2851WAT     H1 9072   5.060   3.248   3.712
 2851WAT     H2 9073   5.010   3.365   3.794
 2852WAT      O 9074   4.593   2.385   0.821
 2852WAT     H1 9075   4.585   2.293   0.794
 2852WAT     H2 9076   4.552   2.434   0.751
 2853WAT      O 9077   4.407   2.562   1.009
 2853WAT     H1 9078   4.329   2.514   1.038
 2853WAT     H2 9079   4.472   2.495   0.992
 2854WAT      O 9080   3.808   2.594   1.097
 2854WAT     H1 9081   3.725   2.568   1.137
 2854WAT     H2 9082   3.869   2.601   1.171
 2855WAT      O 9083   4.809   3.003   0.887
 2855WAT     H1 9084   4.763   2.926   0.920
 2855WAT     H2 9085   4.890   3.006   0.938
 2856WAT      O 9086   3.806   2.997   1.117
 2856WAT     H1 9087   3.837   2.908   1.099
 2856WAT     H2 9088   3.881   3.053   1.094
 2857WAT      O 9089   3.649   2.090   0.475
 2857WAT     H1 9090   3.560   2.124   0.465
 2857WAT     H2 9091   3.678   2.070   0.386
 2858WAT      O 9092   3.446   2.350   1.064
 2858WAT     H1 9093   3.503   2.273   1.064
 2858WAT     H2 9094   3.446   2.380   0.973
 2859WAT      O 9095   4.431   3.232   0.849
 2859WAT     H1 9096   4.369   3.277   0.792
 2859WAT     H2 9097   4.517   3.247   0.809
 2860WAT      O 9098   4.351   2.830   1.010
 2860WAT     H1 9099   4.344   2.736   0.994
 2860WAT     H2 9100   4.427   2.839   1.067
 2861WAT      O 9101   3.570   1.891   1.243
 2861WAT     H1 9102   3.552   1.801   1.271
 2861WAT     H2 9103   3.530   1.945   1.310
 2862WAT      O 9104   4.454   2.111   1.033
 2862WAT     H1 9105   4.491   2.023   1.021
 2862WAT     H2 9106   4.444   2.144   0.944
 2863WAT      O 9107   3.867   1.948   0.579
 2863WAT     H1 9108   3.878   2.038   0.610
 2863WAT     H2 9109   3.776   1.943   0.550
 2864WAT      O 9110   4.832   1.860   0.726
 2864WAT     H1 9111   4.914   1.811   0.730
 2864WAT     H2 9112   4.835   1.919   0.801
 2865WAT      O 9113   3.632   2.140   1.103
 2865WAT     H1 9114   3.700   2.167   1.165
 2865WAT     H2 9115   3.600   2.056   1.137
 2866WAT      O 9116   4.051   2.245   1.012
 2866WAT     H1 9117   4.102   2.295   1.076
 2866WAT     H2 9118   4.104   2.167   0.995
 2867WAT      O 9119   5.261   2.062   1.382
 2867WAT     H1 9120   5.191   2.101   1.331
 2867WAT     H2 9121   5.288   2.131   1.443
 2868WAT      O 9122   3.879   1.709   1.439
 2868WAT     H1 9123   3.879   1.761   1.358
 2868WAT     H2 9124   3.796   1.661   1.436
 2869WAT      O 9125   4.518   2.720   0.589
 2869WAT     H1 9126   4.456   2.767   0.532
 2869WAT     H2 9127   4.569   2.789   0.630
 2870WAT      O 9128   4.004   2.673   1.256
 2870WAT     H1 9129   3.971   2.736   1.321
 2870WAT     H2 9130   4.022   2.725   1.179
 2871WAT      O 9131   4.856   2.054   1.003
 2871WAT     H1 9132   4.785   2.083   1.061
 2871WAT     H2 9133   4.892   2.135   0.967
 2872WAT      O 9134   3.847   1.880   1.239
 2872WAT     H1 9135   3.882   1.964   1.210
 2872WAT     H2 9136   3.754   1.895   1.251
 2873WAT      O 9137   3.925   2.870   1.438
 2873WAT     H1 9138   3.987   2.937   1.410
 2873WAT     H2 9139   3.839   2.911   1.429
 2874WAT      O 9140   3.455   2.789   0.326
 2874WAT     H1 9141   3.417   2.837   0.253
 2874WAT     H2 9142   3.481   2.856   0.389
 2875WAT      O 9143   5.017   3.016   1.230
 2875WAT     H1 9144   4.949   3.083   1.229
 2875WAT     H2 9145   5.071   3.036   1.153
 2876WAT      O 9146   5.163   1.999   1.042
 2876WAT     H1 9147   5.068   2.002   1.056
 2876WAT     H2 9148   5.195   2.080   1.081
 2877WAT      O 9149   4.216   1.629   0.872
 2877WAT     H1 9150   4.246   1.573   0.800
 2877WAT     H2 9151   4.123   1.642   0.854
 2878WAT      O 9152   4.771   3.200   1.101
 2878WAT     H1 9153   4.772   3.160   1.014
 2878WAT     H2 9154   4.716   3.278   1.091
 2879WAT      O 9155   4.900   2.873   0.610
 2879WAT     H1 9156   4.889   2.778   0.622
 2879WAT     H2 9157   4.900   2.909   0.699
 2880WAT      O 9158   4.711   2.691   1.234
 2880WAT     H1 9159   4.752   2.669   1.150
 2880WAT     H2 9160   4.783   2.716   1.291
 2881WAT      O 9161   4.455   2.435   0.546
 2881WAT     H1 9162   4.362   2.429   0.568
 2881WAT     H2 9163   4.470   2.529   0.534
 2882WAT      O 9164   4.453   2.062   0.245
 2882WAT     H1 9165   4.359   2.079   0.254
 2882WAT     H2 9166   4.485   2.134   0.191
 2883WAT      O 9167   5.105   2.531   1.243
 2883WAT     H1 9168   5.023   2.538   1.195
 2883WAT     H2 9169   5.165   2.589   1.196
 2884WAT      O 9170   4.857   2.591   0.596
 2884WAT     H1 9171   4.796   2.558   0.531
 2884WAT     H2 9172   4.856   2.527   0.667
 2885WAT      O 9173   4.802   2.209   1.338
 2885WAT     H1 9174   4.760   2.292   1.363
 2885WAT     H2 9175   4.729   2.151   1.318
 2886WAT      O 9176   4.015   2.488   0.824
 2886WAT     H1 9177   3.975   2.417   0.774
 2886WAT     H2 9178   4.024   2.453   0.913
 2887WAT      O 9179   4.062   2.857   1.040
 2887WAT     H1 9180   4.032   2.796   0.972
 2887WAT     H2 9181   4.157   2.860   1.029
 2888WAT      O 9182   3.886   2.165   1.202
 2888WAT     H1 9183   3.942   2.176   1.124
 2888WAT     H2 9184   3.938   2.203   1.273
 2889WAT      O 9185   4.871   3.214   1.406
 2889WAT     H1 9186   4.823   3.295   1.387
 2889WAT     H2 9187   4.802   3.149   1.422
 2890WAT      O 9188   4.675   2.515   0.297
 2890WAT     H1 9189   4.719   2.432   0.282
 2890WAT     H2 9190   4.746   2.579   0.305
 2891WAT      O 9191   3.854   2.518   1.563
 2891WAT     H1 9192   3.840   2.605   1.600
 2891WAT     H2 9193   3.766   2.483   1.548
 2892WAT      O 9194   4.486   3.009   0.693
 2892WAT     H1 9195   4.530   3.084   0.652
 2892WAT     H2 9196   4.480   3.034   0.786
 2893WAT      O 9197   3.685   2.377   0.574
 2893WAT     H1 9198   3.673   2.450   0.513
 2893WAT     H2 9199   3.654   2.300   0.526
 2894WAT      O 9200   5.229   3.190   1.913
 2894WAT     H1 9201   5.276   3.238   1.981
 2894WAT     H2 9202   5.291   3.183   1.841
 2895WAT      O 9203   3.449   2.695   1.154
 2895WAT     H1 9204   3.457   2.708   1.060
 2895WAT     H2 9205   3.510   2.624   1.174
 2896WAT      O 9206   3.573   2.865   0.796
 2896WAT     H1 9207   3.533   2.879   0.710
 2896WAT     H2 9208   3.663   2.836   0.775
 2897WAT      O 9209   5.169   2.909   1.629
 2897WAT     H1 9210   5.182   2.885   1.537
 2897WAT     H2 9211   5.173   2.826   1.676
 2898WAT      O 9212   4.555   3.279   1.486
 2898WAT     H1 9213   4.607   3.271   1.566
 2898WAT     H2 9214   4.471   3.314   1.515
 2899WAT      O 9215   4.753   3.308   0.429
 2899WAT     H1 9216   4.737   3.279   0.519
 2899WAT     H2 9217   4.736   3.230   0.375
 2900WAT      O 9218   4.001   3.286   0.607
 2900WAT     H1 9219   3.983   3.194   0.585
 2900WAT     H2 9220   3.915   3.322   0.631
 2901WAT      O 9221   4.723   3.059   0.285
 2901WAT     H1 9222   4.654   3.059   0.219
 2901WAT     H2 9223   4.797   3.016   0.242
 2902WAT      O 9224   4.680   3.221   0.692
 2902WAT     H1 9225   4.725   3.143   0.724
 2902WAT     H2 9226   4.713   3.293   0.747
 2903WAT      O 9227   5.154   2.114   1.726
 2903WAT     H1 9228   5.093   2.165   1.673
 2903WAT     H2 9229   5.122   2.024   1.720
 2904WAT      O 9230   3.455   2.799   1.408
 2904WAT     H1 9231   3.471   2.752   1.327
 2904WAT     H2 9232   3.501   2.748   1.475
 2905WAT      O 9233   3.932   1.712   0.912
 2905WAT     H1 9234   3.887   1.790   0.879
 2905WAT     H2 9235   3.988   1.744   0.983
 2906WAT      O 9236   4.360   1.998   1.472
 2906WAT     H1 9237   4.314   2.019   1.554
 2906WAT     H2 9238   4.320   1.917   1.442
 2907WAT      O 9239   4.861   2.120   1.585
 2907WAT     H1 9240   4.775   2.091   1.617
 2907WAT     H2 9241   4.845   2.145   1.494
 2908WAT      O 9242   4.570   2.271   1.795
 2908WAT     H1 9243   4.603   2.187   1.761
 2908WAT     H2 9244   4.649   2.323   1.810
 2909WAT      O 9245   4.243   1.674   0.400
 2909WAT     H1 9246   4.181   1.673   0.473
 2909WAT     H2 9247   4.235   1.587   0.360
 2910WAT      O 9248   4.136   1.766   1.098
 2910WAT     H1 9249   4.165   1.857   1.090
 2910WAT     H2 9250   4.190   1.717   1.037
 2911WAT      O 9251   3.911   2.224   0.685
 2911WAT     H1 9252   3.888   2.202   0.775
 2911WAT     H2 9253   3.833   2.267   0.650
 2912WAT      O 9254   4.634   2.225   0.545
 2912WAT     H1 9255   4.574   2.297   0.526
 2912WAT     H2 9256   4.689   2.218   0.466
 2913WAT      O 9257   4.155   2.314   1.751
 2913WAT     H1 9258   4.145   2.220   1.736
 2913WAT     H2 9259   4.239   2.336   1.712
 2914WAT      O 9260   4.495   2.088   0.748
 2914WAT     H1 9261   4.534   2.120   0.666
 2914WAT     H2 9262   4.531   2.000   0.759
 2915WAT      O 9263   3.668   1.955   1.567
 2915WAT     H1 9264   3.629   2.040   1.587
 2915WAT     H2 9265   3.599   1.891   1.586
 2916WAT      O 9266   4.325   1.963   1.874
 2916WAT     H1 9267   4.256   1.944   1.937
 2916WAT     H2 9268   4.400   1.992   1.927
 2917WAT      O 9269   3.398   1.747   0.970
 2917WAT     H1 9270   3.369   1.804   1.041
 2917WAT     H2 9271   3.473   1.699   1.006
 2918WAT      O 9272   4.553   2.347   1.157
 2918WAT     H1 9273   4.480   2.398   1.192
 2918WAT     H2 9274   4.513   2.266   1.127
 2919WAT      O 9275   4.197   2.015   0.998
 2919WAT     H1 9276   4.197   1.971   0.913
 2919WAT     H2 9277   4.286   2.047   1.009
 2920WAT      O 9278   3.782   2.003   0.894
 2920WAT     H1 9279   3.748   2.051   0.969
 2920WAT     H2 9280   3.706   1.958   0.858
 2921WAT      O 9281   4.203   2.115   0.297
 2921WAT     H1 9282   4.215   2.111   0.392
 2921WAT     H2 9283   4.165   2.201   0.281
 2922WAT      O 9284   4.599   1.893   1.098
 2922WAT     H1 9285   4.601   1.938   1.183
 2922WAT     H2 9286   4.574   1.803   1.120
 2923WAT      O 9287   4.104   2.346   0.237
 2923WAT     H1 9288   4.047   2.301   0.174
 2923WAT     H2 9289   4.175   2.382   0.183
 2924WAT      O 9290   4.942   1.634   1.682
 2924WAT     H1 9291   4.975   1.561   1.735
 2924WAT     H2 9292   4.946   1.602   1.592
 2925WAT      O 9293   3.612   2.736   1.624
 2925WAT     H1 9294   3.574   2.672   1.684
 2925WAT     H2 9295   3.643   2.807   1.681
 2926WAT      O 9296   4.227   2.421   1.172
 2926WAT     H1 9297   4.264   2.374   1.247
 2926WAT     H2 9298   4.208   2.508   1.207
 2927WAT      O 9299   3.513   1.895   0.785
 2927WAT     H1 9300   3.485   1.859   0.869
 2927WAT     H2 9301   3.507   1.822   0.724
 2928WAT      O 9302   4.006   2.325   1.404
 2928WAT     H1 9303   3.976   2.413   1.427
 2928WAT     H2 9304   4.101   2.331   1.408
 2929WAT      O 9305   3.859   2.746   0.464
 2929WAT     H1 9306   3.781   2.692   0.448
 2929WAT     H2 9307   3.932   2.694   0.430
 2930WAT      O 9308   4.935   2.645   1.043
 2930WAT     H1 9309   5.007   2.695   1.004
 2930WAT     H2 9310   4.914   2.577   0.979
 2931WAT      O 9311   4.481   1.785   0.458
 2931WAT     H1 9312   4.399   1.735   0.450
 2931WAT     H2 9313   4.461   1.869   0.416
 2932WAT      O 9314   4.473   2.652   1.632
 2932WAT     H1 9315   4.466   2.560   1.606
 2932WAT     H2 9316   4.410   2.662   1.703
 2933WAT      O 9317   4.752   2.222   0.287
 2933WAT     H1 9318   4.841   2.253   0.270
 2933WAT     H2 9319   4.749   2.135   0.248
 2934WAT      O 9320   3.863   2.712   0.828
 2934WAT     H1 9321   3.915   2.632   0.822
 2934WAT     H2 9322   3.818   2.706   0.912
 2935WAT      O 9323   4.352   2.839   0.355
 2935WAT     H1 9324   4.386   2.914   0.305
 2935WAT     H2 9325   4.269   2.870   0.391
 2936WAT      O 9326   3.612   2.409   1.519
 2936WAT     H1 9327   3.576   2.476   1.578
 2936WAT     H2 9328   3.582   2.326   1.556
 2937WAT      O 9329   4.466   2.935   1.607
 2937WAT     H1 9330   4.467   2.841   1.585
 2937WAT     H2 9331   4.395   2.943   1.671
 2938WAT      O 9332   5.087   2.599   1.542
 2938WAT     H1 9333   5.015   2.658   1.522
 2938WAT     H2 9334   5.140   2.598   1.462
 2939WAT      O 9335   5.082   3.038   0.507
 2939WAT     H1 9336   5.018   2.973   0.534
 2939WAT     H2 9337   5.044   3.079   0.429
 2940WAT      O 9338   4.640   2.771   0.891
 2940WAT     H1 9339   4.675   2.712   0.825
 2940WAT     H2 9340   4.552   2.739   0.909
 2941WAT      O 9341   4.249   2.847   0.632
 2941WAT     H1 9342   4.317   2.902   0.670
 2941WAT     H2 9343   4.170   2.902   0.636
 2942WAT      O 9344   3.463   2.409   0.181
 2942WAT     H1 9345   3.550   2.437   0.210
 2942WAT     H2 9346   3.414   2.490   0.170
 2943WAT      O 9347   4.179   2.548   0.593
 2943WAT     H1 9348   4.225   2.629   0.616
 2943WAT     H2 9349   4.144   2.516   0.677
 2944WAT      O 9350   4.409   3.099   1.316
 2944WAT     H1 9351   4.474   3.119   1.384
 2944WAT     H2 9352   4.446   3.023   1.271
 2945WAT      O 9353   3.769   1.582   0.641
 2945WAT     H1 9354   3.756   1.581   0.736
 2945WAT     H2 9355   3.687   1.616   0.606
 2946WAT      O 9356   4.537   2.899   1.188
 2946WAT     H1 9357   4.601   2.829   1.199
 2946WAT     H2 9358   4.589   2.977   1.170
 2947WAT      O 9359   4.714   2.979   1.508
 2947WAT     H1 9360   4.748   3.038   1.576
 2947WAT     H2 9361   4.622   2.966   1.531
 2948WAT      O 9362   3.499   3.330   0.238
 2948WAT     H1 9363   3.535   3.390   0.173
 2948WAT     H2 9364   3.485   3.385   0.315
 2949WAT      O 9365   3.469   1.758   1.587
 2949WAT     H1 9366   3.398   1.778   1.647
 2949WAT     H2 9367   3.511   1.680   1.624
 2950WAT      O 9368   4.879   2.719   0.327
 2950WAT     H1 9369   4.851   2.765   0.405
 2950WAT     H2 9370   4.959   2.673   0.354
 2951WAT      O 9371   3.498   3.157   1.685
 2951WAT     H1 9372   3.509   3.063   1.671
 2951WAT     H2 9373   3.433   3.183   1.621
 2952WAT      O 9374   4.101   3.069   0.320
 2952WAT     H1 9375   4.100   3.142   0.258
 2952WAT     H2 9376   4.009   3.044   0.329
 2953WAT      O 9377   3.661   2.591   0.394
 2953WAT     H1 9378   3.600   2.665   0.395
 2953WAT     H2 9379   3.709   2.600   0.312
 2954WAT      O 9380   4.618   2.007   1.362
 2954WAT     H1 9381   4.655   1.925   1.395
 2954WAT     H2 9382   4.532   2.013   1.403
 2955WAT      O 9383   4.955   1.903   0.443
 2955WAT     H1 9384   4.892   1.913   0.371
 2955WAT     H2 9385   4.906   1.925   0.522
 2956WAT      O 9386   4.152   2.131   0.584
 2956WAT     H1 9387   4.081   2.178   0.628
 2956WAT     H2 9388   4.180   2.065   0.648
 2957WAT      O 9389   4.314   2.273   1.384
 2957WAT     H1 9390   4.364   2.320   1.451
 2957WAT     H2 9391   4.329   2.180   1.405
 2958WAT      O 9392   4.555   1.803   0.728
 2958WAT     H1 9393   4.543   1.805   0.633
 2958WAT     H2 9394   4.650   1.808   0.740
 2959WAT      O 9395   4.264   3.327   0.655
 2959WAT     H1 9396   4.289   3.323   0.563
 2959WAT     H2 9397   4.169   3.314   0.655
 2960WAT      O 9398   3.972   1.961   0.322
 2960WAT     H1 9399   4.057   2.005   0.315
 2960WAT     H2 9400   3.936   1.993   0.404
 2961WAT      O 9401   5.035   1.894   1.468
 2961WAT     H1 9402   4.985   1.968   1.502
 2961WAT     H2 9403   5.117   1.933   1.437
 2962WAT      O 9404   4.864   2.419   0.813
 2962WAT     H1 9405   4.770   2.420   0.830
 2962WAT     H2 9406   4.896   2.340   0.858
 2963WAT      O 9407   3.732   2.330   0.237
 2963WAT     H1 9408   3.740   2.235   0.249
 2963WAT     H2 9409   3.821   2.363   0.248
 2964WAT      O 9410   5.065   3.136   0.981
 2964WAT     H1 9411   5.077   3.218   1.028
 2964WAT     H2 9412   5.151   3.115   0.946
 2965WAT      O 9413   3.812   3.345   0.948
 2965WAT     H1 9414   3.885   3.290   0.975
 2965WAT     H2 9415   3.850   3.432   0.934
 2966WAT      O 9416   3.500   2.952   0.535
 2966WAT     H1 9417   3.408   2.976   0.534
 2966WAT     H2 9418   3.547   3.034   0.523
 2967WAT      O 9419   4.596   2.874   1.861
 2967WAT     H1 9420   4.535   2.877   1.787
 2967WAT     H2 9421   4.566   2.801   1.915
 2968WAT      O 9422   4.739   3.247   1.722
 2968WAT     H1 9423   4.834   3.239   1.717
 2968WAT     H2 9424   4.724   3.313   1.790
 2969WAT      O 9425   5.028   3.185   0.272
 2969WAT     H1 9426   5.000   3.144   0.191
 2969WAT     H2 9427   5.008   3.278   0.260
 2970WAT      O 9428   3.484   2.512   1.761
 2970WAT     H1 9429   3.535   2.454   1.818
 2970WAT     H2 9430   3.410   2.541   1.815
 2971WAT      O 9431   4.190   2.653   1.714
 2971WAT     H1 9432   4.113   2.710   1.706
 2971WAT     H2 9433   4.208   2.624   1.625
 2972WAT      O 9434   4.499   2.691   0.177
 2972WAT     H1 9435   4.444   2.735   0.241
 2972WAT     H2 9436   4.561   2.640   0.229
 2973WAT      O 9437   4.904   2.826   1.770
 2973WAT     H1 9438   4.978   2.860   1.720
 2973WAT     H2 9439   4.828   2.843   1.715
 2974WAT      O 9440   3.688   2.327   1.850
 2974WAT     H1 9441   3.692   2.297   1.941
 2974WAT     H2 9442   3.773   2.367   1.835
 2975WAT      O 9443   4.065   2.586   0.366
 2975WAT     H1 9444   4.108   2.570   0.451
 2975WAT     H2 9445   4.078   2.505   0.317
 2976WAT      O 9446   3.882   2.184   1.647
 2976WAT     H1 9447   3.829   2.135   1.584
 2976WAT     H2 9448   3.949   2.227   1.594
 2977WAT      O 9449   4.771   2.631   1.624
 2977WAT     H1 9450   4.813   2.647   1.709
 2977WAT     H2 9451   4.678   2.644   1.640
 2978WAT      O 9452   4.819   2.365   1.824
 2978WAT     H1 9453   4.877   2.290   1.815
 2978WAT     H2 9454   4.836   2.418   1.746
 2979WAT      O 9455   3.930   1.881   1.655
 2979WAT     H1 9456   3.921   1.819   1.583
 2979WAT     H2 9457   3.872   1.954   1.632
 2980WAT      O 9458   4.207   1.737   1.358
 2980WAT     H1 9459   4.162   1.739   1.274
 2980WAT     H2 9460   4.144   1.697   1.418
 2981WAT      O 9461   4.248   2.626   1.421
 2981WAT     H1 9462   4.289   2.711   1.403
 2981WAT     H2 9463   4.156   2.640   1.398
 2982WAT      O 9464   4.481   2.399   1.559
 2982WAT     H1 9465   4.493   2.340   1.633
 2982WAT     H2 9466   4.567   2.403   1.517
 2983WAT      O 9467   4.715   2.455   1.417
 2983WAT     H1 9468   4.662   2.507   1.356
 2983WAT     H2 9469   4.749   2.518   1.480
 2984WAT      O 9470   4.033   3.257   1.532
 2984WAT     H1 9471   3.979   3.329   1.500
 2984WAT     H2 9472   4.058   3.209   1.453
 2985WAT      O 9473   4.158   2.054   1.685
 2985WAT     H1 9474   4.217   2.023   1.753
 2985WAT     H2 9475   4.076   2.007   1.700
 2986WAT      O 9476   4.640   2.015   1.708
 2986WAT     H1 9477   4.571   1.949   1.702
 2986WAT     H2 9478   4.712   1.971   1.753
 2987WAT      O 9479   4.703   1.675   0.314
 2987WAT     H1 9480   4.731   1.591   0.350
 2987WAT     H2 9481   4.625   1.698   0.365
 2988WAT      O 9482   4.318   3.380   1.558
 2988WAT     H1 9483   4.311   3.471   1.589
 2988WAT     H2 9484   4.228   3.348   1.555
 2989WAT      O 9485   4.373   3.297   0.320
 2989WAT     H1 9486   4.463   3.331   0.322
 2989WAT     H2 9487   4.376   3.225   0.258
 2990WAT      O 9488   3.459   3.113   0.888
 2990WAT     H1 9489   3.492   3.026   0.865
 2990WAT     H2 9490   3.501   3.134   0.971
 2991WAT      O 9491   3.918   2.946   0.654
 2991WAT     H1 9492   3.888   2.934   0.744
 2991WAT     H2 9493   3.908   2.860   0.614
 2992WAT      O 9494   3.507   3.200   1.162
 2992WAT     H1 9495   3.464   3.218   1.245
 2992WAT     H2 9496   3.564   3.276   1.148
 2993WAT      O 9497   5.071   3.150   1.591
 2993WAT     H1 9498   5.011   3.156   1.517
 2993WAT     H2 9499   5.084   3.056   1.604
 2994WAT      O 9500   5.141   2.599   0.375
 2994WAT     H1 9501   5.217   2.656   0.386
 2994WAT     H2 9502   5.142   2.542   0.452
 2995WAT      O 9503   3.491   2.451   0.798
 2995WAT     H1 9504   3.425   2.424   0.734
 2995WAT     H2 9505   3.574   2.440   0.753
 2996WAT      O 9506   5.241   2.684   0.859
 2996WAT     H1 9507   5.278   2.606   0.819
 2996WAT     H2 9508   5.305   2.753   0.842
 2997WAT      O 9509   4.940   2.823   1.401
 2997WAT     H1 9510   4.858   2.865   1.427
 2997WAT     H2 9511   4.980   2.884   1.339
 2998WAT      O 9512   5.135   2.422   0.590
 2998WAT     H1 9513   5.098   2.345   0.547
 2998WAT     H2 9514   5.063   2.460   0.639
 2999WAT      O 9515   3.594   2.490   1.252
 2999WAT     H1 9516   3.631   2.481   1.340
 2999WAT     H2 9517   3.538   2.413   1.242
 3000WAT      O 9518   5.074   2.336   1.553
 3000WAT     H1 9519   5.051   2.314   1.463
 3000WAT     H2 9520   5.101   2.428   1.549
 3001WAT      O 9521   3.550   2.181   1.643
 3001WAT     H1 9522   3.460   2.177   1.677
 3001WAT     H2 9523   3.604   2.201   1.719
 3002WAT      O 9524   4.918   1.859   1.831
 3002WAT     H1 9525   5.006   1.860   1.870
 3002WAT     H2 9526   4.920   1.785   1.770
 3003WAT      O 9527   3.412   2.172   0.392
 3003WAT     H1 9528   3.322   2.198   0.375
 3003WAT     H2 9529   3.460   2.199   0.314
 3004WAT      O 9530   5.063   2.244   0.920
 3004WAT     H1 9531   5.115   2.195   0.857
 3004WAT     H2 9532   5.122   2.258   0.995
 3005WAT      O 9533   5.081   2.253   1.272
 3005WAT     H1 9534   4.986   2.249   1.284
 3005WAT     H2 9535   5.099   2.344   1.249
 3006WAT      O 9536   5.012   2.170   0.514
 3006WAT     H1 9537   5.062   2.147   0.592
 3006WAT     H2 9538   4.992   2.086   0.472
 3007WAT      O 9539   3.600   1.608   1.077
 3007WAT     H1 9540   3.665   1.553   1.033
 3007WAT     H2 9541   3.642   1.634   1.160
 3008WAT      O 9542   5.155   2.034   0.767
 3008WAT     H1 9543   5.144   2.018   0.861
 3008WAT     H2 9544   5.231   1.981   0.743
 3009WAT      O 9545   4.990   1.628   1.413
 3009WAT     H1 9546   5.053   1.689   1.450
 3009WAT     H2 9547   5.004   1.631   1.319
 3010WAT      O 9548   5.251   1.894   0.354
 3010WAT     H1 9549   5.172   1.887   0.407
 3010WAT     H2 9550   5.272   1.987   0.353
 3011WAT      O 9551   4.945   3.298   0.753
 3011WAT     H1 9552   5.005   3.266   0.686
 3011WAT     H2 9553   4.971   3.250   0.833
 3012WAT      O 9554   3.575   1.624   1.352
 3012WAT     H1 9555   3.540   1.669   1.428
 3012WAT     H2 9556   3.542   1.534   1.360
 3013WAT      O 9557   4.106   3.096   1.328
 3013WAT     H1 9558   4.082   3.123   1.240
 3013WAT     H2 9559   4.200   3.114   1.334
 3014WAT      O 9560   4.327   1.743   1.704
 3014WAT     H1 9561   4.320   1.802   1.779
 3014WAT     H2 9562   4.421   1.732   1.689
 3015WAT      O 9563   4.590   1.709   1.668
 3015WAT     H1 9564   4.652   1.740   1.602
 3015WAT     H2 9565   4.645   1.660   1.730
 3016WAT      O 9566   5.232   3.298   1.408
 3016WAT     H1 9567   5.183   3.338   1.337
 3016WAT     H2 9568   5.171   3.236   1.448
 3017WAT      O 9569   3.643   1.576   1.679
 3017WAT     H1 9570   3.697   1.558   1.603
 3017WAT     H2 9571   3.649   1.497   1.733
 3018WAT      O 9572   3.720   3.236   1.480
 3018WAT     H1 9573   3.660   3.222   1.554
 3018WAT     H2 9574   3.719   3.152   1.434
 3019WAT      O 9575   4.664   1.565   1.301
 3019WAT     H1 9576   4.577   1.598   1.280
 3019WAT     H2 9577   4.653   1.518   1.383
 3020WAT      O 9578   4.755   1.786   1.439
 3020WAT     H1 9579   4.722   1.704   1.401
 3020WAT     H2 9580   4.850   1.781   1.427
 3021WAT      O 9581   5.000   3.363   1.136
 3021WAT     H1 9582   4.954   3.438   1.099
 3021WAT     H2 9583   4.938   3.291   1.131
 3022WAT      O 9584   3.683   2.972   1.375
 3022WAT     H1 9585   3.610   2.910   1.369
 3022WAT     H2 9586   3.689   3.011   1.288
 3023WAT      O 9587   4.043   3.194   1.054
 3023WAT     H1 9588   4.095   3.132   1.001
 3023WAT     H2 9589   4.108   3.244   1.103
 3024WAT      O 9590   4.317   3.283   1.137
 3024WAT     H1 9591   4.346   3.257   1.049
 3024WAT     H2 9592   4.369   3.227   1.196
 3025WAT      O 9593   4.439   1.657   1.194
 3025WAT     H1 9594   4.361   1.704   1.222
 3025WAT     H2 9595   4.410   1.566   1.184
 3026WAT      O 9596   4.894   1.727   0.999
 3026WAT     H1 9597   4.938   1.721   0.914
 3026WAT     H2 9598   4.867   1.818   1.006
 3027WAT      O 9599   5.081   1.690   0.800
 3027WAT     H1 9600   5.075   1.596   0.785
 3027WAT     H2 9601   5.159   1.701   0.855
 3028WAT      O 9602   3.511   3.304   0.696
 3028WAT     H1 9603   3.494   3.241   0.766
 3028WAT     H2 9604   3.425   3.324   0.661
 3029WAT      O 9605   3.574   1.687   0.447
 3029WAT     H1 9606   3.649   1.698   0.389
 3029WAT     H2 9607   3.527   1.771   0.442
 3030WAT      O 9608   4.228   1.898   0.746
 3030WAT     H1 9609   4.146   1.861   0.712
 3030WAT     H2 9610   4.278   1.823   0.776
 3031WAT      O 9611   4.678   1.565   0.869
 3031WAT     H1 9612   4.738   1.622   0.917
 3031WAT     H2 9613   4.604   1.621   0.847
 3032WAT      O 9614   4.992   1.605   0.397
 3032WAT     H1 9615   5.012   1.695   0.424
 3032WAT     H2 9616   4.914   1.582   0.446
 3033WAT      O 9617   3.672   3.173   0.441
 3033WAT     H1 9618   3.619   3.211   0.370
 3033WAT     H2 9619   3.664   3.236   0.513
 3034WAT      O 9620   3.811   1.740   0.301
 3034WAT     H1 9621   3.864   1.661   0.288
 3034WAT     H2 9622   3.874   1.808   0.324
 3035WAT      O 9623   4.030   1.713   0.606
 3035WAT     H1 9624   3.967   1.643   0.623
 3035WAT     H2 9625   3.976   1.789   0.584
 3036WAT      O 9626   4.324   3.375   1.873
 3036WAT     H1 9627   4.417   3.351   1.878
 3036WAT     H2 9628   4.323   3.458   1.825
 3037WAT      O 9629   5.148   3.329   0.573
 3037WAT     H1 9630   5.165   3.260   0.509
 3037WAT     H2 9631   5.078   3.382   0.534
 3038WAT      O 9632   4.043   1.641   1.850
 3038WAT     H1 9633   4.015   1.692   1.773
 3038WAT     H2 9634   4.081   1.561   1.813
 3039WAT      O 9635   3.932   3.368   0.328
 3039WAT     H1 9636   4.005   3.340   0.274
 3039WAT     H2 9637   3.958   3.344   0.417
 3040WAT      O 9638   3.848   2.980   0.329
 3040WAT     H1 9639   3.785   3.026   0.384
 3040WAT     H2 9640   3.859   2.895   0.372
 3041WAT      O 9641   4.703   1.583   1.907
 3041WAT     H1 9642   4.692   1.615   1.997
 3041WAT     H2 9643   4.785   1.623   1.878
 3042WAT      O 9644   4.981   3.297   1.856
 3042WAT     H1 9645   5.060   3.248   1.835
 3042WAT     H2 9646   5.010   3.365   1.916
 3043WAT      O 9647   4.593   0.507   4.576
 3043WAT     H1 9648   4.585   0.416   4.549
 3043WAT     H2 9649   4.552   0.557   4.505
 3044WAT      O 9650   4.407   0.685   4.764
 3044WAT     H1 9651   4.329   0.637   4.793
 3044WAT     H2 9652   4.472   0.617   4.747
 3045WAT      O 9653   3.808   0.716   4.852
 3045WAT     H1 9654   3.725   0.691   4.892
 3045WAT     H2 9655   3.869   0.723   4.926
 3046WAT      O 9656   4.809   1.126   4.642
 3046WAT     H1 9657   4.763   1.049   4.675
 3046WAT     H2 9658   4.890   1.128   4.693
 3047WAT      O 9659   3.806   1.120   4.872
 3047WAT     H1 9660   3.837   1.031   4.854
 3047WAT     H2 9661   3.881   1.175   4.849
 3048WAT      O 9662   3.649   0.212   4.230
 3048WAT     H1 9663   3.560   0.246   4.220
 3048WAT     H2 9664   3.678   0.192   4.141
 3049WAT      O 9665   3.446   0.472   4.819
 3049WAT     H1 9666   3.503   0.396   4.819
 3049WAT     H2 9667   3.446   0.502   4.728
 3050WAT      O 9668   4.431   1.354   4.604
 3050WAT     H1 9669   4.369   1.400   4.547
 3050WAT     H2 9670   4.517   1.370   4.564
 3051WAT      O 9671   4.351   0.953   4.765
 3051WAT     H1 9672   4.344   0.859   4.749
 3051WAT     H2 9673   4.427   0.962   4.822
 3052WAT      O 9674   3.632   0.263   4.858
 3052WAT     H1 9675   3.700   0.289   4.920
 3052WAT     H2 9676   3.600   0.179   4.892
 3053WAT      O 9677   4.051   0.367   4.767
 3053WAT     H1 9678   4.102   0.417   4.831
 3053WAT     H2 9679   4.104   0.290   4.749
 3054WAT      O 9680   5.261   0.184   5.137
 3054WAT     H1 9681   5.191   0.223   5.085
 3054WAT     H2 9682   5.288   0.254   5.197
 3055WAT      O 9683   4.518   0.843   4.344
 3055WAT     H1 9684   4.456   0.889   4.287
 3055WAT     H2 9685   4.569   0.912   4.385
 3056WAT      O 9686   4.004   0.795   5.011
 3056WAT     H1 9687   3.971   0.858   5.076
 3056WAT     H2 9688   4.022   0.848   4.933
 3057WAT      O 9689   4.856   0.177   4.758
 3057WAT     H1 9690   4.785   0.206   4.816
 3057WAT     H2 9691   4.892   0.258   4.722
 3058WAT      O 9692   3.925   0.992   5.193
 3058WAT     H1 9693   3.987   1.060   5.165
 3058WAT     H2 9694   3.839   1.033   5.184
 3059WAT      O 9695   3.455   0.911   4.081
 3059WAT     H1 9696   3.417   0.960   4.008
 3059WAT     H2 9697   3.481   0.978   4.144
 3060WAT      O 9698   5.017   1.139   4.984
 3060WAT     H1 9699   4.949   1.206   4.984
 3060WAT     H2 9700   5.071   1.158   4.908
 3061WAT      O 9701   4.771   1.323   4.856
 3061WAT     H1 9702   4.772   1.283   4.769
 3061WAT     H2 9703   4.716   1.400   4.845
 3062WAT      O 9704   4.900   0.995   4.365
 3062WAT     H1 9705   4.889   0.901   4.377
 3062WAT     H2 9706   4.900   1.031   4.453
 3063WAT      O 9707   4.711   0.813   4.989
 3063WAT     H1 9708   4.752   0.792   4.905
 3063WAT     H2 9709   4.783   0.839   5.046
 3064WAT      O 9710   4.455   0.558   4.300
 3064WAT     H1 9711   4.362   0.551   4.323
 3064WAT     H2 9712   4.470   0.652   4.289
 3065WAT      O 9713   4.453   0.185   4.000
 3065WAT     H1 9714   4.359   0.201   4.009
 3065WAT     H2 9715   4.485   0.257   3.945
 3066WAT      O 9716   5.105   0.653   4.998
 3066WAT     H1 9717   5.023   0.660   4.950
 3066WAT     H2 9718   5.165   0.712   4.951
 3067WAT      O 9719   4.857   0.714   4.351
 3067WAT     H1 9720   4.796   0.680   4.286
 3067WAT     H2 9721   4.856   0.650   4.422
 3068WAT      O 9722   4.802   0.332   5.092
 3068WAT     H1 9723   4.760   0.414   5.118
 3068WAT     H2 9724   4.729   0.273   5.073
 3069WAT      O 9725   4.015   0.610   4.579
 3069WAT     H1 9726   3.975   0.539   4.529
 3069WAT     H2 9727   4.024   0.576   4.667
 3070WAT      O 9728   4.062   0.979   4.795
 3070WAT     H1 9729   4.032   0.919   4.727
 3070WAT     H2 9730   4.157   0.983   4.784
 3071WAT      O 9731   3.886   0.288   4.957
 3071WAT     H1 9732   3.942   0.299   4.879
 3071WAT     H2 9733   3.938   0.325   5.028
 3072WAT      O 9734   4.871   1.336   5.161
 3072WAT     H1 9735   4.823   1.417   5.142
 3072WAT     H2 9736   4.802   1.271   5.176
 3073WAT      O 9737   3.971   0.953   5.460
 3073WAT     H1 9738   3.881   0.975   5.485
 3073WAT     H2 9739   3.974   0.965   5.365
 3074WAT      O 9740   4.675   0.638   4.051
 3074WAT     H1 9741   4.719   0.554   4.037
 3074WAT     H2 9742   4.746   0.701   4.060
 3075WAT      O 9743   3.854   0.640   5.318
 3075WAT     H1 9744   3.840   0.727   5.354
 3075WAT     H2 9745   3.766   0.606   5.303
 3076WAT      O 9746   4.486   1.132   4.448
 3076WAT     H1 9747   4.530   1.206   4.407
 3076WAT     H2 9748   4.480   1.156   4.541
 3077WAT      O 9749   4.034   1.234   5.538
 3077WAT     H1 9750   4.031   1.275   5.452
 3077WAT     H2 9751   4.017   1.141   5.522
 3078WAT      O 9752   3.685   0.500   4.329
 3078WAT     H1 9753   3.673   0.573   4.267
 3078WAT     H2 9754   3.654   0.423   4.281
 3079WAT      O 9755   3.449   0.817   4.909
 3079WAT     H1 9756   3.457   0.831   4.815
 3079WAT     H2 9757   3.510   0.746   4.929
 3080WAT      O 9758   3.573   0.987   4.550
 3080WAT     H1 9759   3.533   1.001   4.465
 3080WAT     H2 9760   3.663   0.959   4.530
 3081WAT      O 9761   5.169   1.032   5.384
 3081WAT     H1 9762   5.182   1.008   5.292
 3081WAT     H2 9763   5.173   0.949   5.431
 3082WAT      O 9764   4.555   1.402   5.241
 3082WAT     H1 9765   4.607   1.393   5.321
 3082WAT     H2 9766   4.471   1.437   5.270
 3083WAT      O 9767   4.753   1.431   4.184
 3083WAT     H1 9768   4.737   1.402   4.274
 3083WAT     H2 9769   4.736   1.353   4.130
 3084WAT      O 9770   4.001   1.409   4.362
 3084WAT     H1 9771   3.983   1.317   4.340
 3084WAT     H2 9772   3.915   1.444   4.386
 3085WAT      O 9773   4.723   1.181   4.040
 3085WAT     H1 9774   4.654   1.181   3.974
 3085WAT     H2 9775   4.797   1.139   3.997
 3086WAT      O 9776   4.680   1.344   4.447
 3086WAT     H1 9777   4.725   1.266   4.479
 3086WAT     H2 9778   4.713   1.415   4.502
 3087WAT      O 9779   3.455   0.921   5.163
 3087WAT     H1 9780   3.471   0.874   5.081
 3087WAT     H2 9781   3.501   0.870   5.230
 3088WAT      O 9782   4.861   0.243   5.340
 3088WAT     H1 9783   4.775   0.213   5.372
 3088WAT     H2 9784   4.845   0.267   5.249
 3089WAT      O 9785   4.570   0.393   5.550
 3089WAT     H1 9786   4.603   0.310   5.516
 3089WAT     H2 9787   4.649   0.445   5.565
 3090WAT      O 9788   3.911   0.347   4.440
 3090WAT     H1 9789   3.888   0.325   4.530
 3090WAT     H2 9790   3.833   0.390   4.405
 3091WAT      O 9791   4.634   0.347   4.300
 3091WAT     H1 9792   4.574   0.420   4.281
 3091WAT     H2 9793   4.689   0.341   4.221
 3092WAT      O 9794   4.155   0.436   5.506
 3092WAT     H1 9795   4.145   0.342   5.491
 3092WAT     H2 9796   4.239   0.459   5.467
 3093WAT      O 9797   3.417   0.264   3.846
 3093WAT     H1 9798   3.409   0.358   3.860
 3093WAT     H2 9799   3.382   0.250   3.758
 3094WAT      O 9800   4.553   0.470   4.912
 3094WAT     H1 9801   4.480   0.521   4.947
 3094WAT     H2 9802   4.513   0.388   4.882
 3095WAT      O 9803   4.203   0.238   4.052
 3095WAT     H1 9804   4.215   0.233   4.147
 3095WAT     H2 9805   4.165   0.324   4.036
 3096WAT      O 9806   4.104   0.469   3.992
 3096WAT     H1 9807   4.047   0.424   3.929
 3096WAT     H2 9808   4.175   0.505   3.938
 3097WAT      O 9809   3.612   0.859   5.379
 3097WAT     H1 9810   3.574   0.795   5.439
 3097WAT     H2 9811   3.643   0.929   5.436
 3098WAT      O 9812   4.227   0.544   4.927
 3098WAT     H1 9813   4.264   0.496   5.002
 3098WAT     H2 9814   4.208   0.631   4.961
 3099WAT      O 9815   4.006   0.448   5.159
 3099WAT     H1 9816   3.976   0.536   5.182
 3099WAT     H2 9817   4.101   0.454   5.163
 3100WAT      O 9818   3.859   0.868   4.219
 3100WAT     H1 9819   3.781   0.814   4.203
 3100WAT     H2 9820   3.932   0.816   4.185
 3101WAT      O 9821   4.935   0.768   4.798
 3101WAT     H1 9822   5.007   0.817   4.759
 3101WAT     H2 9823   4.914   0.700   4.734
 3102WAT      O 9824   4.473   0.775   5.387
 3102WAT     H1 9825   4.466   0.683   5.361
 3102WAT     H2 9826   4.410   0.785   5.458
 3103WAT      O 9827   4.752   0.344   4.042
 3103WAT     H1 9828   4.841   0.376   4.025
 3103WAT     H2 9829   4.749   0.257   4.003
 3104WAT      O 9830   3.863   0.835   4.583
 3104WAT     H1 9831   3.915   0.755   4.577
 3104WAT     H2 9832   3.818   0.829   4.667
 3105WAT      O 9833   4.352   0.962   4.110
 3105WAT     H1 9834   4.386   1.036   4.060
 3105WAT     H2 9835   4.269   0.993   4.146
 3106WAT      O 9836   3.612   0.532   5.274
 3106WAT     H1 9837   3.576   0.598   5.333
 3106WAT     H2 9838   3.582   0.448   5.311
 3107WAT      O 9839   3.932   0.577   5.562
 3107WAT     H1 9840   3.902   0.592   5.473
 3107WAT     H2 9841   4.009   0.522   5.553
 3108WAT      O 9842   4.466   1.057   5.362
 3108WAT     H1 9843   4.467   0.964   5.340
 3108WAT     H2 9844   4.395   1.066   5.426
 3109WAT      O 9845   4.979   0.476   3.989
 3109WAT     H1 9846   4.971   0.519   3.904
 3109WAT     H2 9847   5.051   0.522   4.032
 3110WAT      O 9848   5.087   0.721   5.297
 3110WAT     H1 9849   5.015   0.781   5.277
 3110WAT     H2 9850   5.140   0.720   5.217
 3111WAT      O 9851   5.082   1.161   4.262
 3111WAT     H1 9852   5.018   1.096   4.289
 3111WAT     H2 9853   5.044   1.202   4.184
 3112WAT      O 9854   4.640   0.894   4.646
 3112WAT     H1 9855   4.675   0.834   4.580
 3112WAT     H2 9856   4.552   0.861   4.663
 3113WAT      O 9857   4.249   0.970   4.387
 3113WAT     H1 9858   4.317   1.024   4.425
 3113WAT     H2 9859   4.170   1.024   4.391
 3114WAT      O 9860   3.463   0.532   3.936
 3114WAT     H1 9861   3.550   0.560   3.965
 3114WAT     H2 9862   3.414   0.613   3.925
 3115WAT      O 9863   4.179   0.670   4.348
 3115WAT     H1 9864   4.225   0.751   4.371
 3115WAT     H2 9865   4.144   0.638   4.431
 3116WAT      O 9866   4.409   1.221   5.071
 3116WAT     H1 9867   4.474   1.242   5.139
 3116WAT     H2 9868   4.446   1.145   5.026
 3117WAT      O 9869   4.537   1.022   4.943
 3117WAT     H1 9870   4.601   0.952   4.954
 3117WAT     H2 9871   4.589   1.100   4.925
 3118WAT      O 9872   4.921   1.050   3.915
 3118WAT     H1 9873   4.899   0.978   3.975
 3118WAT     H2 9874   4.882   1.025   3.832
 3119WAT      O 9875   4.714   1.102   5.263
 3119WAT     H1 9876   4.748   1.160   5.331
 3119WAT     H2 9877   4.622   1.089   5.286
 3120WAT      O 9878   3.499   1.453   3.993
 3120WAT     H1 9879   3.535   1.513   3.927
 3120WAT     H2 9880   3.485   1.507   4.070
 3121WAT      O 9881   4.879   0.842   4.082
 3121WAT     H1 9882   4.851   0.888   4.160
 3121WAT     H2 9883   4.959   0.796   4.108
 3122WAT      O 9884   3.498   1.279   5.440
 3122WAT     H1 9885   3.509   1.185   5.426
 3122WAT     H2 9886   3.433   1.306   5.375
 3123WAT      O 9887   4.101   1.191   4.075
 3123WAT     H1 9888   4.100   1.264   4.013
 3123WAT     H2 9889   4.009   1.166   4.084
 3124WAT      O 9890   3.661   0.713   4.149
 3124WAT     H1 9891   3.600   0.787   4.150
 3124WAT     H2 9892   3.709   0.722   4.066
 3125WAT      O 9893   4.400   1.197   3.941
 3125WAT     H1 9894   4.410   1.177   3.848
 3125WAT     H2 9895   4.310   1.172   3.961
 3126WAT      O 9896   4.152   0.253   4.339
 3126WAT     H1 9897   4.081   0.300   4.383
 3126WAT     H2 9898   4.180   0.187   4.403
 3127WAT      O 9899   4.314   0.395   5.139
 3127WAT     H1 9900   4.364   0.443   5.206
 3127WAT     H2 9901   4.329   0.303   5.160
 3128WAT      O 9902   4.264   1.449   4.410
 3128WAT     H1 9903   4.289   1.445   4.318
 3128WAT     H2 9904   4.169   1.437   4.410
 3129WAT      O 9905   4.864   0.541   4.568
 3129WAT     H1 9906   4.770   0.543   4.585
 3129WAT     H2 9907   4.896   0.463   4.612
 3130WAT      O 9908   3.862   0.709   3.924
 3130WAT     H1 9909   3.939   0.698   3.980
 3130WAT     H2 9910   3.870   0.640   3.859
 3131WAT      O 9911   3.732   0.453   3.992
 3131WAT     H1 9912   3.740   0.358   4.003
 3131WAT     H2 9913   3.821   0.486   4.003
 3132WAT      O 9914   5.065   1.258   4.735
 3132WAT     H1 9915   5.077   1.341   4.783
 3132WAT     H2 9916   5.151   1.237   4.701
 3133WAT      O 9917   3.812   1.468   4.703
 3133WAT     H1 9918   3.885   1.413   4.730
 3133WAT     H2 9919   3.850   1.554   4.689
 3134WAT      O 9920   3.500   1.074   4.290
 3134WAT     H1 9921   3.408   1.099   4.289
 3134WAT     H2 9922   3.547   1.157   4.278
 3135WAT      O 9923   4.123   1.385   3.885
 3135WAT     H1 9924   4.202   1.414   3.840
 3135WAT     H2 9925   4.071   1.342   3.817
 3136WAT      O 9926   4.739   1.370   5.477
 3136WAT     H1 9927   4.834   1.361   5.472
 3136WAT     H2 9928   4.724   1.436   5.545
 3137WAT      O 9929   5.028   1.308   4.027
 3137WAT     H1 9930   5.000   1.266   3.946
 3137WAT     H2 9931   5.008   1.400   4.015
 3138WAT      O 9932   4.175   0.907   3.871
 3138WAT     H1 9933   4.164   0.845   3.944
 3138WAT     H2 9934   4.158   0.855   3.793
 3139WAT      O 9935   4.190   0.775   5.469
 3139WAT     H1 9936   4.113   0.832   5.461
 3139WAT     H2 9937   4.208   0.746   5.380
 3140WAT      O 9938   4.499   0.813   3.932
 3140WAT     H1 9939   4.444   0.858   3.996
 3140WAT     H2 9940   4.561   0.763   3.984
 3141WAT      O 9941   4.904   0.949   5.525
 3141WAT     H1 9942   4.978   0.982   5.475
 3141WAT     H2 9943   4.828   0.965   5.470
 3142WAT      O 9944   4.065   0.709   4.121
 3142WAT     H1 9945   4.108   0.692   4.206
 3142WAT     H2 9946   4.078   0.628   4.072
 3143WAT      O 9947   3.882   0.307   5.402
 3143WAT     H1 9948   3.829   0.258   5.339
 3143WAT     H2 9949   3.949   0.350   5.349
 3144WAT      O 9950   4.317   0.611   3.846
 3144WAT     H1 9951   4.369   0.540   3.810
 3144WAT     H2 9952   4.381   0.675   3.876
 3145WAT      O 9953   4.771   0.754   5.378
 3145WAT     H1 9954   4.813   0.769   5.463
 3145WAT     H2 9955   4.678   0.766   5.395
 3146WAT      O 9956   4.248   0.749   5.175
 3146WAT     H1 9957   4.289   0.833   5.158
 3146WAT     H2 9958   4.156   0.763   5.153
 3147WAT      O 9959   4.481   0.522   5.314
 3147WAT     H1 9960   4.493   0.462   5.388
 3147WAT     H2 9961   4.567   0.526   5.272
 3148WAT      O 9962   4.715   0.577   5.171
 3148WAT     H1 9963   4.662   0.630   5.111
 3148WAT     H2 9964   4.749   0.641   5.235
 3149WAT      O 9965   3.955   0.316   3.816
 3149WAT     H1 9966   3.935   0.230   3.852
 3149WAT     H2 9967   3.938   0.308   3.722
 3150WAT      O 9968   4.033   1.379   5.287
 3150WAT     H1 9969   3.979   1.452   5.255
 3150WAT     H2 9970   4.058   1.332   5.208
 3151WAT      O 9971   4.318   1.503   5.313
 3151WAT     H1 9972   4.311   1.593   5.344
 3151WAT     H2 9973   4.228   1.471   5.310
 3152WAT      O 9974   4.373   1.420   4.075
 3152WAT     H1 9975   4.463   1.453   4.077
 3152WAT     H2 9976   4.376   1.347   4.012
 3153WAT      O 9977   3.737   0.957   3.898
 3153WAT     H1 9978   3.781   1.011   3.964
 3153WAT     H2 9979   3.786   0.874   3.899
 3154WAT      O 9980   3.459   1.236   4.643
 3154WAT     H1 9981   3.492   1.149   4.620
 3154WAT     H2 9982   3.501   1.256   4.726
 3155WAT      O 9983   3.918   1.069   4.409
 3155WAT     H1 9984   3.888   1.056   4.499
 3155WAT     H2 9985   3.908   0.983   4.368
 3156WAT      O 9986   3.507   1.322   4.917
 3156WAT     H1 9987   3.464   1.340   5.000
 3156WAT     H2 9988   3.564   1.398   4.903
 3157WAT      O 9989   5.071   1.273   5.346
 3157WAT     H1 9990   5.011   1.278   5.271
 3157WAT     H2 9991   5.084   1.179   5.359
 3158WAT      O 9992   5.195   1.047   3.880
 3158WAT     H1 9993   5.112   1.054   3.927
 3158WAT     H2 9994   5.213   1.136   3.849
 3159WAT      O 9995   5.141   0.721   4.130
 3159WAT     H1 9996   5.217   0.778   4.140
 3159WAT     H2 9997   5.142   0.664   4.207
 3160WAT      O 9998   3.491   0.574   4.553
 3160WAT     H1 9999   3.425   0.547   4.489
 3160WAT     H210000   3.574   0.563   4.508
 3161WAT      O10001   5.241   0.807   4.614
 3161WAT     H110002   5.278   0.728   4.574
 3161WAT     H210003   5.305   0.876   4.596
 3162WAT      O10004   4.940   0.945   5.156
 3162WAT     H110005   4.858   0.988   5.182
 3162WAT     H210006   4.980   1.006   5.094
 3163WAT      O10007   5.146   0.751   3.846
 3163WAT     H110008   5.173   0.841   3.833
 3163WAT     H210009   5.127   0.744   3.939
 3164WAT      O10010   5.135   0.544   4.345
 3164WAT     H110011   5.098   0.468   4.302
 3164WAT     H210012   5.063   0.582   4.394
 3165WAT      O10013   3.594   0.612   5.007
 3165WAT     H110014   3.631   0.603   5.095
 3165WAT     H210015   3.538   0.536   4.997
 3166WAT      O10016   5.074   0.459   5.308
 3166WAT     H110017   5.051   0.436   5.218
 3166WAT     H210018   5.101   0.551   5.304
 3167WAT      O10019   3.550   0.303   5.398
 3167WAT     H110020   3.460   0.300   5.431
 3167WAT     H210021   3.604   0.323   5.474
 3168WAT      O10022   3.412   0.295   4.147
 3168WAT     H110023   3.322   0.321   4.130
 3168WAT     H210024   3.460   0.322   4.069
 3169WAT      O10025   5.063   0.367   4.675
 3169WAT     H110026   5.115   0.317   4.612
 3169WAT     H210027   5.122   0.380   4.749
 3170WAT      O10028   5.081   0.375   5.027
 3170WAT     H110029   4.986   0.372   5.039
 3170WAT     H210030   5.099   0.466   5.004
 3171WAT      O10031   3.666   0.200   3.938
 3171WAT     H110032   3.737   0.158   3.890
 3171WAT     H210033   3.595   0.207   3.875
 3172WAT      O10034   5.012   0.293   4.269
 3172WAT     H110035   5.062   0.269   4.347
 3172WAT     H210036   4.992   0.209   4.227
 3173WAT      O10037   4.945   1.420   4.508
 3173WAT     H110038   5.005   1.388   4.441
 3173WAT     H210039   4.971   1.373   4.587
 3174WAT      O10040   4.106   1.219   5.083
 3174WAT     H110041   4.082   1.246   4.995
 3174WAT     H210042   4.200   1.236   5.089
 3175WAT      O10043   5.232   1.421   5.163
 3175WAT     H110044   5.183   1.461   5.092
 3175WAT     H210045   5.171   1.358   5.203
 3176WAT      O10046   3.720   1.358   5.235
 3176WAT     H110047   3.660   1.345   5.309
 3176WAT     H210048   3.719   1.274   5.189
 3177WAT      O10049   5.000   1.485   4.891
 3177WAT     H110050   4.954   1.560   4.854
 3177WAT     H210051   4.938   1.413   4.885
 3178WAT      O10052   3.683   1.095   5.130
 3178WAT     H110053   3.610   1.033   5.123
 3178WAT     H210054   3.689   1.134   5.043
 3179WAT      O10055   4.043   1.316   4.809
 3179WAT     H110056   4.095   1.255   4.756
 3179WAT     H210057   4.108   1.366   4.858
 3180WAT      O10058   4.317   1.405   4.891
 3180WAT     H110059   4.346   1.380   4.804
 3180WAT     H210060   4.369   1.350   4.950
 3181WAT      O10061   3.511   1.426   4.451
 3181WAT     H110062   3.494   1.363   4.521
 3181WAT     H210063   3.425   1.447   4.416
 3182WAT      O10064   3.672   1.296   4.196
 3182WAT     H110065   3.619   1.334   4.125
 3182WAT     H210066   3.664   1.358   4.268
 3183WAT      O10067   5.148   1.452   4.328
 3183WAT     H110068   5.165   1.383   4.263
 3183WAT     H210069   5.078   1.504   4.289
 3184WAT      O10070   3.932   1.491   4.083
 3184WAT     H110071   4.005   1.462   4.028
 3184WAT     H210072   3.958   1.467   4.172
 3185WAT      O10073   3.848   1.102   4.084
 3185WAT     H110074   3.785   1.149   4.138
 3185WAT     H210075   3.859   1.018   4.127
 3186WAT      O10076   4.593   0.507   2.699
 3186WAT     H110077   4.585   0.416   2.672
 3186WAT     H210078   4.552   0.557   2.628
 3187WAT      O10079   4.407   0.685   2.887
 3187WAT     H110080   4.329   0.637   2.916
 3187WAT     H210081   4.472   0.617   2.869
 3188WAT      O10082   3.808   0.716   2.974
 3188WAT     H110083   3.725   0.691   3.014
 3188WAT     H210084   3.869   0.723   3.048
 3189WAT      O10085   4.809   1.126   2.765
 3189WAT     H110086   4.763   1.049   2.798
 3189WAT     H210087   4.890   1.128   2.815
 3190WAT      O10088   3.806   1.120   2.994
 3190WAT     H110089   3.837   1.031   2.976
 3190WAT     H210090   3.881   1.175   2.971
 3191WAT      O10091   3.649   0.212   2.353
 3191WAT     H110092   3.560   0.246   2.343
 3191WAT     H210093   3.678   0.192   2.264
 3192WAT      O10094   3.446   0.472   2.941
 3192WAT     H110095   3.503   0.396   2.941
 3192WAT     H210096   3.446   0.502   2.850
 3193WAT      O10097   4.431   1.354   2.727
 3193WAT     H110098   4.369   1.400   2.670
 3193WAT     H210099   4.517   1.370   2.687
 3194WAT      O10100   4.351   0.953   2.887
 3194WAT     H110101   4.344   0.859   2.871
 3194WAT     H210102   4.427   0.962   2.945
 3195WAT      O10103   3.632   0.263   2.981
 3195WAT     H110104   3.700   0.289   3.043
 3195WAT     H210105   3.600   0.179   3.014
 3196WAT      O10106   4.051   0.367   2.890
 3196WAT     H110107   4.102   0.417   2.954
 3196WAT     H210108   4.104   0.290   2.872
 3197WAT      O10109   5.261   0.184   3.260
 3197WAT     H110110   5.191   0.223   3.208
 3197WAT     H210111   5.288   0.254   3.320
 3198WAT      O10112   4.518   0.843   2.466
 3198WAT     H110113   4.456   0.889   2.410
 3198WAT     H210114   4.569   0.912   2.508
 3199WAT      O10115   4.004   0.795   3.134
 3199WAT     H110116   3.971   0.858   3.198
 3199WAT     H210117   4.022   0.848   3.056
 3200WAT      O10118   4.856   0.177   2.881
 3200WAT     H110119   4.785   0.206   2.939
 3200WAT     H210120   4.892   0.258   2.845
 3201WAT      O10121   3.925   0.992   3.315
 3201WAT     H110122   3.987   1.060   3.287
 3201WAT     H210123   3.839   1.033   3.306
 3202WAT      O10124   3.455   0.911   2.203
 3202WAT     H110125   3.417   0.960   2.130
 3202WAT     H210126   3.481   0.978   2.267
 3203WAT      O10127   5.017   1.139   3.107
 3203WAT     H110128   4.949   1.206   3.106
 3203WAT     H210129   5.071   1.158   3.030
 3204WAT      O10130   4.771   1.323   2.978
 3204WAT     H110131   4.772   1.283   2.892
 3204WAT     H210132   4.716   1.400   2.968
 3205WAT      O10133   4.900   0.995   2.487
 3205WAT     H110134   4.889   0.901   2.500
 3205WAT     H210135   4.900   1.031   2.576
 3206WAT      O10136   4.711   0.813   3.111
 3206WAT     H110137   4.752   0.792   3.028
 3206WAT     H210138   4.783   0.839   3.168
 3207WAT      O10139   4.455   0.558   2.423
 3207WAT     H110140   4.362   0.551   2.446
 3207WAT     H210141   4.470   0.652   2.411
 3208WAT      O10142   4.453   0.185   2.123
 3208WAT     H110143   4.359   0.201   2.131
 3208WAT     H210144   4.485   0.257   2.068
 3209WAT      O10145   5.105   0.653   3.120
 3209WAT     H110146   5.023   0.660   3.073
 3209WAT     H210147   5.165   0.712   3.074
 3210WAT      O10148   4.857   0.714   2.473
 3210WAT     H110149   4.796   0.680   2.409
 3210WAT     H210150   4.856   0.650   2.544
 3211WAT      O10151   4.802   0.332   3.215
 3211WAT     H110152   4.760   0.414   3.240
 3211WAT     H210153   4.729   0.273   3.196
 3212WAT      O10154   4.015   0.610   2.701
 3212WAT     H110155   3.975   0.539   2.652
 3212WAT     H210156   4.024   0.576   2.790
 3213WAT      O10157   4.062   0.979   2.918
 3213WAT     H110158   4.032   0.919   2.850
 3213WAT     H210159   4.157   0.983   2.906
 3214WAT      O10160   3.886   0.288   3.079
 3214WAT     H110161   3.942   0.299   3.002
 3214WAT     H210162   3.938   0.325   3.151
 3215WAT      O10163   4.871   1.336   3.284
 3215WAT     H110164   4.823   1.417   3.264
 3215WAT     H210165   4.802   1.271   3.299
 3216WAT      O10166   3.971   0.953   3.583
 3216WAT     H110167   3.881   0.975   3.607
 3216WAT     H210168   3.974   0.965   3.488
 3217WAT      O10169   4.675   0.638   2.174
 3217WAT     H110170   4.719   0.554   2.159
 3217WAT     H210171   4.746   0.701   2.183
 3218WAT      O10172   3.854   0.640   3.440
 3218WAT     H110173   3.840   0.727   3.477
 3218WAT     H210174   3.766   0.606   3.426
 3219WAT      O10175   4.486   1.132   2.571
 3219WAT     H110176   4.530   1.206   2.529
 3219WAT     H210177   4.480   1.156   2.663
 3220WAT      O10178   4.034   1.234   3.661
 3220WAT     H110179   4.031   1.275   3.574
 3220WAT     H210180   4.017   1.141   3.645
 3221WAT      O10181   3.685   0.500   2.451
 3221WAT     H110182   3.673   0.573   2.390
 3221WAT     H210183   3.654   0.423   2.403
 3222WAT      O10184   5.229   1.313   3.791
 3222WAT     H110185   5.276   1.360   3.859
 3222WAT     H210186   5.291   1.306   3.718
 3223WAT      O10187   3.449   0.817   3.032
 3223WAT     H110188   3.457   0.831   2.937
 3223WAT     H210189   3.510   0.746   3.051
 3224WAT      O10190   3.573   0.987   2.673
 3224WAT     H110191   3.533   1.001   2.587
 3224WAT     H210192   3.663   0.959   2.653
 3225WAT      O10193   5.169   1.032   3.507
 3225WAT     H110194   5.182   1.008   3.415
 3225WAT     H210195   5.173   0.949   3.554
 3226WAT      O10196   4.555   1.402   3.364
 3226WAT     H110197   4.607   1.393   3.444
 3226WAT     H210198   4.471   1.437   3.393
 3227WAT      O10199   4.753   1.431   2.306
 3227WAT     H110200   4.737   1.402   2.396
 3227WAT     H210201   4.736   1.353   2.253
 3228WAT      O10202   4.001   1.409   2.484
 3228WAT     H110203   3.983   1.317   2.463
 3228WAT     H210204   3.915   1.444   2.508
 3229WAT      O10205   4.723   1.181   2.162
 3229WAT     H110206   4.654   1.181   2.096
 3229WAT     H210207   4.797   1.139   2.119
 3230WAT      O10208   4.680   1.344   2.570
 3230WAT     H110209   4.725   1.266   2.601
 3230WAT     H210210   4.713   1.415   2.624
 3231WAT      O10211   3.455   0.921   3.286
 3231WAT     H110212   3.471   0.874   3.204
 3231WAT     H210213   3.501   0.870   3.352
 3232WAT      O10214   4.861   0.243   3.463
 3232WAT     H110215   4.775   0.213   3.495
 3232WAT     H210216   4.845   0.267   3.372
 3233WAT      O10217   4.570   0.393   3.673
 3233WAT     H110218   4.603   0.310   3.639
 3233WAT     H210219   4.649   0.445   3.688
 3234WAT      O10220   3.911   0.347   2.562
 3234WAT     H110221   3.888   0.325   2.653
 3234WAT     H210222   3.833   0.390   2.528
 3235WAT      O10223   4.634   0.347   2.422
 3235WAT     H110224   4.574   0.420   2.404
 3235WAT     H210225   4.689   0.341   2.344
 3236WAT      O10226   4.155   0.436   3.629
 3236WAT     H110227   4.145   0.342   3.614
 3236WAT     H210228   4.239   0.459   3.589
 3237WAT      O10229   3.417   0.264   1.969
 3237WAT     H110230   3.409   0.358   1.983
 3237WAT     H210231   3.382   0.250   1.881
 3238WAT      O10232   4.553   0.470   3.035
 3238WAT     H110233   4.480   0.521   3.070
 3238WAT     H210234   4.513   0.388   3.005
 3239WAT      O10235   4.203   0.238   2.174
 3239WAT     H110236   4.215   0.233   2.269
 3239WAT     H210237   4.165   0.324   2.159
 3240WAT      O10238   4.104   0.469   2.114
 3240WAT     H110239   4.047   0.424   2.051
 3240WAT     H210240   4.175   0.505   2.061
 3241WAT      O10241   3.612   0.859   3.502
 3241WAT     H110242   3.574   0.795   3.562
 3241WAT     H210243   3.643   0.929   3.559
 3242WAT      O10244   4.227   0.544   3.050
 3242WAT     H110245   4.264   0.496   3.124
 3242WAT     H210246   4.208   0.631   3.084
 3243WAT      O10247   4.006   0.448   3.282
 3243WAT     H110248   3.976   0.536   3.304
 3243WAT     H210249   4.101   0.454   3.285
 3244WAT      O10250   3.859   0.868   2.341
 3244WAT     H110251   3.781   0.814   2.325
 3244WAT     H210252   3.932   0.816   2.308
 3245WAT      O10253   4.935   0.768   2.921
 3245WAT     H110254   5.007   0.817   2.882
 3245WAT     H210255   4.914   0.700   2.856
 3246WAT      O10256   4.473   0.775   3.509
 3246WAT     H110257   4.466   0.683   3.484
 3246WAT     H210258   4.410   0.785   3.581
 3247WAT      O10259   4.752   0.344   2.165
 3247WAT     H110260   4.841   0.376   2.147
 3247WAT     H210261   4.749   0.257   2.125
 3248WAT      O10262   3.863   0.835   2.705
 3248WAT     H110263   3.915   0.755   2.700
 3248WAT     H210264   3.818   0.829   2.789
 3249WAT      O10265   4.352   0.962   2.232
 3249WAT     H110266   4.386   1.036   2.183
 3249WAT     H210267   4.269   0.993   2.269
 3250WAT      O10268   3.612   0.532   3.396
 3250WAT     H110269   3.576   0.598   3.455
 3250WAT     H210270   3.582   0.448   3.434
 3251WAT      O10271   3.932   0.577   3.685
 3251WAT     H110272   3.902   0.592   3.595
 3251WAT     H210273   4.009   0.522   3.676
 3252WAT      O10274   4.466   1.057   3.484
 3252WAT     H110275   4.467   0.964   3.463
 3252WAT     H210276   4.395   1.066   3.548
 3253WAT      O10277   4.979   0.476   2.111
 3253WAT     H110278   4.971   0.519   2.026
 3253WAT     H210279   5.051   0.522   2.155
 3254WAT      O10280   5.087   0.721   3.419
 3254WAT     H110281   5.015   0.781   3.399
 3254WAT     H210282   5.140   0.720   3.339
 3255WAT      O10283   5.082   1.161   2.384
 3255WAT     H110284   5.018   1.096   2.412
 3255WAT     H210285   5.044   1.202   2.307
 3256WAT      O10286   4.640   0.894   2.769
 3256WAT     H110287   4.675   0.834   2.703
 3256WAT     H210288   4.552   0.861   2.786
 3257WAT      O10289   4.249   0.970   2.510
 3257WAT     H110290   4.317   1.024   2.548
 3257WAT     H210291   4.170   1.024   2.513
 3258WAT      O10292   3.463   0.532   2.059
 3258WAT     H110293   3.550   0.560   2.087
 3258WAT     H210294   3.414   0.613   2.047
 3259WAT      O10295   4.179   0.670   2.471
 3259WAT     H110296   4.225   0.751   2.493
 3259WAT     H210297   4.144   0.638   2.554
 3260WAT      O10298   4.409   1.221   3.194
 3260WAT     H110299   4.474   1.242   3.262
 3260WAT     H210300   4.446   1.145   3.148
 3261WAT      O10301   4.537   1.022   3.066
 3261WAT     H110302   4.601   0.952   3.077
 3261WAT     H210303   4.589   1.100   3.048
 3262WAT      O10304   4.921   1.050   2.038
 3262WAT     H110305   4.899   0.978   2.097
 3262WAT     H210306   4.882   1.025   1.954
 3263WAT      O10307   4.714   1.102   3.386
 3263WAT     H110308   4.748   1.160   3.454
 3263WAT     H210309   4.622   1.089   3.409
 3264WAT      O10310   3.499   1.453   2.115
 3264WAT     H110311   3.535   1.513   2.050
 3264WAT     H210312   3.485   1.507   2.193
 3265WAT      O10313   4.879   0.842   2.204
 3265WAT     H110314   4.851   0.888   2.283
 3265WAT     H210315   4.959   0.796   2.231
 3266WAT      O10316   3.498   1.279   3.563
 3266WAT     H110317   3.509   1.185   3.549
 3266WAT     H210318   3.433   1.306   3.498
 3267WAT      O10319   4.297   1.107   3.703
 3267WAT     H110320   4.265   1.035   3.757
 3267WAT     H210321   4.229   1.174   3.710
 3268WAT      O10322   4.101   1.191   2.197
 3268WAT     H110323   4.100   1.264   2.136
 3268WAT     H210324   4.009   1.166   2.206
 3269WAT      O10325   3.661   0.713   2.272
 3269WAT     H110326   3.600   0.787   2.273
 3269WAT     H210327   3.709   0.722   2.189
 3270WAT      O10328   4.400   1.197   2.063
 3270WAT     H110329   4.410   1.177   1.970
 3270WAT     H210330   4.310   1.172   2.084
 3271WAT      O10331   4.152   0.253   2.462
 3271WAT     H110332   4.081   0.300   2.506
 3271WAT     H210333   4.180   0.187   2.525
 3272WAT      O10334   4.314   0.395   3.262
 3272WAT     H110335   4.364   0.443   3.328
 3272WAT     H210336   4.329   0.303   3.282
 3273WAT      O10337   4.264   1.449   2.533
 3273WAT     H110338   4.289   1.445   2.441
 3273WAT     H210339   4.169   1.437   2.532
 3274WAT      O10340   4.864   0.541   2.690
 3274WAT     H110341   4.770   0.543   2.708
 3274WAT     H210342   4.896   0.463   2.735
 3275WAT      O10343   3.862   0.709   2.046
 3275WAT     H110344   3.939   0.698   2.103
 3275WAT     H210345   3.870   0.640   1.981
 3276WAT      O10346   3.732   0.453   2.115
 3276WAT     H110347   3.740   0.358   2.126
 3276WAT     H210348   3.821   0.486   2.125
 3277WAT      O10349   5.065   1.258   2.858
 3277WAT     H110350   5.077   1.341   2.905
 3277WAT     H210351   5.151   1.237   2.823
 3278WAT      O10352   3.812   1.468   2.825
 3278WAT     H110353   3.885   1.413   2.852
 3278WAT     H210354   3.850   1.554   2.811
 3279WAT      O10355   3.500   1.074   2.413
 3279WAT     H110356   3.408   1.099   2.412
 3279WAT     H210357   3.547   1.157   2.400
 3280WAT      O10358   3.712   1.386   3.744
 3280WAT     H110359   3.792   1.418   3.785
 3280WAT     H210360   3.661   1.350   3.816
 3281WAT      O10361   4.123   1.385   2.007
 3281WAT     H110362   4.202   1.414   1.962
 3281WAT     H210363   4.071   1.342   1.940
 3282WAT      O10364   4.596   0.997   3.739
 3282WAT     H110365   4.535   0.999   3.665
 3282WAT     H210366   4.566   0.924   3.792
 3283WAT      O10367   4.739   1.370   3.600
 3283WAT     H110368   4.834   1.361   3.595
 3283WAT     H210369   4.724   1.436   3.667
 3284WAT      O10370   5.028   1.308   2.150
 3284WAT     H110371   5.000   1.266   2.068
 3284WAT     H210372   5.008   1.400   2.138
 3285WAT      O10373   3.484   0.635   3.638
 3285WAT     H110374   3.535   0.577   3.696
 3285WAT     H210375   3.410   0.663   3.692
 3286WAT      O10376   4.175   0.907   1.994
 3286WAT     H110377   4.164   0.845   2.066
 3286WAT     H210378   4.158   0.855   1.915
 3287WAT      O10379   4.190   0.775   3.592
 3287WAT     H110380   4.113   0.832   3.583
 3287WAT     H210381   4.208   0.746   3.502
 3288WAT      O10382   4.499   0.813   2.054
 3288WAT     H110383   4.444   0.858   2.119
 3288WAT     H210384   4.561   0.763   2.107
 3289WAT      O10385   4.904   0.949   3.647
 3289WAT     H110386   4.978   0.982   3.597
 3289WAT     H210387   4.828   0.965   3.592
 3290WAT      O10388   3.688   0.449   3.728
 3290WAT     H110389   3.692   0.419   3.819
 3290WAT     H210390   3.773   0.489   3.712
 3291WAT      O10391   4.065   0.709   2.244
 3291WAT     H110392   4.108   0.692   2.328
 3291WAT     H210393   4.078   0.628   2.194
 3292WAT      O10394   3.882   0.307   3.525
 3292WAT     H110395   3.829   0.258   3.462
 3292WAT     H210396   3.949   0.350   3.471
 3293WAT      O10397   4.317   0.611   1.969
 3293WAT     H110398   4.369   0.540   1.932
 3293WAT     H210399   4.381   0.675   1.999
 3294WAT      O10400   4.771   0.754   3.501
 3294WAT     H110401   4.813   0.769   3.586
 3294WAT     H210402   4.678   0.766   3.517
 3295WAT      O10403   4.819   0.488   3.701
 3295WAT     H110404   4.877   0.412   3.693
 3295WAT     H210405   4.836   0.541   3.624
 3296WAT      O10406   4.248   0.749   3.298
 3296WAT     H110407   4.289   0.833   3.281
 3296WAT     H210408   4.156   0.763   3.275
 3297WAT      O10409   4.481   0.522   3.436
 3297WAT     H110410   4.493   0.462   3.510
 3297WAT     H210411   4.567   0.526   3.394
 3298WAT      O10412   4.715   0.577   3.294
 3298WAT     H110413   4.662   0.630   3.234
 3298WAT     H210414   4.749   0.641   3.357
 3299WAT      O10415   3.955   0.316   1.938
 3299WAT     H110416   3.935   0.230   1.975
 3299WAT     H210417   3.938   0.308   1.845
 3300WAT      O10418   4.033   1.379   3.410
 3300WAT     H110419   3.979   1.452   3.378
 3300WAT     H210420   4.058   1.332   3.331
 3301WAT      O10421   4.318   1.503   3.435
 3301WAT     H110422   4.311   1.593   3.466
 3301WAT     H210423   4.228   1.471   3.433
 3302WAT      O10424   4.373   1.420   2.198
 3302WAT     H110425   4.463   1.453   2.200
 3302WAT     H210426   4.376   1.347   2.135
 3303WAT      O10427   3.737   0.957   2.021
 3303WAT     H110428   3.781   1.011   2.086
 3303WAT     H210429   3.786   0.874   2.022
 3304WAT      O10430   3.459   1.236   2.766
 3304WAT     H110431   3.492   1.149   2.743
 3304WAT     H210432   3.501   1.256   2.849
 3305WAT      O10433   3.918   1.069   2.532
 3305WAT     H110434   3.888   1.056   2.622
 3305WAT     H210435   3.908   0.983   2.491
 3306WAT      O10436   3.507   1.322   3.040
 3306WAT     H110437   3.464   1.340   3.123
 3306WAT     H210438   3.564   1.398   3.025
 3307WAT      O10439   5.071   1.273   3.468
 3307WAT     H110440   5.011   1.278   3.394
 3307WAT     H210441   5.084   1.179   3.481
 3308WAT      O10442   5.195   1.047   2.002
 3308WAT     H110443   5.112   1.054   2.049
 3308WAT     H210444   5.213   1.136   1.972
 3309WAT      O10445   5.141   0.721   2.252
 3309WAT     H110446   5.217   0.778   2.263
 3309WAT     H210447   5.142   0.664   2.329
 3310WAT      O10448   3.491   0.574   2.675
 3310WAT     H110449   3.425   0.547   2.611
 3310WAT     H210450   3.574   0.563   2.631
 3311WAT      O10451   5.241   0.807   2.737
 3311WAT     H110452   5.278   0.728   2.696
 3311WAT     H210453   5.305   0.876   2.719
 3312WAT      O10454   4.940   0.945   3.278
 3312WAT     H110455   4.858   0.988   3.304
 3312WAT     H210456   4.980   1.006   3.217
 3313WAT      O10457   5.146   0.751   1.968
 3313WAT     H110458   5.173   0.841   1.955
 3313WAT     H210459   5.127   0.744   2.062
 3314WAT      O10460   5.135   0.544   2.467
 3314WAT     H110461   5.098   0.468   2.424
 3314WAT     H210462   5.063   0.582   2.516
 3315WAT      O10463   3.594   0.612   3.130
 3315WAT     H110464   3.631   0.603   3.217
 3315WAT     H210465   3.538   0.536   3.120
 3316WAT      O10466   5.074   0.459   3.431
 3316WAT     H110467   5.051   0.436   3.341
 3316WAT     H210468   5.101   0.551   3.426
 3317WAT      O10469   3.550   0.303   3.520
 3317WAT     H110470   3.460   0.300   3.554
 3317WAT     H210471   3.604   0.323   3.597
 3318WAT      O10472   3.412   0.295   2.270
 3318WAT     H110473   3.322   0.321   2.252
 3318WAT     H210474   3.460   0.322   2.192
 3319WAT      O10475   5.063   0.367   2.797
 3319WAT     H110476   5.115   0.317   2.734
 3319WAT     H210477   5.122   0.380   2.872
 3320WAT      O10478   5.081   0.375   3.150
 3320WAT     H110479   4.986   0.372   3.161
 3320WAT     H210480   5.099   0.466   3.126
 3321WAT      O10481   3.666   0.200   2.061
 3321WAT     H110482   3.737   0.158   2.012
 3321WAT     H210483   3.595   0.207   1.998
 3322WAT      O10484   5.012   0.293   2.391
 3322WAT     H110485   5.062   0.269   2.470
 3322WAT     H210486   4.992   0.209   2.350
 3323WAT      O10487   4.945   1.420   2.631
 3323WAT     H110488   5.005   1.388   2.563
 3323WAT     H210489   4.971   1.373   2.710
 3324WAT      O10490   3.736   1.063   3.646
 3324WAT     H110491   3.732   1.026   3.734
 3324WAT     H210492   3.749   1.157   3.660
 3325WAT      O10493   4.106   1.219   3.206
 3325WAT     H110494   4.082   1.246   3.117
 3325WAT     H210495   4.200   1.236   3.211
 3326WAT      O10496   5.232   1.421   3.286
 3326WAT     H110497   5.183   1.461   3.214
 3326WAT     H210498   5.171   1.358   3.325
 3327WAT      O10499   3.720   1.358   3.358
 3327WAT     H110500   3.660   1.345   3.432
 3327WAT     H210501   3.719   1.274   3.311
 3328WAT      O10502   5.000   1.485   3.014
 3328WAT     H110503   4.954   1.560   2.976
 3328WAT     H210504   4.938   1.413   3.008
 3329WAT      O10505   3.683   1.095   3.253
 3329WAT     H110506   3.610   1.033   3.246
 3329WAT     H210507   3.689   1.134   3.166
 3330WAT      O10508   4.043   1.316   2.931
 3330WAT     H110509   4.095   1.255   2.879
 3330WAT     H210510   4.108   1.366   2.980
 3331WAT      O10511   4.317   1.405   3.014
 3331WAT     H110512   4.346   1.380   2.926
 3331WAT     H210513   4.369   1.350   3.073
 3332WAT      O10514   3.511   1.426   2.574
 3332WAT     H110515   3.494   1.363   2.644
 3332WAT     H210516   3.425   1.447   2.539
 3333WAT      O10517   3.672   1.296   2.318
 3333WAT     H110518   3.619   1.334   2.248
 3333WAT     H210519   3.664   1.358   2.390
 3334WAT      O10520   4.324   1.497   3.751
 3334WAT     H110521   4.417   1.474   3.755
 3334WAT     H210522   4.323   1.580   3.703
 3335WAT      O10523   5.148   1.452   2.450
 3335WAT     H110524   5.165   1.383   2.386
 3335WAT     H210525   5.078   1.504   2.411
 3336WAT      O10526   3.932   1.491   2.206
 3336WAT     H110527   4.005   1.462   2.151
 3336WAT     H210528   3.958   1.467   2.295
 3337WAT      O10529   3.848   1.102   2.206
 3337WAT     H110530   3.785   1.149   2.261
 3337WAT     H210531   3.859   1.018   2.250
 3338WAT      O10532   4.981   1.420   3.733
 3338WAT     H110533   5.060   1.371   3.712
 3338WAT     H210534   5.010   1.488   3.794
 3339WAT      O10535   4.593   0.507   0.821
 3339WAT     H110536   4.585   0.416   0.794
 3339WAT     H210537   4.552   0.557   0.751
 3340WAT      O10538   4.407   0.685   1.009
 3340WAT     H110539   4.329   0.637   1.038
 3340WAT     H210540   4.472   0.617   0.992
 3341WAT      O10541   3.808   0.716   1.097
 3341WAT     H110542   3.725   0.691   1.137
 3341WAT     H210543   3.869   0.723   1.171
 3342WAT      O10544   4.809   1.126   0.887
 3342WAT     H110545   4.763   1.049   0.920
 3342WAT     H210546   4.890   1.128   0.938
 3343WAT      O10547   3.806   1.120   1.117
 3343WAT     H110548   3.837   1.031   1.099
 3343WAT     H210549   3.881   1.175   1.094
 3344WAT      O10550   3.649   0.212   0.475
 3344WAT     H110551   3.560   0.246   0.465
 3344WAT     H210552   3.678   0.192   0.386
 3345WAT      O10553   3.446   0.472   1.064
 3345WAT     H110554   3.503   0.396   1.064
 3345WAT     H210555   3.446   0.502   0.973
 3346WAT      O10556   4.431   1.354   0.849
 3346WAT     H110557   4.369   1.400   0.792
 3346WAT     H210558   4.517   1.370   0.809
 3347WAT      O10559   4.351   0.953   1.010
 3347WAT     H110560   4.344   0.859   0.994
 3347WAT     H210561   4.427   0.962   1.067
 3348WAT      O10562   3.632   0.263   1.103
 3348WAT     H110563   3.700   0.289   1.165
 3348WAT     H210564   3.600   0.179   1.137
 3349WAT      O10565   4.051   0.367   1.012
 3349WAT     H110566   4.102   0.417   1.076
 3349WAT     H210567   4.104   0.290   0.995
 3350WAT      O10568   5.261   0.184   1.382
 3350WAT     H110569   5.191   0.223   1.331
 3350WAT     H210570   5.288   0.254   1.443
 3351WAT      O10571   4.518   0.843   0.589
 3351WAT     H110572   4.456   0.889   0.532
 3351WAT     H210573   4.569   0.912   0.630
 3352WAT      O10574   4.004   0.795   1.256
 3352WAT     H110575   3.971   0.858   1.321
 3352WAT     H210576   4.022   0.848   1.179
 3353WAT      O10577   4.856   0.177   1.003
 3353WAT     H110578   4.785   0.206   1.061
 3353WAT     H210579   4.892   0.258   0.967
 3354WAT      O10580   3.925   0.992   1.438
 3354WAT     H110581   3.987   1.060   1.410
 3354WAT     H210582   3.839   1.033   1.429
 3355WAT      O10583   3.455   0.911   0.326
 3355WAT     H110584   3.417   0.960   0.253
 3355WAT     H210585   3.481   0.978   0.389
 3356WAT      O10586   5.017   1.139   1.230
 3356WAT     H110587   4.949   1.206   1.229
 3356WAT     H210588   5.071   1.158   1.153
 3357WAT      O10589   4.771   1.323   1.101
 3357WAT     H110590   4.772   1.283   1.014
 3357WAT     H210591   4.716   1.400   1.091
 3358WAT      O10592   4.900   0.995   0.610
 3358WAT     H110593   4.889   0.901   0.622
 3358WAT     H210594   4.900   1.031   0.699
 3359WAT      O10595   4.711   0.813   1.234
 3359WAT     H110596   4.752   0.792   1.150
 3359WAT     H210597   4.783   0.839   1.291
 3360WAT      O10598   4.455   0.558   0.546
 3360WAT     H110599   4.362   0.551   0.568
 3360WAT     H210600   4.470   0.652   0.534
 3361WAT      O10601   4.453   0.185   0.245
 3361WAT     H110602   4.359   0.201   0.254
 3361WAT     H210603   4.485   0.257   0.191
 3362WAT      O10604   5.105   0.653   1.243
 3362WAT     H110605   5.023   0.660   1.195
 3362WAT     H210606   5.165   0.712   1.196
 3363WAT      O10607   4.857   0.714   0.596
 3363WAT     H110608   4.796   0.680   0.531
 3363WAT     H210609   4.856   0.650   0.667
 3364WAT      O10610   4.802   0.332   1.338
 3364WAT     H110611   4.760   0.414   1.363
 3364WAT     H210612   4.729   0.273   1.318
 3365WAT      O10613   4.015   0.610   0.824
 3365WAT     H110614   3.975   0.539   0.774
 3365WAT     H210615   4.024   0.576   0.913
 3366WAT      O10616   4.062   0.979   1.040
 3366WAT     H110617   4.032   0.919   0.972
 3366WAT     H210618   4.157   0.983   1.029
 3367WAT      O10619   3.886   0.288   1.202
 3367WAT     H110620   3.942   0.299   1.124
 3367WAT     H210621   3.938   0.325   1.273
 3368WAT      O10622   4.871   1.336   1.406
 3368WAT     H110623   4.823   1.417   1.387
 3368WAT     H210624   4.802   1.271   1.422
 3369WAT      O10625   3.971   0.953   1.705
 3369WAT     H110626   3.881   0.975   1.730
 3369WAT     H210627   3.974   0.965   1.610
 3370WAT      O10628   4.675   0.638   0.297
 3370WAT     H110629   4.719   0.554   0.282
 3370WAT     H210630   4.746   0.701   0.305
 3371WAT      O10631   3.854   0.640   1.563
 3371WAT     H110632   3.840   0.727   1.600
 3371WAT     H210633   3.766   0.606   1.548
 3372WAT      O10634   4.486   1.132   0.693
 3372WAT     H110635   4.530   1.206   0.652
 3372WAT     H210636   4.480   1.156   0.786
 3373WAT      O10637   4.034   1.234   1.784
 3373WAT     H110638   4.031   1.275   1.697
 3373WAT     H210639   4.017   1.141   1.767
 3374WAT      O10640   3.685   0.500   0.574
 3374WAT     H110641   3.673   0.573   0.513
 3374WAT     H210642   3.654   0.423   0.526
 3375WAT      O10643   5.229   1.313   1.913
 3375WAT     H110644   5.276   1.360   1.981
 3375WAT     H210645   5.291   1.306   1.841
 3376WAT      O10646   3.449   0.817   1.154
 3376WAT     H110647   3.457   0.831   1.060
 3376WAT     H210648   3.510   0.746   1.174
 3377WAT      O10649   3.573   0.987   0.796
 3377WAT     H110650   3.533   1.001   0.710
 3377WAT     H210651   3.663   0.959   0.775
 3378WAT      O10652   5.169   1.032   1.629
 3378WAT     H110653   5.182   1.008   1.537
 3378WAT     H210654   5.173   0.949   1.676
 3379WAT      O10655   4.555   1.402   1.486
 3379WAT     H110656   4.607   1.393   1.566
 3379WAT     H210657   4.471   1.437   1.515
 3380WAT      O10658   4.753   1.431   0.429
 3380WAT     H110659   4.737   1.402   0.519
 3380WAT     H210660   4.736   1.353   0.375
 3381WAT      O10661   4.001   1.409   0.607
 3381WAT     H110662   3.983   1.317   0.585
 3381WAT     H210663   3.915   1.444   0.631
 3382WAT      O10664   4.723   1.181   0.285
 3382WAT     H110665   4.654   1.181   0.219
 3382WAT     H210666   4.797   1.139   0.242
 3383WAT      O10667   4.680   1.344   0.692
 3383WAT     H110668   4.725   1.266   0.724
 3383WAT     H210669   4.713   1.415   0.747
 3384WAT      O10670   3.455   0.921   1.408
 3384WAT     H110671   3.471   0.874   1.327
 3384WAT     H210672   3.501   0.870   1.475
 3385WAT      O10673   4.861   0.243   1.585
 3385WAT     H110674   4.775   0.213   1.617
 3385WAT     H210675   4.845   0.267   1.494
 3386WAT      O10676   4.570   0.393   1.795
 3386WAT     H110677   4.603   0.310   1.761
 3386WAT     H210678   4.649   0.445   1.810
 3387WAT      O10679   3.911   0.347   0.685
 3387WAT     H110680   3.888   0.325   0.775
 3387WAT     H210681   3.833   0.390   0.650
 3388WAT      O10682   4.634   0.347   0.545
 3388WAT     H110683   4.574   0.420   0.526
 3388WAT     H210684   4.689   0.341   0.466
 3389WAT      O10685   4.155   0.436   1.751
 3389WAT     H110686   4.145   0.342   1.736
 3389WAT     H210687   4.239   0.459   1.712
 3390WAT      O10688   4.553   0.470   1.157
 3390WAT     H110689   4.480   0.521   1.192
 3390WAT     H210690   4.513   0.388   1.127
 3391WAT      O10691   4.203   0.238   0.297
 3391WAT     H110692   4.215   0.233   0.392
 3391WAT     H210693   4.165   0.324   0.281
 3392WAT      O10694   4.104   0.469   0.237
 3392WAT     H110695   4.047   0.424   0.174
 3392WAT     H210696   4.175   0.505   0.183
 3393WAT      O10697   3.612   0.859   1.624
 3393WAT     H110698   3.574   0.795   1.684
 3393WAT     H210699   3.643   0.929   1.681
 3394WAT      O10700   4.227   0.544   1.172
 3394WAT     H110701   4.264   0.496   1.247
 3394WAT     H210702   4.208   0.631   1.207
 3395WAT      O10703   4.006   0.448   1.404
 3395WAT     H110704   3.976   0.536   1.427
 3395WAT     H210705   4.101   0.454   1.408
 3396WAT      O10706   3.859   0.868   0.464
 3396WAT     H110707   3.781   0.814   0.448
 3396WAT     H210708   3.932   0.816   0.430
 3397WAT      O10709   4.935   0.768   1.043
 3397WAT     H110710   5.007   0.817   1.004
 3397WAT     H210711   4.914   0.700   0.979
 3398WAT      O10712   4.473   0.775   1.632
 3398WAT     H110713   4.466   0.683   1.606
 3398WAT     H210714   4.410   0.785   1.703
 3399WAT      O10715   4.752   0.344   0.287
 3399WAT     H110716   4.841   0.376   0.270
 3399WAT     H210717   4.749   0.257   0.248
 3400WAT      O10718   3.863   0.835   0.828
 3400WAT     H110719   3.915   0.755   0.822
 3400WAT     H210720   3.818   0.829   0.912
 3401WAT      O10721   4.352   0.962   0.355
 3401WAT     H110722   4.386   1.036   0.305
 3401WAT     H210723   4.269   0.993   0.391
 3402WAT      O10724   3.612   0.532   1.519
 3402WAT     H110725   3.576   0.598   1.578
 3402WAT     H210726   3.582   0.448   1.556
 3403WAT      O10727   3.932   0.577   1.807
 3403WAT     H110728   3.902   0.592   1.718
 3403WAT     H210729   4.009   0.522   1.798
 3404WAT      O10730   4.466   1.057   1.607
 3404WAT     H110731   4.467   0.964   1.585
 3404WAT     H210732   4.395   1.066   1.671
 3405WAT      O10733   5.087   0.721   1.542
 3405WAT     H110734   5.015   0.781   1.522
 3405WAT     H210735   5.140   0.720   1.462
 3406WAT      O10736   5.082   1.161   0.507
 3406WAT     H110737   5.018   1.096   0.534
 3406WAT     H210738   5.044   1.202   0.429
 3407WAT      O10739   4.640   0.894   0.891
 3407WAT     H110740   4.675   0.834   0.825
 3407WAT     H210741   4.552   0.861   0.909
 3408WAT      O10742   4.249   0.970   0.632
 3408WAT     H110743   4.317   1.024   0.670
 3408WAT     H210744   4.170   1.024   0.636
 3409WAT      O10745   3.463   0.532   0.181
 3409WAT     H110746   3.550   0.560   0.210
 3409WAT     H210747   3.414   0.613   0.170
 3410WAT      O10748   4.179   0.670   0.593
 3410WAT     H110749   4.225   0.751   0.616
 3410WAT     H210750   4.144   0.638   0.677
 3411WAT      O10751   4.409   1.221   1.316
 3411WAT     H110752   4.474   1.242   1.384
 3411WAT     H210753   4.446   1.145   1.271
 3412WAT      O10754   4.537   1.022   1.188
 3412WAT     H110755   4.601   0.952   1.199
 3412WAT     H210756   4.589   1.100   1.170
 3413WAT      O10757   4.714   1.102   1.508
 3413WAT     H110758   4.748   1.160   1.576
 3413WAT     H210759   4.622   1.089   1.531
 3414WAT      O10760   3.499   1.453   0.238
 3414WAT     H110761   3.535   1.513   0.173
 3414WAT     H210762   3.485   1.507   0.315
 3415WAT      O10763   4.879   0.842   0.327
 3415WAT     H110764   4.851   0.888   0.405
 3415WAT     H210765   4.959   0.796   0.354
 3416WAT      O10766   3.498   1.279   1.685
 3416WAT     H110767   3.509   1.185   1.671
 3416WAT     H210768   3.433   1.306   1.621
 3417WAT      O10769   4.297   1.107   1.825
 3417WAT     H110770   4.265   1.035   1.880
 3417WAT     H210771   4.229   1.174   1.833
 3418WAT      O10772   4.101   1.191   0.320
 3418WAT     H110773   4.100   1.264   0.258
 3418WAT     H210774   4.009   1.166   0.329
 3419WAT      O10775   3.661   0.713   0.394
 3419WAT     H110776   3.600   0.787   0.395
 3419WAT     H210777   3.709   0.722   0.312
 3420WAT      O10778   4.152   0.253   0.584
 3420WAT     H110779   4.081   0.300   0.628
 3420WAT     H210780   4.180   0.187   0.648
 3421WAT      O10781   4.314   0.395   1.384
 3421WAT     H110782   4.364   0.443   1.451
 3421WAT     H210783   4.329   0.303   1.405
 3422WAT      O10784   4.264   1.449   0.655
 3422WAT     H110785   4.289   1.445   0.563
 3422WAT     H210786   4.169   1.437   0.655
 3423WAT      O10787   4.864   0.541   0.813
 3423WAT     H110788   4.770   0.543   0.830
 3423WAT     H210789   4.896   0.463   0.858
 3424WAT      O10790   3.732   0.453   0.237
 3424WAT     H110791   3.740   0.358   0.249
 3424WAT     H210792   3.821   0.486   0.248
 3425WAT      O10793   5.065   1.258   0.981
 3425WAT     H110794   5.077   1.341   1.028
 3425WAT     H210795   5.151   1.237   0.946
 3426WAT      O10796   3.812   1.468   0.948
 3426WAT     H110797   3.885   1.413   0.975
 3426WAT     H210798   3.850   1.554   0.934
 3427WAT      O10799   3.500   1.074   0.535
 3427WAT     H110800   3.408   1.099   0.534
 3427WAT     H210801   3.547   1.157   0.523
 3428WAT      O10802   3.712   1.386   1.867
 3428WAT     H110803   3.792   1.418   1.908
 3428WAT     H210804   3.661   1.350   1.939
 3429WAT      O10805   4.596   0.997   1.861
 3429WAT     H110806   4.535   0.999   1.787
 3429WAT     H210807   4.566   0.924   1.915
 3430WAT      O10808   4.739   1.370   1.722
 3430WAT     H110809   4.834   1.361   1.717
 3430WAT     H210810   4.724   1.436   1.790
 3431WAT      O10811   5.028   1.308   0.272
 3431WAT     H110812   5.000   1.266   0.191
 3431WAT     H210813   5.008   1.400   0.260
 3432WAT      O10814   3.484   0.635   1.761
 3432WAT     H110815   3.535   0.577   1.818
 3432WAT     H210816   3.410   0.663   1.815
 3433WAT      O10817   4.190   0.775   1.714
 3433WAT     H110818   4.113   0.832   1.706
 3433WAT     H210819   4.208   0.746   1.625
 3434WAT      O10820   4.499   0.813   0.177
 3434WAT     H110821   4.444   0.858   0.241
 3434WAT     H210822   4.561   0.763   0.229
 3435WAT      O10823   4.904   0.949   1.770
 3435WAT     H110824   4.978   0.982   1.720
 3435WAT     H210825   4.828   0.965   1.715
 3436WAT      O10826   3.688   0.449   1.850
 3436WAT     H110827   3.692   0.419   1.941
 3436WAT     H210828   3.773   0.489   1.835
 3437WAT      O10829   4.065   0.709   0.366
 3437WAT     H110830   4.108   0.692   0.451
 3437WAT     H210831   4.078   0.628   0.317
 3438WAT      O10832   3.882   0.307   1.647
 3438WAT     H110833   3.829   0.258   1.584
 3438WAT     H210834   3.949   0.350   1.594
 3439WAT      O10835   4.771   0.754   1.624
 3439WAT     H110836   4.813   0.769   1.709
 3439WAT     H210837   4.678   0.766   1.640
 3440WAT      O10838   4.819   0.488   1.824
 3440WAT     H110839   4.877   0.412   1.815
 3440WAT     H210840   4.836   0.541   1.746
 3441WAT      O10841   4.248   0.749   1.421
 3441WAT     H110842   4.289   0.833   1.403
 3441WAT     H210843   4.156   0.763   1.398
 3442WAT      O10844   4.481   0.522   1.559
 3442WAT     H110845   4.493   0.462   1.633
 3442WAT     H210846   4.567   0.526   1.517
 3443WAT      O10847   4.715   0.577   1.417
 3443WAT     H110848   4.662   0.630   1.356
 3443WAT     H210849   4.749   0.641   1.480
 3444WAT      O10850   4.033   1.379   1.532
 3444WAT     H110851   3.979   1.452   1.500
 3444WAT     H210852   4.058   1.332   1.453
 3445WAT      O10853   4.318   1.503   1.558
 3445WAT     H110854   4.311   1.593   1.589
 3445WAT     H210855   4.228   1.471   1.555
 3446WAT      O10856   4.373   1.420   0.320
 3446WAT     H110857   4.463   1.453   0.322
 3446WAT     H210858   4.376   1.347   0.258
 3447WAT      O10859   3.459   1.236   0.888
 3447WAT     H110860   3.492   1.149   0.865
 3447WAT     H210861   3.501   1.256   0.971
 3448WAT      O10862   3.918   1.069   0.654
 3448WAT     H110863   3.888   1.056   0.744
 3448WAT     H210864   3.908   0.983   0.614
 3449WAT      O10865   3.507   1.322   1.162
 3449WAT     H110866   3.464   1.340   1.245
 3449WAT     H210867   3.564   1.398   1.148
 3450WAT      O10868   5.071   1.273   1.591
 3450WAT     H110869   5.011   1.278   1.517
 3450WAT     H210870   5.084   1.179   1.604
 3451WAT      O10871   5.141   0.721   0.375
 3451WAT     H110872   5.217   0.778   0.386
 3451WAT     H210873   5.142   0.664   0.452
 3452WAT      O10874   3.491   0.574   0.798
 3452WAT     H110875   3.425   0.547   0.734
 3452WAT     H210876   3.574   0.563   0.753
 3453WAT      O10877   5.241   0.807   0.859
 3453WAT     H110878   5.278   0.728   0.819
 3453WAT     H210879   5.305   0.876   0.842
 3454WAT      O10880   4.940   0.945   1.401
 3454WAT     H110881   4.858   0.988   1.427
 3454WAT     H210882   4.980   1.006   1.339
 3455WAT      O10883   5.135   0.544   0.590
 3455WAT     H110884   5.098   0.468   0.547
 3455WAT     H210885   5.063   0.582   0.639
 3456WAT      O10886   3.594   0.612   1.252
 3456WAT     H110887   3.631   0.603   1.340
 3456WAT     H210888   3.538   0.536   1.242
 3457WAT      O10889   5.074   0.459   1.553
 3457WAT     H110890   5.051   0.436   1.463
 3457WAT     H210891   5.101   0.551   1.549
 3458WAT      O10892   3.550   0.303   1.643
 3458WAT     H110893   3.460   0.300   1.677
 3458WAT     H210894   3.604   0.323   1.719
 3459WAT      O10895   3.412   0.295   0.392
 3459WAT     H110896   3.322   0.321   0.375
 3459WAT     H210897   3.460   0.322   0.314
 3460WAT      O10898   5.063   0.367   0.920
 3460WAT     H110899   5.115   0.317   0.857
 3460WAT     H210900   5.122   0.380   0.995
 3461WAT      O10901   5.081   0.375   1.272
 3461WAT     H110902   4.986   0.372   1.284
 3461WAT     H210903   5.099   0.466   1.249
 3462WAT      O10904   5.012   0.293   0.514
 3462WAT     H110905   5.062   0.269   0.592
 3462WAT     H210906   4.992   0.209   0.472
 3463WAT      O10907   4.945   1.420   0.753
 3463WAT     H110908   5.005   1.388   0.686
 3463WAT     H210909   4.971   1.373   0.833
 3464WAT      O10910   3.736   1.063   1.768
 3464WAT     H110911   3.732   1.026   1.856
 3464WAT     H210912   3.749   1.157   1.782
 3465WAT      O10913   4.106   1.219   1.328
 3465WAT     H110914   4.082   1.246   1.240
 3465WAT     H210915   4.200   1.236   1.334
 3466WAT      O10916   5.232   1.421   1.408
 3466WAT     H110917   5.183   1.461   1.337
 3466WAT     H210918   5.171   1.358   1.448
 3467WAT      O10919   3.720   1.358   1.480
 3467WAT     H110920   3.660   1.345   1.554
 3467WAT     H210921   3.719   1.274   1.434
 3468WAT      O10922   5.000   1.485   1.136
 3468WAT     H110923   4.954   1.560   1.099
 3468WAT     H210924   4.938   1.413   1.131
 3469WAT      O10925   3.683   1.095   1.375
 3469WAT     H110926   3.610   1.033   1.369
 3469WAT     H210927   3.689   1.134   1.288
 3470WAT      O10928   4.043   1.316   1.054
 3470WAT     H110929   4.095   1.255   1.001
 3470WAT     H210930   4.108   1.366   1.103
 3471WAT      O10931   4.317   1.405   1.137
 3471WAT     H110932   4.346   1.380   1.049
 3471WAT     H210933   4.369   1.350   1.196
 3472WAT      O10934   3.511   1.426   0.696
 3472WAT     H110935   3.494   1.363   0.766
 3472WAT     H210936   3.425   1.447   0.661
 3473WAT      O10937   3.672   1.296   0.441
 3473WAT     H110938   3.619   1.334   0.370
 3473WAT     H210939   3.664   1.358   0.513
 3474WAT      O10940   4.324   1.497   1.873
 3474WAT     H110941   4.417   1.474   1.878
 3474WAT     H210942   4.323   1.580   1.825
 3475WAT      O10943   5.148   1.452   0.573
 3475WAT     H110944   5.165   1.383   0.509
 3475WAT     H210945   5.078   1.504   0.534
 3476WAT      O10946   3.932   1.491   0.328
 3476WAT     H110947   4.005   1.462   0.274
 3476WAT     H210948   3.958   1.467   0.417
 3477WAT      O10949   3.848   1.102   0.329
 3477WAT     H110950   3.785   1.149   0.384
 3477WAT     H210951   3.859   1.018   0.372
 3478WAT      O10952   4.981   1.420   1.856
 3478WAT     H110953   5.060   1.371   1.835
 3478WAT     H210954   5.010   1.488   1.916
 3479WAT      O10955   2.716   6.140   4.576
 3479WAT     H110956   2.708   6.048   4.549
 3479WAT     H210957   2.675   6.189   4.505
 3480WAT      O10958   2.529   6.317   4.764
 3480WAT     H110959   2.452   6.269   4.793
 3480WAT     H210960   2.594   6.249   4.747
 3481WAT      O10961   1.931   6.349   4.852
 3481WAT     H110962   1.848   6.323   4.892
 3481WAT     H210963   1.992   6.356   4.926
 3482WAT      O10964   1.772   5.845   4.230
 3482WAT     H110965   1.683   5.879   4.220
 3482WAT     H210966   1.800   5.825   4.141
 3483WAT      O10967   1.568   6.105   4.819
 3483WAT     H110968   1.625   6.028   4.819
 3483WAT     H210969   1.568   6.135   4.728
 3484WAT      O10970   2.473   6.585   4.765
 3484WAT     H110971   2.466   6.491   4.749
 3484WAT     H210972   2.549   6.594   4.822
 3485WAT      O10973   1.692   5.645   4.997
 3485WAT     H110974   1.674   5.556   5.025
 3485WAT     H210975   1.652   5.700   5.065
 3486WAT      O10976   2.576   5.866   4.788
 3486WAT     H110977   2.614   5.778   4.776
 3486WAT     H210978   2.567   5.899   4.698
 3487WAT      O10979   1.989   5.703   4.334
 3487WAT     H110980   2.000   5.793   4.364
 3487WAT     H210981   1.898   5.698   4.305
 3488WAT      O10982   2.955   5.615   4.481
 3488WAT     H110983   3.037   5.566   4.485
 3488WAT     H210984   2.958   5.674   4.556
 3489WAT      O10985   1.754   5.895   4.858
 3489WAT     H110986   1.822   5.921   4.920
 3489WAT     H210987   1.723   5.811   4.892
 3490WAT      O10988   2.173   6.000   4.767
 3490WAT     H110989   2.224   6.050   4.831
 3490WAT     H210990   2.227   5.922   4.749
 3491WAT      O10991   3.384   5.817   5.137
 3491WAT     H110992   3.313   5.856   5.085
 3491WAT     H210993   3.410   5.886   5.197
 3492WAT      O10994   2.002   5.464   5.194
 3492WAT     H110995   2.002   5.515   5.113
 3492WAT     H210996   1.919   5.416   5.191
 3493WAT      O10997   2.641   6.475   4.344
 3493WAT     H110998   2.579   6.521   4.287
 3493WAT     H210999   2.692   6.544   4.385
 3494WAT      O11000   2.127   6.428   5.011
 3494WAT     H111001   2.094   6.490   5.076
 3494WAT     H211002   2.145   6.480   4.933
 3495WAT      O11003   2.978   5.809   4.758
 3495WAT     H111004   2.908   5.838   4.816
 3495WAT     H211005   3.014   5.890   4.722
 3496WAT      O11006   1.970   5.635   4.994
 3496WAT     H111007   2.004   5.719   4.965
 3496WAT     H211008   1.876   5.650   5.006
 3497WAT      O11009   1.577   6.543   4.081
 3497WAT     H111010   1.540   6.592   4.008
 3497WAT     H211011   1.603   6.611   4.144
 3498WAT      O11012   3.285   5.754   4.797
 3498WAT     H111013   3.190   5.757   4.810
 3498WAT     H211014   3.318   5.835   4.836
 3499WAT      O11015   2.338   5.384   4.627
 3499WAT     H111016   2.369   5.328   4.555
 3499WAT     H211017   2.245   5.397   4.609
 3500WAT      O11018   2.833   6.446   4.989
 3500WAT     H111019   2.875   6.424   4.905
 3500WAT     H211020   2.906   6.471   5.046
 3501WAT      O11021   2.577   6.190   4.300
 3501WAT     H111022   2.484   6.184   4.323
 3501WAT     H211023   2.592   6.284   4.289
 3502WAT      O11024   2.576   5.817   4.000
 3502WAT     H111025   2.482   5.833   4.009
 3502WAT     H211026   2.608   5.889   3.945
 3503WAT      O11027   3.228   6.285   4.998
 3503WAT     H111028   3.145   6.292   4.950
 3503WAT     H211029   3.287   6.344   4.951
 3504WAT      O11030   2.980   6.346   4.351
 3504WAT     H111031   2.918   6.313   4.286
 3504WAT     H211032   2.978   6.282   4.422
 3505WAT      O11033   2.924   5.964   5.092
 3505WAT     H111034   2.883   6.047   5.118
 3505WAT     H211035   2.851   5.906   5.073
 3506WAT      O11036   2.138   6.243   4.579
 3506WAT     H111037   2.097   6.172   4.529
 3506WAT     H211038   2.146   6.208   4.667
 3507WAT      O11039   2.184   6.611   4.795
 3507WAT     H111040   2.155   6.551   4.727
 3507WAT     H211041   2.279   6.615   4.784
 3508WAT      O11042   2.009   5.920   4.957
 3508WAT     H111043   2.064   5.931   4.879
 3508WAT     H211044   2.060   5.958   5.028
 3509WAT      O11045   2.094   6.585   5.460
 3509WAT     H111046   2.004   6.608   5.485
 3509WAT     H211047   2.096   6.598   5.365
 3510WAT      O11048   2.798   6.270   4.051
 3510WAT     H111049   2.842   6.186   4.037
 3510WAT     H211050   2.869   6.334   4.060
 3511WAT      O11051   1.976   6.272   5.318
 3511WAT     H111052   1.962   6.360   5.354
 3511WAT     H211053   1.888   6.238   5.303
 3512WAT      O11054   3.156   5.396   3.883
 3512WAT     H111055   3.125   5.405   3.973
 3512WAT     H211056   3.232   5.453   3.878
 3513WAT      O11057   1.808   6.132   4.329
 3513WAT     H111058   1.796   6.205   4.267
 3513WAT     H211059   1.777   6.055   4.281
 3514WAT      O11060   1.572   6.449   4.909
 3514WAT     H111061   1.579   6.463   4.815
 3514WAT     H211062   1.633   6.379   4.929
 3515WAT      O11063   1.696   6.619   4.550
 3515WAT     H111064   1.655   6.634   4.465
 3515WAT     H211065   1.785   6.591   4.530
 3516WAT      O11066   3.277   5.869   5.481
 3516WAT     H111067   3.215   5.920   5.428
 3516WAT     H211068   3.245   5.779   5.475
 3517WAT      O11069   1.577   6.554   5.163
 3517WAT     H111070   1.593   6.507   5.081
 3517WAT     H211071   1.624   6.503   5.230
 3518WAT      O11072   2.054   5.467   4.667
 3518WAT     H111073   2.010   5.545   4.634
 3518WAT     H211074   2.110   5.499   4.738
 3519WAT      O11075   2.483   5.753   5.227
 3519WAT     H111076   2.437   5.774   5.308
 3519WAT     H211077   2.443   5.672   5.197
 3520WAT      O11078   2.983   5.875   5.340
 3520WAT     H111079   2.898   5.845   5.372
 3520WAT     H211080   2.967   5.900   5.249
 3521WAT      O11081   2.693   6.025   5.550
 3521WAT     H111082   2.725   5.942   5.516
 3521WAT     H211083   2.771   6.078   5.565
 3522WAT      O11084   2.366   5.429   4.155
 3522WAT     H111085   2.303   5.428   4.227
 3522WAT     H211086   2.357   5.342   4.115
 3523WAT      O11087   2.258   5.521   4.853
 3523WAT     H111088   2.288   5.612   4.845
 3523WAT     H211089   2.313   5.472   4.791
 3524WAT      O11090   2.033   5.979   4.440
 3524WAT     H111091   2.011   5.957   4.530
 3524WAT     H211092   1.955   6.022   4.405
 3525WAT      O11093   2.756   5.980   4.300
 3525WAT     H111094   2.697   6.052   4.281
 3525WAT     H211095   2.811   5.973   4.221
 3526WAT      O11096   2.277   6.069   5.506
 3526WAT     H111097   2.268   5.975   5.491
 3526WAT     H211098   2.362   6.091   5.467
 3527WAT      O11099   2.617   5.843   4.503
 3527WAT     H111100   2.656   5.875   4.421
 3527WAT     H211101   2.653   5.755   4.514
 3528WAT      O11102   1.791   5.710   5.322
 3528WAT     H111103   1.751   5.795   5.342
 3528WAT     H211104   1.722   5.646   5.341
 3529WAT      O11105   1.521   5.502   4.725
 3529WAT     H111106   1.492   5.559   4.796
 3529WAT     H211107   1.595   5.454   4.761
 3530WAT      O11108   1.539   5.896   3.846
 3530WAT     H111109   1.531   5.991   3.860
 3530WAT     H211110   1.504   5.882   3.758
 3531WAT      O11111   2.676   6.102   4.912
 3531WAT     H111112   2.602   6.153   4.947
 3531WAT     H211113   2.636   6.021   4.882
 3532WAT      O11114   2.319   5.770   4.753
 3532WAT     H111115   2.320   5.726   4.668
 3532WAT     H211116   2.409   5.802   4.763
 3533WAT      O11117   1.904   5.758   4.649
 3533WAT     H111118   1.870   5.806   4.724
 3533WAT     H211119   1.828   5.713   4.613
 3534WAT      O11120   2.326   5.870   4.052
 3534WAT     H111121   2.338   5.866   4.147
 3534WAT     H211122   2.287   5.956   4.036
 3535WAT      O11123   2.722   5.648   4.853
 3535WAT     H111124   2.724   5.693   4.938
 3535WAT     H211125   2.697   5.558   4.875
 3536WAT      O11126   2.227   6.101   3.992
 3536WAT     H111127   2.170   6.056   3.929
 3536WAT     H211128   2.298   6.137   3.938
 3537WAT      O11129   3.065   5.389   5.437
 3537WAT     H111130   3.097   5.316   5.490
 3537WAT     H211131   3.068   5.357   5.347
 3538WAT      O11132   1.735   6.491   5.379
 3538WAT     H111133   1.696   6.427   5.439
 3538WAT     H211134   1.766   6.561   5.436
 3539WAT      O11135   2.350   6.176   4.927
 3539WAT     H111136   2.386   6.128   5.002
 3539WAT     H211137   2.331   6.263   4.961
 3540WAT      O11138   1.636   5.650   4.540
 3540WAT     H111139   1.607   5.614   4.624
 3540WAT     H211140   1.630   5.577   4.479
 3541WAT      O11141   2.128   6.080   5.159
 3541WAT     H111142   2.098   6.168   5.182
 3541WAT     H211143   2.224   6.086   5.163
 3542WAT      O11144   1.981   6.501   4.219
 3542WAT     H111145   1.904   6.446   4.203
 3542WAT     H211146   2.054   6.449   4.185
 3543WAT      O11147   3.057   6.400   4.798
 3543WAT     H111148   3.129   6.450   4.759
 3543WAT     H211149   3.037   6.332   4.734
 3544WAT      O11150   2.603   5.540   4.212
 3544WAT     H111151   2.522   5.490   4.205
 3544WAT     H211152   2.584   5.624   4.171
 3545WAT      O11153   2.595   6.407   5.387
 3545WAT     H111154   2.589   6.315   5.361
 3545WAT     H211155   2.532   6.417   5.458
 3546WAT      O11156   2.875   5.977   4.042
 3546WAT     H111157   2.964   6.008   4.025
 3546WAT     H211158   2.872   5.889   4.003
 3547WAT      O11159   1.986   6.467   4.583
 3547WAT     H111160   2.037   6.387   4.577
 3547WAT     H211161   1.941   6.461   4.667
 3548WAT      O11162   1.734   6.164   5.274
 3548WAT     H111163   1.698   6.230   5.333
 3548WAT     H211164   1.705   6.081   5.311
 3549WAT      O11165   2.054   6.210   5.562
 3549WAT     H111166   2.024   6.224   5.473
 3549WAT     H211167   2.131   6.154   5.553
 3550WAT      O11168   3.102   6.108   3.989
 3550WAT     H111169   3.094   6.151   3.904
 3550WAT     H211170   3.174   6.154   4.032
 3551WAT      O11171   3.210   6.354   5.297
 3551WAT     H111172   3.137   6.413   5.277
 3551WAT     H211173   3.262   6.353   5.217
 3552WAT      O11174   2.763   6.526   4.646
 3552WAT     H111175   2.798   6.466   4.580
 3552WAT     H211176   2.674   6.494   4.663
 3553WAT      O11177   1.585   6.164   3.936
 3553WAT     H111178   1.672   6.192   3.965
 3553WAT     H211179   1.536   6.245   3.925
 3554WAT      O11180   2.302   6.303   4.348
 3554WAT     H111181   2.347   6.384   4.371
 3554WAT     H211182   2.266   6.271   4.431
 3555WAT      O11183   1.892   5.337   4.396
 3555WAT     H111184   1.879   5.336   4.490
 3555WAT     H211185   1.809   5.371   4.360
 3556WAT      O11186   1.592   5.513   5.342
 3556WAT     H111187   1.520   5.533   5.402
 3556WAT     H211188   1.634   5.435   5.379
 3557WAT      O11189   3.002   6.474   4.082
 3557WAT     H111190   2.973   6.520   4.160
 3557WAT     H211191   3.081   6.428   4.108
 3558WAT      O11192   1.784   6.346   4.149
 3558WAT     H111193   1.723   6.420   4.150
 3558WAT     H211194   1.831   6.355   4.066
 3559WAT      O11195   2.741   5.762   5.117
 3559WAT     H111196   2.778   5.680   5.149
 3559WAT     H211197   2.655   5.768   5.158
 3560WAT      O11198   3.078   5.658   4.197
 3560WAT     H111199   3.015   5.668   4.126
 3560WAT     H211200   3.028   5.680   4.276
 3561WAT      O11201   2.274   5.886   4.339
 3561WAT     H111202   2.204   5.932   4.383
 3561WAT     H211203   2.303   5.820   4.403
 3562WAT      O11204   2.437   6.027   5.139
 3562WAT     H111205   2.487   6.075   5.206
 3562WAT     H211206   2.451   5.935   5.160
 3563WAT      O11207   2.678   5.558   4.483
 3563WAT     H111208   2.665   5.560   4.388
 3563WAT     H211209   2.772   5.563   4.495
 3564WAT      O11210   2.095   5.716   4.077
 3564WAT     H111211   2.180   5.760   4.070
 3564WAT     H211212   2.058   5.748   4.159
 3565WAT      O11213   3.158   5.649   5.223
 3565WAT     H111214   3.107   5.723   5.257
 3565WAT     H211215   3.239   5.688   5.192
 3566WAT      O11216   2.987   6.173   4.568
 3566WAT     H111217   2.893   6.175   4.585
 3566WAT     H211218   3.018   6.095   4.612
 3567WAT      O11219   1.985   6.342   3.924
 3567WAT     H111220   2.061   6.330   3.980
 3567WAT     H211221   1.992   6.272   3.859
 3568WAT      O11222   1.854   6.085   3.992
 3568WAT     H111223   1.862   5.990   4.003
 3568WAT     H211224   1.943   6.118   4.003
 3569WAT      O11225   2.297   6.539   3.871
 3569WAT     H111226   2.287   6.478   3.944
 3569WAT     H211227   2.280   6.487   3.793
 3570WAT      O11228   2.312   6.408   5.469
 3570WAT     H111229   2.236   6.465   5.461
 3570WAT     H211230   2.330   6.379   5.380
 3571WAT      O11231   2.621   6.445   3.932
 3571WAT     H111232   2.566   6.490   3.996
 3571WAT     H211233   2.683   6.395   3.984
 3572WAT      O11234   3.027   6.581   5.525
 3572WAT     H111235   3.101   6.615   5.475
 3572WAT     H211236   2.950   6.598   5.470
 3573WAT      O11237   2.188   6.341   4.121
 3573WAT     H111238   2.230   6.325   4.206
 3573WAT     H211239   2.200   6.260   4.072
 3574WAT      O11240   2.004   5.939   5.402
 3574WAT     H111241   1.951   5.890   5.339
 3574WAT     H211242   2.071   5.982   5.349
 3575WAT      O11243   2.439   6.244   3.846
 3575WAT     H111244   2.491   6.172   3.810
 3575WAT     H211245   2.504   6.308   3.876
 3576WAT      O11246   2.894   6.386   5.378
 3576WAT     H111247   2.935   6.401   5.463
 3576WAT     H211248   2.800   6.399   5.395
 3577WAT      O11249   2.053   5.636   5.410
 3577WAT     H111250   2.043   5.574   5.338
 3577WAT     H211251   1.995   5.709   5.387
 3578WAT      O11252   2.330   5.492   5.113
 3578WAT     H111253   2.285   5.494   5.029
 3578WAT     H211254   2.266   5.452   5.173
 3579WAT      O11255   2.370   6.381   5.175
 3579WAT     H111256   2.412   6.466   5.158
 3579WAT     H211257   2.278   6.395   5.153
 3580WAT      O11258   2.604   6.154   5.314
 3580WAT     H111259   2.616   6.095   5.388
 3580WAT     H211260   2.690   6.158   5.272
 3581WAT      O11261   2.838   6.210   5.171
 3581WAT     H111262   2.785   6.262   5.111
 3581WAT     H211263   2.872   6.273   5.235
 3582WAT      O11264   2.078   5.949   3.816
 3582WAT     H111265   2.057   5.862   3.852
 3582WAT     H211266   2.060   5.940   3.722
 3583WAT      O11267   2.280   5.809   5.440
 3583WAT     H111268   2.339   5.778   5.508
 3583WAT     H211269   2.199   5.761   5.455
 3584WAT      O11270   2.762   5.770   5.463
 3584WAT     H111271   2.694   5.704   5.456
 3584WAT     H211272   2.834   5.726   5.507
 3585WAT      O11273   2.825   5.430   4.069
 3585WAT     H111274   2.853   5.345   4.104
 3585WAT     H211275   2.748   5.453   4.120
 3586WAT      O11276   1.957   5.659   3.815
 3586WAT     H111277   1.988   5.659   3.724
 3586WAT     H211278   2.031   5.624   3.864
 3587WAT      O11279   2.279   5.553   3.913
 3587WAT     H111280   2.244   5.485   3.855
 3587WAT     H211281   2.299   5.507   3.995
 3588WAT      O11282   1.860   6.589   3.898
 3588WAT     H111283   1.903   6.643   3.964
 3588WAT     H211284   1.908   6.507   3.899
 3589WAT      O11285   3.263   6.354   4.130
 3589WAT     H111286   3.339   6.410   4.140
 3589WAT     H211287   3.265   6.297   4.207
 3590WAT      O11288   1.613   6.206   4.553
 3590WAT     H111289   1.548   6.179   4.489
 3590WAT     H211290   1.697   6.195   4.508
 3591WAT      O11291   3.364   6.439   4.614
 3591WAT     H111292   3.401   6.361   4.574
 3591WAT     H211293   3.428   6.508   4.596
 3592WAT      O11294   3.062   6.577   5.156
 3592WAT     H111295   2.981   6.620   5.182
 3592WAT     H211296   3.103   6.639   5.094
 3593WAT      O11297   3.268   6.383   3.846
 3593WAT     H111298   3.296   6.474   3.833
 3593WAT     H211299   3.250   6.376   3.939
 3594WAT      O11300   2.908   5.685   3.975
 3594WAT     H111301   2.950   5.667   3.891
 3594WAT     H211302   2.878   5.600   4.006
 3595WAT      O11303   3.258   6.177   4.345
 3595WAT     H111304   3.220   6.100   4.302
 3595WAT     H211305   3.185   6.215   4.394
 3596WAT      O11306   1.717   6.244   5.007
 3596WAT     H111307   1.754   6.236   5.095
 3596WAT     H211308   1.660   6.168   4.997
 3597WAT      O11309   3.197   6.091   5.308
 3597WAT     H111310   3.174   6.068   5.218
 3597WAT     H211311   3.223   6.183   5.304
 3598WAT      O11312   1.672   5.936   5.398
 3598WAT     H111313   1.583   5.932   5.431
 3598WAT     H211314   1.726   5.955   5.474
 3599WAT      O11315   1.535   5.927   4.147
 3599WAT     H111316   1.444   5.953   4.130
 3599WAT     H211317   1.583   5.954   4.069
 3600WAT      O11318   3.186   5.999   4.675
 3600WAT     H111319   3.238   5.950   4.612
 3600WAT     H211320   3.244   6.013   4.749
 3601WAT      O11321   3.203   6.008   5.027
 3601WAT     H111322   3.108   6.004   5.039
 3601WAT     H211323   3.222   6.099   5.004
 3602WAT      O11324   1.789   5.833   3.938
 3602WAT     H111325   1.860   5.790   3.890
 3602WAT     H211326   1.717   5.839   3.875
 3603WAT      O11327   1.754   5.438   3.842
 3603WAT     H111328   1.826   5.492   3.874
 3603WAT     H211329   1.781   5.411   3.755
 3604WAT      O11330   3.135   5.925   4.269
 3604WAT     H111331   3.184   5.902   4.347
 3604WAT     H211332   3.115   5.841   4.227
 3605WAT      O11333   1.723   5.363   4.832
 3605WAT     H111334   1.787   5.308   4.788
 3605WAT     H211335   1.765   5.388   4.915
 3606WAT      O11336   3.277   5.788   4.522
 3606WAT     H111337   3.266   5.773   4.616
 3606WAT     H211338   3.354   5.736   4.498
 3607WAT      O11339   3.112   5.382   5.168
 3607WAT     H111340   3.176   5.444   5.205
 3607WAT     H211341   3.127   5.386   5.074
 3608WAT      O11342   3.366   5.572   3.846
 3608WAT     H111343   3.459   5.558   3.825
 3608WAT     H211344   3.364   5.579   3.942
 3609WAT      O11345   3.374   5.649   4.109
 3609WAT     H111346   3.294   5.642   4.162
 3609WAT     H211347   3.394   5.742   4.108
 3610WAT      O11348   1.698   5.379   5.107
 3610WAT     H111349   1.663   5.424   5.183
 3610WAT     H211350   1.665   5.289   5.115
 3611WAT      O11351   2.449   5.498   5.459
 3611WAT     H111352   2.443   5.557   5.534
 3611WAT     H211353   2.543   5.487   5.444
 3612WAT      O11354   2.713   5.463   5.423
 3612WAT     H111355   2.774   5.495   5.357
 3612WAT     H211356   2.767   5.415   5.485
 3613WAT      O11357   1.765   5.331   5.434
 3613WAT     H111358   1.820   5.313   5.358
 3613WAT     H211359   1.772   5.252   5.488
 3614WAT      O11360   2.787   5.320   5.055
 3614WAT     H111361   2.700   5.353   5.035
 3614WAT     H211362   2.776   5.272   5.138
 3615WAT      O11363   2.878   5.540   5.194
 3615WAT     H111364   2.845   5.459   5.156
 3615WAT     H211365   2.972   5.536   5.182
 3616WAT      O11366   2.562   5.411   4.949
 3616WAT     H111367   2.483   5.459   4.977
 3616WAT     H211368   2.532   5.321   4.938
 3617WAT      O11369   3.017   5.482   4.754
 3617WAT     H111370   3.061   5.476   4.669
 3617WAT     H211371   2.990   5.573   4.761
 3618WAT      O11372   3.203   5.445   4.555
 3618WAT     H111373   3.197   5.350   4.540
 3618WAT     H211374   3.281   5.456   4.609
 3619WAT      O11375   1.696   5.442   4.201
 3619WAT     H111376   1.772   5.453   4.144
 3619WAT     H211377   1.650   5.526   4.197
 3620WAT      O11378   2.350   5.653   4.501
 3620WAT     H111379   2.269   5.616   4.466
 3620WAT     H211380   2.401   5.578   4.531
 3621WAT      O11381   2.800   5.320   4.624
 3621WAT     H111382   2.861   5.377   4.672
 3621WAT     H211383   2.726   5.376   4.602
 3622WAT      O11384   3.115   5.360   4.152
 3622WAT     H111385   3.134   5.450   4.178
 3622WAT     H211386   3.036   5.337   4.201
 3623WAT      O11387   1.933   5.495   4.056
 3623WAT     H111388   1.986   5.416   4.043
 3623WAT     H211389   1.997   5.562   4.079
 3624WAT      O11390   2.153   5.468   4.361
 3624WAT     H111391   2.090   5.398   4.378
 3624WAT     H211392   2.099   5.544   4.339
 3625WAT      O11393   2.716   6.140   2.699
 3625WAT     H111394   2.708   6.048   2.672
 3625WAT     H211395   2.675   6.189   2.628
 3626WAT      O11396   2.529   6.317   2.887
 3626WAT     H111397   2.452   6.269   2.916
 3626WAT     H211398   2.594   6.249   2.869
 3627WAT      O11399   1.931   6.349   2.974
 3627WAT     H111400   1.848   6.323   3.014
 3627WAT     H211401   1.992   6.356   3.048
 3628WAT      O11402   1.772   5.845   2.353
 3628WAT     H111403   1.683   5.879   2.343
 3628WAT     H211404   1.800   5.825   2.264
 3629WAT      O11405   1.568   6.105   2.941
 3629WAT     H111406   1.625   6.028   2.941
 3629WAT     H211407   1.568   6.135   2.850
 3630WAT      O11408   2.473   6.585   2.887
 3630WAT     H111409   2.466   6.491   2.871
 3630WAT     H211410   2.549   6.594   2.945
 3631WAT      O11411   1.692   5.645   3.120
 3631WAT     H111412   1.674   5.556   3.148
 3631WAT     H211413   1.652   5.700   3.187
 3632WAT      O11414   2.576   5.866   2.910
 3632WAT     H111415   2.614   5.778   2.899
 3632WAT     H211416   2.567   5.899   2.821
 3633WAT      O11417   1.989   5.703   2.456
 3633WAT     H111418   2.000   5.793   2.487
 3633WAT     H211419   1.898   5.698   2.427
 3634WAT      O11420   2.955   5.615   2.603
 3634WAT     H111421   3.037   5.566   2.608
 3634WAT     H211422   2.958   5.674   2.679
 3635WAT      O11423   1.754   5.895   2.981
 3635WAT     H111424   1.822   5.921   3.043
 3635WAT     H211425   1.723   5.811   3.014
 3636WAT      O11426   2.173   6.000   2.890
 3636WAT     H111427   2.224   6.050   2.954
 3636WAT     H211428   2.227   5.922   2.872
 3637WAT      O11429   3.384   5.817   3.260
 3637WAT     H111430   3.313   5.856   3.208
 3637WAT     H211431   3.410   5.886   3.320
 3638WAT      O11432   2.002   5.464   3.316
 3638WAT     H111433   2.002   5.515   3.236
 3638WAT     H211434   1.919   5.416   3.314
 3639WAT      O11435   2.641   6.475   2.466
 3639WAT     H111436   2.579   6.521   2.410
 3639WAT     H211437   2.692   6.544   2.508
 3640WAT      O11438   2.127   6.428   3.134
 3640WAT     H111439   2.094   6.490   3.198
 3640WAT     H211440   2.145   6.480   3.056
 3641WAT      O11441   2.978   5.809   2.881
 3641WAT     H111442   2.908   5.838   2.939
 3641WAT     H211443   3.014   5.890   2.845
 3642WAT      O11444   1.970   5.635   3.117
 3642WAT     H111445   2.004   5.719   3.087
 3642WAT     H211446   1.876   5.650   3.129
 3643WAT      O11447   1.577   6.543   2.203
 3643WAT     H111448   1.540   6.592   2.130
 3643WAT     H211449   1.603   6.611   2.267
 3644WAT      O11450   3.285   5.754   2.920
 3644WAT     H111451   3.190   5.757   2.933
 3644WAT     H211452   3.318   5.835   2.958
 3645WAT      O11453   2.338   5.384   2.749
 3645WAT     H111454   2.369   5.328   2.678
 3645WAT     H211455   2.245   5.397   2.731
 3646WAT      O11456   2.833   6.446   3.111
 3646WAT     H111457   2.875   6.424   3.028
 3646WAT     H211458   2.906   6.471   3.168
 3647WAT      O11459   2.577   6.190   2.423
 3647WAT     H111460   2.484   6.184   2.446
 3647WAT     H211461   2.592   6.284   2.411
 3648WAT      O11462   2.576   5.817   2.123
 3648WAT     H111463   2.482   5.833   2.131
 3648WAT     H211464   2.608   5.889   2.068
 3649WAT      O11465   3.228   6.285   3.120
 3649WAT     H111466   3.145   6.292   3.073
 3649WAT     H211467   3.287   6.344   3.074
 3650WAT      O11468   2.980   6.346   2.473
 3650WAT     H111469   2.918   6.313   2.409
 3650WAT     H211470   2.978   6.282   2.544
 3651WAT      O11471   2.924   5.964   3.215
 3651WAT     H111472   2.883   6.047   3.240
 3651WAT     H211473   2.851   5.906   3.196
 3652WAT      O11474   2.138   6.243   2.701
 3652WAT     H111475   2.097   6.172   2.652
 3652WAT     H211476   2.146   6.208   2.790
 3653WAT      O11477   2.184   6.611   2.918
 3653WAT     H111478   2.155   6.551   2.850
 3653WAT     H211479   2.279   6.615   2.906
 3654WAT      O11480   2.009   5.920   3.079
 3654WAT     H111481   2.064   5.931   3.002
 3654WAT     H211482   2.060   5.958   3.151
 3655WAT      O11483   2.094   6.585   3.583
 3655WAT     H111484   2.004   6.608   3.607
 3655WAT     H211485   2.096   6.598   3.488
 3656WAT      O11486   2.798   6.270   2.174
 3656WAT     H111487   2.842   6.186   2.159
 3656WAT     H211488   2.869   6.334   2.183
 3657WAT      O11489   1.976   6.272   3.440
 3657WAT     H111490   1.962   6.360   3.477
 3657WAT     H211491   1.888   6.238   3.426
 3658WAT      O11492   3.156   5.396   2.005
 3658WAT     H111493   3.125   5.405   2.095
 3658WAT     H211494   3.232   5.453   2.000
 3659WAT      O11495   1.808   6.132   2.451
 3659WAT     H111496   1.796   6.205   2.390
 3659WAT     H211497   1.777   6.055   2.403
 3660WAT      O11498   1.572   6.449   3.032
 3660WAT     H111499   1.579   6.463   2.937
 3660WAT     H211500   1.633   6.379   3.051
 3661WAT      O11501   1.696   6.619   2.673
 3661WAT     H111502   1.655   6.634   2.587
 3661WAT     H211503   1.785   6.591   2.653
 3662WAT      O11504   3.277   5.869   3.603
 3662WAT     H111505   3.215   5.920   3.550
 3662WAT     H211506   3.245   5.779   3.597
 3663WAT      O11507   1.577   6.554   3.286
 3663WAT     H111508   1.593   6.507   3.204
 3663WAT     H211509   1.624   6.503   3.352
 3664WAT      O11510   2.054   5.467   2.789
 3664WAT     H111511   2.010   5.545   2.756
 3664WAT     H211512   2.110   5.499   2.860
 3665WAT      O11513   2.483   5.753   3.350
 3665WAT     H111514   2.437   5.774   3.431
 3665WAT     H211515   2.443   5.672   3.320
 3666WAT      O11516   2.983   5.875   3.463
 3666WAT     H111517   2.898   5.845   3.495
 3666WAT     H211518   2.967   5.900   3.372
 3667WAT      O11519   2.693   6.025   3.673
 3667WAT     H111520   2.725   5.942   3.639
 3667WAT     H211521   2.771   6.078   3.688
 3668WAT      O11522   2.366   5.429   2.278
 3668WAT     H111523   2.303   5.428   2.350
 3668WAT     H211524   2.357   5.342   2.238
 3669WAT      O11525   2.258   5.521   2.975
 3669WAT     H111526   2.288   5.612   2.967
 3669WAT     H211527   2.313   5.472   2.914
 3670WAT      O11528   2.033   5.979   2.562
 3670WAT     H111529   2.011   5.957   2.653
 3670WAT     H211530   1.955   6.022   2.528
 3671WAT      O11531   2.756   5.980   2.422
 3671WAT     H111532   2.697   6.052   2.404
 3671WAT     H211533   2.811   5.973   2.344
 3672WAT      O11534   2.277   6.069   3.629
 3672WAT     H111535   2.268   5.975   3.614
 3672WAT     H211536   2.362   6.091   3.589
 3673WAT      O11537   2.617   5.843   2.625
 3673WAT     H111538   2.656   5.875   2.544
 3673WAT     H211539   2.653   5.755   2.637
 3674WAT      O11540   1.791   5.710   3.444
 3674WAT     H111541   1.751   5.795   3.465
 3674WAT     H211542   1.722   5.646   3.463
 3675WAT      O11543   2.448   5.718   3.751
 3675WAT     H111544   2.379   5.699   3.815
 3675WAT     H211545   2.522   5.747   3.804
 3676WAT      O11546   1.521   5.502   2.847
 3676WAT     H111547   1.492   5.559   2.919
 3676WAT     H211548   1.595   5.454   2.884
 3677WAT      O11549   1.539   5.896   1.969
 3677WAT     H111550   1.531   5.991   1.983
 3677WAT     H211551   1.504   5.882   1.881
 3678WAT      O11552   2.676   6.102   3.035
 3678WAT     H111553   2.602   6.153   3.070
 3678WAT     H211554   2.636   6.021   3.005
 3679WAT      O11555   2.319   5.770   2.875
 3679WAT     H111556   2.320   5.726   2.790
 3679WAT     H211557   2.409   5.802   2.886
 3680WAT      O11558   1.904   5.758   2.771
 3680WAT     H111559   1.870   5.806   2.847
 3680WAT     H211560   1.828   5.713   2.735
 3681WAT      O11561   2.326   5.870   2.174
 3681WAT     H111562   2.338   5.866   2.269
 3681WAT     H211563   2.287   5.956   2.159
 3682WAT      O11564   2.722   5.648   2.976
 3682WAT     H111565   2.724   5.693   3.060
 3682WAT     H211566   2.697   5.558   2.997
 3683WAT      O11567   2.227   6.101   2.114
 3683WAT     H111568   2.170   6.056   2.051
 3683WAT     H211569   2.298   6.137   2.061
 3684WAT      O11570   3.065   5.389   3.560
 3684WAT     H111571   3.097   5.316   3.612
 3684WAT     H211572   3.068   5.357   3.470
 3685WAT      O11573   1.735   6.491   3.502
 3685WAT     H111574   1.696   6.427   3.562
 3685WAT     H211575   1.766   6.561   3.559
 3686WAT      O11576   2.350   6.176   3.050
 3686WAT     H111577   2.386   6.128   3.124
 3686WAT     H211578   2.331   6.263   3.084
 3687WAT      O11579   1.636   5.650   2.663
 3687WAT     H111580   1.607   5.614   2.747
 3687WAT     H211581   1.630   5.577   2.601
 3688WAT      O11582   2.128   6.080   3.282
 3688WAT     H111583   2.098   6.168   3.304
 3688WAT     H211584   2.224   6.086   3.285
 3689WAT      O11585   1.981   6.501   2.341
 3689WAT     H111586   1.904   6.446   2.325
 3689WAT     H211587   2.054   6.449   2.308
 3690WAT      O11588   3.057   6.400   2.921
 3690WAT     H111589   3.129   6.450   2.882
 3690WAT     H211590   3.037   6.332   2.856
 3691WAT      O11591   2.603   5.540   2.335
 3691WAT     H111592   2.522   5.490   2.327
 3691WAT     H211593   2.584   5.624   2.293
 3692WAT      O11594   2.595   6.407   3.509
 3692WAT     H111595   2.589   6.315   3.484
 3692WAT     H211596   2.532   6.417   3.581
 3693WAT      O11597   2.875   5.977   2.165
 3693WAT     H111598   2.964   6.008   2.147
 3693WAT     H211599   2.872   5.889   2.125
 3694WAT      O11600   1.986   6.467   2.705
 3694WAT     H111601   2.037   6.387   2.700
 3694WAT     H211602   1.941   6.461   2.789
 3695WAT      O11603   1.734   6.164   3.396
 3695WAT     H111604   1.698   6.230   3.455
 3695WAT     H211605   1.705   6.081   3.434
 3696WAT      O11606   2.054   6.210   3.685
 3696WAT     H111607   2.024   6.224   3.595
 3696WAT     H211608   2.131   6.154   3.676
 3697WAT      O11609   3.102   6.108   2.111
 3697WAT     H111610   3.094   6.151   2.026
 3697WAT     H211611   3.174   6.154   2.155
 3698WAT      O11612   3.210   6.354   3.419
 3698WAT     H111613   3.137   6.413   3.399
 3698WAT     H211614   3.262   6.353   3.339
 3699WAT      O11615   2.763   6.526   2.769
 3699WAT     H111616   2.798   6.466   2.703
 3699WAT     H211617   2.674   6.494   2.786
 3700WAT      O11618   1.585   6.164   2.059
 3700WAT     H111619   1.672   6.192   2.087
 3700WAT     H211620   1.536   6.245   2.047
 3701WAT      O11621   2.302   6.303   2.471
 3701WAT     H111622   2.347   6.384   2.493
 3701WAT     H211623   2.266   6.271   2.554
 3702WAT      O11624   1.892   5.337   2.518
 3702WAT     H111625   1.879   5.336   2.613
 3702WAT     H211626   1.809   5.371   2.483
 3703WAT      O11627   1.592   5.513   3.464
 3703WAT     H111628   1.520   5.533   3.525
 3703WAT     H211629   1.634   5.435   3.501
 3704WAT      O11630   3.002   6.474   2.204
 3704WAT     H111631   2.973   6.520   2.283
 3704WAT     H211632   3.081   6.428   2.231
 3705WAT      O11633   1.784   6.346   2.272
 3705WAT     H111634   1.723   6.420   2.273
 3705WAT     H211635   1.831   6.355   2.189
 3706WAT      O11636   2.741   5.762   3.239
 3706WAT     H111637   2.778   5.680   3.272
 3706WAT     H211638   2.655   5.768   3.281
 3707WAT      O11639   3.078   5.658   2.320
 3707WAT     H111640   3.015   5.668   2.249
 3707WAT     H211641   3.028   5.680   2.399
 3708WAT      O11642   2.274   5.886   2.462
 3708WAT     H111643   2.204   5.932   2.506
 3708WAT     H211644   2.303   5.820   2.525
 3709WAT      O11645   2.437   6.027   3.262
 3709WAT     H111646   2.487   6.075   3.328
 3709WAT     H211647   2.451   5.935   3.282
 3710WAT      O11648   2.678   5.558   2.606
 3710WAT     H111649   2.665   5.560   2.511
 3710WAT     H211650   2.772   5.563   2.618
 3711WAT      O11651   2.095   5.716   2.199
 3711WAT     H111652   2.180   5.760   2.193
 3711WAT     H211653   2.058   5.748   2.282
 3712WAT      O11654   3.158   5.649   3.346
 3712WAT     H111655   3.107   5.723   3.380
 3712WAT     H211656   3.239   5.688   3.314
 3713WAT      O11657   2.987   6.173   2.690
 3713WAT     H111658   2.893   6.175   2.708
 3713WAT     H211659   3.018   6.095   2.735
 3714WAT      O11660   1.985   6.342   2.046
 3714WAT     H111661   2.061   6.330   2.103
 3714WAT     H211662   1.992   6.272   1.981
 3715WAT      O11663   1.854   6.085   2.115
 3715WAT     H111664   1.862   5.990   2.126
 3715WAT     H211665   1.943   6.118   2.125
 3716WAT      O11666   2.719   6.629   3.739
 3716WAT     H111667   2.658   6.631   3.665
 3716WAT     H211668   2.688   6.556   3.792
 3717WAT      O11669   1.607   6.267   3.638
 3717WAT     H111670   1.657   6.209   3.696
 3717WAT     H211671   1.533   6.295   3.692
 3718WAT      O11672   2.297   6.539   1.994
 3718WAT     H111673   2.287   6.478   2.066
 3718WAT     H211674   2.280   6.487   1.915
 3719WAT      O11675   2.312   6.408   3.592
 3719WAT     H111676   2.236   6.465   3.583
 3719WAT     H211677   2.330   6.379   3.502
 3720WAT      O11678   2.621   6.445   2.054
 3720WAT     H111679   2.566   6.490   2.119
 3720WAT     H211680   2.683   6.395   2.107
 3721WAT      O11681   3.027   6.581   3.647
 3721WAT     H111682   3.101   6.615   3.597
 3721WAT     H211683   2.950   6.598   3.592
 3722WAT      O11684   1.810   6.081   3.728
 3722WAT     H111685   1.814   6.052   3.819
 3722WAT     H211686   1.896   6.121   3.712
 3723WAT      O11687   2.188   6.341   2.244
 3723WAT     H111688   2.230   6.325   2.328
 3723WAT     H211689   2.200   6.260   2.194
 3724WAT      O11690   2.004   5.939   3.525
 3724WAT     H111691   1.951   5.890   3.462
 3724WAT     H211692   2.071   5.982   3.471
 3725WAT      O11693   2.439   6.244   1.969
 3725WAT     H111694   2.491   6.172   1.932
 3725WAT     H211695   2.504   6.308   1.999
 3726WAT      O11696   2.894   6.386   3.501
 3726WAT     H111697   2.935   6.401   3.586
 3726WAT     H211698   2.800   6.399   3.517
 3727WAT      O11699   2.941   6.120   3.701
 3727WAT     H111700   2.999   6.044   3.693
 3727WAT     H211701   2.959   6.173   3.624
 3728WAT      O11702   2.053   5.636   3.533
 3728WAT     H111703   2.043   5.574   3.460
 3728WAT     H211704   1.995   5.709   3.510
 3729WAT      O11705   2.330   5.492   3.236
 3729WAT     H111706   2.285   5.494   3.151
 3729WAT     H211707   2.266   5.452   3.296
 3730WAT      O11708   2.370   6.381   3.298
 3730WAT     H111709   2.412   6.466   3.281
 3730WAT     H211710   2.278   6.395   3.275
 3731WAT      O11711   2.604   6.154   3.436
 3731WAT     H111712   2.616   6.095   3.510
 3731WAT     H211713   2.690   6.158   3.394
 3732WAT      O11714   2.838   6.210   3.294
 3732WAT     H111715   2.785   6.262   3.234
 3732WAT     H211716   2.872   6.273   3.357
 3733WAT      O11717   2.078   5.949   1.938
 3733WAT     H111718   2.057   5.862   1.975
 3733WAT     H211719   2.060   5.940   1.845
 3734WAT      O11720   2.280   5.809   3.562
 3734WAT     H111721   2.339   5.778   3.631
 3734WAT     H211722   2.199   5.761   3.578
 3735WAT      O11723   2.762   5.770   3.585
 3735WAT     H111724   2.694   5.704   3.579
 3735WAT     H211725   2.834   5.726   3.630
 3736WAT      O11726   2.825   5.430   2.191
 3736WAT     H111727   2.853   5.345   2.227
 3736WAT     H211728   2.748   5.453   2.243
 3737WAT      O11729   1.957   5.659   1.937
 3737WAT     H111730   1.988   5.659   1.846
 3737WAT     H211731   2.031   5.624   1.987
 3738WAT      O11732   2.279   5.553   2.036
 3738WAT     H111733   2.244   5.485   1.978
 3738WAT     H211734   2.299   5.507   2.117
 3739WAT      O11735   1.860   6.589   2.021
 3739WAT     H111736   1.903   6.643   2.086
 3739WAT     H211737   1.908   6.507   2.022
 3740WAT      O11738   3.263   6.354   2.252
 3740WAT     H111739   3.339   6.410   2.263
 3740WAT     H211740   3.265   6.297   2.329
 3741WAT      O11741   1.613   6.206   2.675
 3741WAT     H111742   1.548   6.179   2.611
 3741WAT     H211743   1.697   6.195   2.631
 3742WAT      O11744   3.364   6.439   2.737
 3742WAT     H111745   3.401   6.361   2.696
 3742WAT     H211746   3.428   6.508   2.719
 3743WAT      O11747   3.062   6.577   3.278
 3743WAT     H111748   2.981   6.620   3.304
 3743WAT     H211749   3.103   6.639   3.217
 3744WAT      O11750   3.268   6.383   1.968
 3744WAT     H111751   3.296   6.474   1.955
 3744WAT     H211752   3.250   6.376   2.062
 3745WAT      O11753   2.908   5.685   2.098
 3745WAT     H111754   2.950   5.667   2.014
 3745WAT     H211755   2.878   5.600   2.129
 3746WAT      O11756   3.258   6.177   2.467
 3746WAT     H111757   3.220   6.100   2.424
 3746WAT     H211758   3.185   6.215   2.516
 3747WAT      O11759   1.717   6.244   3.130
 3747WAT     H111760   1.754   6.236   3.217
 3747WAT     H211761   1.660   6.168   3.120
 3748WAT      O11762   3.197   6.091   3.431
 3748WAT     H111763   3.174   6.068   3.341
 3748WAT     H211764   3.223   6.183   3.426
 3749WAT      O11765   1.672   5.936   3.520
 3749WAT     H111766   1.583   5.932   3.554
 3749WAT     H211767   1.726   5.955   3.597
 3750WAT      O11768   3.041   5.614   3.709
 3750WAT     H111769   3.129   5.615   3.747
 3750WAT     H211770   3.042   5.540   3.648
 3751WAT      O11771   1.535   5.927   2.270
 3751WAT     H111772   1.444   5.953   2.252
 3751WAT     H211773   1.583   5.954   2.192
 3752WAT      O11774   3.186   5.999   2.797
 3752WAT     H111775   3.238   5.950   2.734
 3752WAT     H211776   3.244   6.013   2.872
 3753WAT      O11777   3.203   6.008   3.150
 3753WAT     H111778   3.108   6.004   3.161
 3753WAT     H211779   3.222   6.099   3.126
 3754WAT      O11780   1.789   5.833   2.061
 3754WAT     H111781   1.860   5.790   2.012
 3754WAT     H211782   1.717   5.839   1.998
 3755WAT      O11783   1.754   5.438   1.965
 3755WAT     H111784   1.826   5.492   1.997
 3755WAT     H211785   1.781   5.411   1.877
 3756WAT      O11786   3.135   5.925   2.391
 3756WAT     H111787   3.184   5.902   2.470
 3756WAT     H211788   3.115   5.841   2.350
 3757WAT      O11789   1.723   5.363   2.955
 3757WAT     H111790   1.787   5.308   2.911
 3757WAT     H211791   1.765   5.388   3.037
 3758WAT      O11792   3.277   5.788   2.645
 3758WAT     H111793   3.266   5.773   2.739
 3758WAT     H211794   3.354   5.736   2.621
 3759WAT      O11795   3.112   5.382   3.291
 3759WAT     H111796   3.176   5.444   3.327
 3759WAT     H211797   3.127   5.386   3.196
 3760WAT      O11798   3.366   5.572   1.969
 3760WAT     H111799   3.459   5.558   1.948
 3760WAT     H211800   3.364   5.579   2.064
 3761WAT      O11801   3.374   5.649   2.231
 3761WAT     H111802   3.294   5.642   2.284
 3761WAT     H211803   3.394   5.742   2.230
 3762WAT      O11804   1.698   5.379   3.229
 3762WAT     H111805   1.663   5.424   3.306
 3762WAT     H211806   1.665   5.289   3.237
 3763WAT      O11807   2.449   5.498   3.581
 3763WAT     H111808   2.443   5.557   3.656
 3763WAT     H211809   2.543   5.487   3.567
 3764WAT      O11810   2.713   5.463   3.545
 3764WAT     H111811   2.774   5.495   3.479
 3764WAT     H211812   2.767   5.415   3.607
 3765WAT      O11813   1.765   5.331   3.557
 3765WAT     H111814   1.820   5.313   3.480
 3765WAT     H211815   1.772   5.252   3.610
 3766WAT      O11816   2.787   5.320   3.178
 3766WAT     H111817   2.700   5.353   3.158
 3766WAT     H211818   2.776   5.272   3.261
 3767WAT      O11819   2.878   5.540   3.316
 3767WAT     H111820   2.845   5.459   3.278
 3767WAT     H211821   2.972   5.536   3.304
 3768WAT      O11822   2.562   5.411   3.072
 3768WAT     H111823   2.483   5.459   3.100
 3768WAT     H211824   2.532   5.321   3.061
 3769WAT      O11825   3.017   5.482   2.876
 3769WAT     H111826   3.061   5.476   2.792
 3769WAT     H211827   2.990   5.573   2.884
 3770WAT      O11828   3.203   5.445   2.678
 3770WAT     H111829   3.197   5.350   2.663
 3770WAT     H211830   3.281   5.456   2.732
 3771WAT      O11831   1.696   5.442   2.324
 3771WAT     H111832   1.772   5.453   2.267
 3771WAT     H211833   1.650   5.526   2.319
 3772WAT      O11834   2.350   5.653   2.623
 3772WAT     H111835   2.269   5.616   2.589
 3772WAT     H211836   2.401   5.578   2.653
 3773WAT      O11837   2.800   5.320   2.747
 3773WAT     H111838   2.861   5.377   2.794
 3773WAT     H211839   2.726   5.376   2.725
 3774WAT      O11840   3.115   5.360   2.274
 3774WAT     H111841   3.134   5.450   2.301
 3774WAT     H211842   3.036   5.337   2.324
 3775WAT      O11843   1.933   5.495   2.178
 3775WAT     H111844   1.986   5.416   2.165
 3775WAT     H211845   1.997   5.562   2.201
 3776WAT      O11846   2.153   5.468   2.484
 3776WAT     H111847   2.090   5.398   2.500
 3776WAT     H211848   2.099   5.544   2.462
 3777WAT      O11849   2.165   5.396   3.727
 3777WAT     H111850   2.137   5.446   3.651
 3777WAT     H211851   2.203   5.316   3.690
 3778WAT      O11852   2.825   5.338   3.785
 3778WAT     H111853   2.814   5.370   3.874
 3778WAT     H211854   2.907   5.378   3.755
 3779WAT      O11855   2.716   6.140   0.821
 3779WAT     H111856   2.708   6.048   0.794
 3779WAT     H211857   2.675   6.189   0.751
 3780WAT      O11858   2.529   6.317   1.009
 3780WAT     H111859   2.452   6.269   1.038
 3780WAT     H211860   2.594   6.249   0.992
 3781WAT      O11861   1.931   6.349   1.097
 3781WAT     H111862   1.848   6.323   1.137
 3781WAT     H211863   1.992   6.356   1.171
 3782WAT      O11864   1.772   5.845   0.475
 3782WAT     H111865   1.683   5.879   0.465
 3782WAT     H211866   1.800   5.825   0.386
 3783WAT      O11867   1.568   6.105   1.064
 3783WAT     H111868   1.625   6.028   1.064
 3783WAT     H211869   1.568   6.135   0.973
 3784WAT      O11870   2.473   6.585   1.010
 3784WAT     H111871   2.466   6.491   0.994
 3784WAT     H211872   2.549   6.594   1.067
 3785WAT      O11873   1.692   5.645   1.243
 3785WAT     H111874   1.674   5.556   1.271
 3785WAT     H211875   1.652   5.700   1.310
 3786WAT      O11876   2.576   5.866   1.033
 3786WAT     H111877   2.614   5.778   1.021
 3786WAT     H211878   2.567   5.899   0.944
 3787WAT      O11879   1.989   5.703   0.579
 3787WAT     H111880   2.000   5.793   0.610
 3787WAT     H211881   1.898   5.698   0.550
 3788WAT      O11882   2.955   5.615   0.726
 3788WAT     H111883   3.037   5.566   0.730
 3788WAT     H211884   2.958   5.674   0.801
 3789WAT      O11885   1.754   5.895   1.103
 3789WAT     H111886   1.822   5.921   1.165
 3789WAT     H211887   1.723   5.811   1.137
 3790WAT      O11888   2.173   6.000   1.012
 3790WAT     H111889   2.224   6.050   1.076
 3790WAT     H211890   2.227   5.922   0.995
 3791WAT      O11891   3.384   5.817   1.382
 3791WAT     H111892   3.313   5.856   1.331
 3791WAT     H211893   3.410   5.886   1.443
 3792WAT      O11894   2.002   5.464   1.439
 3792WAT     H111895   2.002   5.515   1.358
 3792WAT     H211896   1.919   5.416   1.436
 3793WAT      O11897   2.641   6.475   0.589
 3793WAT     H111898   2.579   6.521   0.532
 3793WAT     H211899   2.692   6.544   0.630
 3794WAT      O11900   2.127   6.428   1.256
 3794WAT     H111901   2.094   6.490   1.321
 3794WAT     H211902   2.145   6.480   1.179
 3795WAT      O11903   2.978   5.809   1.003
 3795WAT     H111904   2.908   5.838   1.061
 3795WAT     H211905   3.014   5.890   0.967
 3796WAT      O11906   1.970   5.635   1.239
 3796WAT     H111907   2.004   5.719   1.210
 3796WAT     H211908   1.876   5.650   1.251
 3797WAT      O11909   1.577   6.543   0.326
 3797WAT     H111910   1.540   6.592   0.253
 3797WAT     H211911   1.603   6.611   0.389
 3798WAT      O11912   3.285   5.754   1.042
 3798WAT     H111913   3.190   5.757   1.056
 3798WAT     H211914   3.318   5.835   1.081
 3799WAT      O11915   2.338   5.384   0.872
 3799WAT     H111916   2.369   5.328   0.800
 3799WAT     H211917   2.245   5.397   0.854
 3800WAT      O11918   2.833   6.446   1.234
 3800WAT     H111919   2.875   6.424   1.150
 3800WAT     H211920   2.906   6.471   1.291
 3801WAT      O11921   2.577   6.190   0.546
 3801WAT     H111922   2.484   6.184   0.568
 3801WAT     H211923   2.592   6.284   0.534
 3802WAT      O11924   2.576   5.817   0.245
 3802WAT     H111925   2.482   5.833   0.254
 3802WAT     H211926   2.608   5.889   0.191
 3803WAT      O11927   3.228   6.285   1.243
 3803WAT     H111928   3.145   6.292   1.195
 3803WAT     H211929   3.287   6.344   1.196
 3804WAT      O11930   2.980   6.346   0.596
 3804WAT     H111931   2.918   6.313   0.531
 3804WAT     H211932   2.978   6.282   0.667
 3805WAT      O11933   2.924   5.964   1.338
 3805WAT     H111934   2.883   6.047   1.363
 3805WAT     H211935   2.851   5.906   1.318
 3806WAT      O11936   2.138   6.243   0.824
 3806WAT     H111937   2.097   6.172   0.774
 3806WAT     H211938   2.146   6.208   0.913
 3807WAT      O11939   2.184   6.611   1.040
 3807WAT     H111940   2.155   6.551   0.972
 3807WAT     H211941   2.279   6.615   1.029
 3808WAT      O11942   2.009   5.920   1.202
 3808WAT     H111943   2.064   5.931   1.124
 3808WAT     H211944   2.060   5.958   1.273
 3809WAT      O11945   2.094   6.585   1.705
 3809WAT     H111946   2.004   6.608   1.730
 3809WAT     H211947   2.096   6.598   1.610
 3810WAT      O11948   2.798   6.270   0.297
 3810WAT     H111949   2.842   6.186   0.282
 3810WAT     H211950   2.869   6.334   0.305
 3811WAT      O11951   1.976   6.272   1.563
 3811WAT     H111952   1.962   6.360   1.600
 3811WAT     H211953   1.888   6.238   1.548
 3812WAT      O11954   1.808   6.132   0.574
 3812WAT     H111955   1.796   6.205   0.513
 3812WAT     H211956   1.777   6.055   0.526
 3813WAT      O11957   1.572   6.449   1.154
 3813WAT     H111958   1.579   6.463   1.060
 3813WAT     H211959   1.633   6.379   1.174
 3814WAT      O11960   1.696   6.619   0.796
 3814WAT     H111961   1.655   6.634   0.710
 3814WAT     H211962   1.785   6.591   0.775
 3815WAT      O11963   3.277   5.869   1.726
 3815WAT     H111964   3.215   5.920   1.673
 3815WAT     H211965   3.245   5.779   1.720
 3816WAT      O11966   1.577   6.554   1.408
 3816WAT     H111967   1.593   6.507   1.327
 3816WAT     H211968   1.624   6.503   1.475
 3817WAT      O11969   2.054   5.467   0.912
 3817WAT     H111970   2.010   5.545   0.879
 3817WAT     H211971   2.110   5.499   0.983
 3818WAT      O11972   2.483   5.753   1.472
 3818WAT     H111973   2.437   5.774   1.554
 3818WAT     H211974   2.443   5.672   1.442
 3819WAT      O11975   2.983   5.875   1.585
 3819WAT     H111976   2.898   5.845   1.617
 3819WAT     H211977   2.967   5.900   1.494
 3820WAT      O11978   2.693   6.025   1.795
 3820WAT     H111979   2.725   5.942   1.761
 3820WAT     H211980   2.771   6.078   1.810
 3821WAT      O11981   2.366   5.429   0.400
 3821WAT     H111982   2.303   5.428   0.473
 3821WAT     H211983   2.357   5.342   0.360
 3822WAT      O11984   2.258   5.521   1.098
 3822WAT     H111985   2.288   5.612   1.090
 3822WAT     H211986   2.313   5.472   1.037
 3823WAT      O11987   2.033   5.979   0.685
 3823WAT     H111988   2.011   5.957   0.775
 3823WAT     H211989   1.955   6.022   0.650
 3824WAT      O11990   2.756   5.980   0.545
 3824WAT     H111991   2.697   6.052   0.526
 3824WAT     H211992   2.811   5.973   0.466
 3825WAT      O11993   2.277   6.069   1.751
 3825WAT     H111994   2.268   5.975   1.736
 3825WAT     H211995   2.362   6.091   1.712
 3826WAT      O11996   2.617   5.843   0.748
 3826WAT     H111997   2.656   5.875   0.666
 3826WAT     H211998   2.653   5.755   0.759
 3827WAT      O11999   1.791   5.710   1.567
 3827WAT     H112000   1.751   5.795   1.587
 3827WAT     H212001   1.722   5.646   1.586
 3828WAT      O12002   2.448   5.718   1.874
 3828WAT     H112003   2.379   5.699   1.937
 3828WAT     H212004   2.522   5.747   1.927
 3829WAT      O12005   1.521   5.502   0.970
 3829WAT     H112006   1.492   5.559   1.041
 3829WAT     H212007   1.595   5.454   1.006
 3830WAT      O12008   2.676   6.102   1.157
 3830WAT     H112009   2.602   6.153   1.192
 3830WAT     H212010   2.636   6.021   1.127
 3831WAT      O12011   2.319   5.770   0.998
 3831WAT     H112012   2.320   5.726   0.913
 3831WAT     H212013   2.409   5.802   1.009
 3832WAT      O12014   1.904   5.758   0.894
 3832WAT     H112015   1.870   5.806   0.969
 3832WAT     H212016   1.828   5.713   0.858
 3833WAT      O12017   2.326   5.870   0.297
 3833WAT     H112018   2.338   5.866   0.392
 3833WAT     H212019   2.287   5.956   0.281
 3834WAT      O12020   2.722   5.648   1.098
 3834WAT     H112021   2.724   5.693   1.183
 3834WAT     H212022   2.697   5.558   1.120
 3835WAT      O12023   2.227   6.101   0.237
 3835WAT     H112024   2.170   6.056   0.174
 3835WAT     H212025   2.298   6.137   0.183
 3836WAT      O12026   3.065   5.389   1.682
 3836WAT     H112027   3.097   5.316   1.735
 3836WAT     H212028   3.068   5.357   1.592
 3837WAT      O12029   1.735   6.491   1.624
 3837WAT     H112030   1.696   6.427   1.684
 3837WAT     H212031   1.766   6.561   1.681
 3838WAT      O12032   2.350   6.176   1.172
 3838WAT     H112033   2.386   6.128   1.247
 3838WAT     H212034   2.331   6.263   1.207
 3839WAT      O12035   1.636   5.650   0.785
 3839WAT     H112036   1.607   5.614   0.869
 3839WAT     H212037   1.630   5.577   0.724
 3840WAT      O12038   2.128   6.080   1.404
 3840WAT     H112039   2.098   6.168   1.427
 3840WAT     H212040   2.224   6.086   1.408
 3841WAT      O12041   1.981   6.501   0.464
 3841WAT     H112042   1.904   6.446   0.448
 3841WAT     H212043   2.054   6.449   0.430
 3842WAT      O12044   3.057   6.400   1.043
 3842WAT     H112045   3.129   6.450   1.004
 3842WAT     H212046   3.037   6.332   0.979
 3843WAT      O12047   2.603   5.540   0.458
 3843WAT     H112048   2.522   5.490   0.450
 3843WAT     H212049   2.584   5.624   0.416
 3844WAT      O12050   2.595   6.407   1.632
 3844WAT     H112051   2.589   6.315   1.606
 3844WAT     H212052   2.532   6.417   1.703
 3845WAT      O12053   2.875   5.977   0.287
 3845WAT     H112054   2.964   6.008   0.270
 3845WAT     H212055   2.872   5.889   0.248
 3846WAT      O12056   1.986   6.467   0.828
 3846WAT     H112057   2.037   6.387   0.822
 3846WAT     H212058   1.941   6.461   0.912
 3847WAT      O12059   1.734   6.164   1.519
 3847WAT     H112060   1.698   6.230   1.578
 3847WAT     H212061   1.705   6.081   1.556
 3848WAT      O12062   2.054   6.210   1.807
 3848WAT     H112063   2.024   6.224   1.718
 3848WAT     H212064   2.131   6.154   1.798
 3849WAT      O12065   3.210   6.354   1.542
 3849WAT     H112066   3.137   6.413   1.522
 3849WAT     H212067   3.262   6.353   1.462
 3850WAT      O12068   2.763   6.526   0.891
 3850WAT     H112069   2.798   6.466   0.825
 3850WAT     H212070   2.674   6.494   0.909
 3851WAT      O12071   1.585   6.164   0.181
 3851WAT     H112072   1.672   6.192   0.210
 3851WAT     H212073   1.536   6.245   0.170
 3852WAT      O12074   2.302   6.303   0.593
 3852WAT     H112075   2.347   6.384   0.616
 3852WAT     H212076   2.266   6.271   0.677
 3853WAT      O12077   1.892   5.337   0.641
 3853WAT     H112078   1.879   5.336   0.736
 3853WAT     H212079   1.809   5.371   0.606
 3854WAT      O12080   1.592   5.513   1.587
 3854WAT     H112081   1.520   5.533   1.647
 3854WAT     H212082   1.634   5.435   1.624
 3855WAT      O12083   3.002   6.474   0.327
 3855WAT     H112084   2.973   6.520   0.405
 3855WAT     H212085   3.081   6.428   0.354
 3856WAT      O12086   1.784   6.346   0.394
 3856WAT     H112087   1.723   6.420   0.395
 3856WAT     H212088   1.831   6.355   0.312
 3857WAT      O12089   2.741   5.762   1.362
 3857WAT     H112090   2.778   5.680   1.395
 3857WAT     H212091   2.655   5.768   1.403
 3858WAT      O12092   3.078   5.658   0.443
 3858WAT     H112093   3.015   5.668   0.371
 3858WAT     H212094   3.028   5.680   0.522
 3859WAT      O12095   2.274   5.886   0.584
 3859WAT     H112096   2.204   5.932   0.628
 3859WAT     H212097   2.303   5.820   0.648
 3860WAT      O12098   2.437   6.027   1.384
 3860WAT     H112099   2.487   6.075   1.451
 3860WAT     H212100   2.451   5.935   1.405
 3861WAT      O12101   2.678   5.558   0.728
 3861WAT     H112102   2.665   5.560   0.633
 3861WAT     H212103   2.772   5.563   0.740
 3862WAT      O12104   2.095   5.716   0.322
 3862WAT     H112105   2.180   5.760   0.315
 3862WAT     H212106   2.058   5.748   0.404
 3863WAT      O12107   3.158   5.649   1.468
 3863WAT     H112108   3.107   5.723   1.502
 3863WAT     H212109   3.239   5.688   1.437
 3864WAT      O12110   2.987   6.173   0.813
 3864WAT     H112111   2.893   6.175   0.830
 3864WAT     H212112   3.018   6.095   0.858
 3865WAT      O12113   1.854   6.085   0.237
 3865WAT     H112114   1.862   5.990   0.249
 3865WAT     H212115   1.943   6.118   0.248
 3866WAT      O12116   2.719   6.629   1.861
 3866WAT     H112117   2.658   6.631   1.787
 3866WAT     H212118   2.688   6.556   1.915
 3867WAT      O12119   1.607   6.267   1.761
 3867WAT     H112120   1.657   6.209   1.818
 3867WAT     H212121   1.533   6.295   1.815
 3868WAT      O12122   2.312   6.408   1.714
 3868WAT     H112123   2.236   6.465   1.706
 3868WAT     H212124   2.330   6.379   1.625
 3869WAT      O12125   2.621   6.445   0.177
 3869WAT     H112126   2.566   6.490   0.241
 3869WAT     H212127   2.683   6.395   0.229
 3870WAT      O12128   3.027   6.581   1.770
 3870WAT     H112129   3.101   6.615   1.720
 3870WAT     H212130   2.950   6.598   1.715
 3871WAT      O12131   1.810   6.081   1.850
 3871WAT     H112132   1.814   6.052   1.941
 3871WAT     H212133   1.896   6.121   1.835
 3872WAT      O12134   2.188   6.341   0.366
 3872WAT     H112135   2.230   6.325   0.451
 3872WAT     H212136   2.200   6.260   0.317
 3873WAT      O12137   2.004   5.939   1.647
 3873WAT     H112138   1.951   5.890   1.584
 3873WAT     H212139   2.071   5.982   1.594
 3874WAT      O12140   2.894   6.386   1.624
 3874WAT     H112141   2.935   6.401   1.709
 3874WAT     H212142   2.800   6.399   1.640
 3875WAT      O12143   2.941   6.120   1.824
 3875WAT     H112144   2.999   6.044   1.815
 3875WAT     H212145   2.959   6.173   1.746
 3876WAT      O12146   2.053   5.636   1.655
 3876WAT     H112147   2.043   5.574   1.583
 3876WAT     H212148   1.995   5.709   1.632
 3877WAT      O12149   2.330   5.492   1.358
 3877WAT     H112150   2.285   5.494   1.274
 3877WAT     H212151   2.266   5.452   1.418
 3878WAT      O12152   2.370   6.381   1.421
 3878WAT     H112153   2.412   6.466   1.403
 3878WAT     H212154   2.278   6.395   1.398
 3879WAT      O12155   2.604   6.154   1.559
 3879WAT     H112156   2.616   6.095   1.633
 3879WAT     H212157   2.690   6.158   1.517
 3880WAT      O12158   2.838   6.210   1.417
 3880WAT     H112159   2.785   6.262   1.356
 3880WAT     H212160   2.872   6.273   1.480
 3881WAT      O12161   2.280   5.809   1.685
 3881WAT     H112162   2.339   5.778   1.753
 3881WAT     H212163   2.199   5.761   1.700
 3882WAT      O12164   2.762   5.770   1.708
 3882WAT     H112165   2.694   5.704   1.702
 3882WAT     H212166   2.834   5.726   1.753
 3883WAT      O12167   2.825   5.430   0.314
 3883WAT     H112168   2.853   5.345   0.350
 3883WAT     H212169   2.748   5.453   0.365
 3884WAT      O12170   3.263   6.354   0.375
 3884WAT     H112171   3.339   6.410   0.386
 3884WAT     H212172   3.265   6.297   0.452
 3885WAT      O12173   1.613   6.206   0.798
 3885WAT     H112174   1.548   6.179   0.734
 3885WAT     H212175   1.697   6.195   0.753
 3886WAT      O12176   3.364   6.439   0.859
 3886WAT     H112177   3.401   6.361   0.819
 3886WAT     H212178   3.428   6.508   0.842
 3887WAT      O12179   3.062   6.577   1.401
 3887WAT     H112180   2.981   6.620   1.427
 3887WAT     H212181   3.103   6.639   1.339
 3888WAT      O12182   3.258   6.177   0.590
 3888WAT     H112183   3.220   6.100   0.547
 3888WAT     H212184   3.185   6.215   0.639
 3889WAT      O12185   1.717   6.244   1.252
 3889WAT     H112186   1.754   6.236   1.340
 3889WAT     H212187   1.660   6.168   1.242
 3890WAT      O12188   3.197   6.091   1.553
 3890WAT     H112189   3.174   6.068   1.463
 3890WAT     H212190   3.223   6.183   1.549
 3891WAT      O12191   1.672   5.936   1.643
 3891WAT     H112192   1.583   5.932   1.677
 3891WAT     H212193   1.726   5.955   1.719
 3892WAT      O12194   3.041   5.614   1.831
 3892WAT     H112195   3.129   5.615   1.870
 3892WAT     H212196   3.042   5.540   1.770
 3893WAT      O12197   1.535   5.927   0.392
 3893WAT     H112198   1.444   5.953   0.375
 3893WAT     H212199   1.583   5.954   0.314
 3894WAT      O12200   3.186   5.999   0.920
 3894WAT     H112201   3.238   5.950   0.857
 3894WAT     H212202   3.244   6.013   0.995
 3895WAT      O12203   3.203   6.008   1.272
 3895WAT     H112204   3.108   6.004   1.284
 3895WAT     H212205   3.222   6.099   1.249
 3896WAT      O12206   3.135   5.925   0.514
 3896WAT     H112207   3.184   5.902   0.592
 3896WAT     H212208   3.115   5.841   0.472
 3897WAT      O12209   1.723   5.363   1.077
 3897WAT     H112210   1.787   5.308   1.033
 3897WAT     H212211   1.765   5.388   1.160
 3898WAT      O12212   3.277   5.788   0.767
 3898WAT     H112213   3.266   5.773   0.861
 3898WAT     H212214   3.354   5.736   0.743
 3899WAT      O12215   3.112   5.382   1.413
 3899WAT     H112216   3.176   5.444   1.450
 3899WAT     H212217   3.127   5.386   1.319
 3900WAT      O12218   3.374   5.649   0.354
 3900WAT     H112219   3.294   5.642   0.407
 3900WAT     H212220   3.394   5.742   0.353
 3901WAT      O12221   1.698   5.379   1.352
 3901WAT     H112222   1.663   5.424   1.428
 3901WAT     H212223   1.665   5.289   1.360
 3902WAT      O12224   2.449   5.498   1.704
 3902WAT     H112225   2.443   5.557   1.779
 3902WAT     H212226   2.543   5.487   1.689
 3903WAT      O12227   2.713   5.463   1.668
 3903WAT     H112228   2.774   5.495   1.602
 3903WAT     H212229   2.767   5.415   1.730
 3904WAT      O12230   1.765   5.331   1.679
 3904WAT     H112231   1.820   5.313   1.603
 3904WAT     H212232   1.772   5.252   1.733
 3905WAT      O12233   2.787   5.320   1.301
 3905WAT     H112234   2.700   5.353   1.280
 3905WAT     H212235   2.776   5.272   1.383
 3906WAT      O12236   2.878   5.540   1.439
 3906WAT     H112237   2.845   5.459   1.401
 3906WAT     H212238   2.972   5.536   1.427
 3907WAT      O12239   2.562   5.411   1.194
 3907WAT     H112240   2.483   5.459   1.222
 3907WAT     H212241   2.532   5.321   1.184
 3908WAT      O12242   3.017   5.482   0.999
 3908WAT     H112243   3.061   5.476   0.914
 3908WAT     H212244   2.990   5.573   1.006
 3909WAT      O12245   3.203   5.445   0.800
 3909WAT     H112246   3.197   5.350   0.785
 3909WAT     H212247   3.281   5.456   0.855
 3910WAT      O12248   1.696   5.442   0.447
 3910WAT     H112249   1.772   5.453   0.389
 3910WAT     H212250   1.650   5.526   0.442
 3911WAT      O12251   2.350   5.653   0.746
 3911WAT     H112252   2.269   5.616   0.712
 3911WAT     H212253   2.401   5.578   0.776
 3912WAT      O12254   2.800   5.320   0.869
 3912WAT     H112255   2.861   5.377   0.917
 3912WAT     H212256   2.726   5.376   0.847
 3913WAT      O12257   3.115   5.360   0.397
 3913WAT     H112258   3.134   5.450   0.424
 3913WAT     H212259   3.036   5.337   0.446
 3914WAT      O12260   1.933   5.495   0.301
 3914WAT     H112261   1.986   5.416   0.288
 3914WAT     H212262   1.997   5.562   0.324
 3915WAT      O12263   2.153   5.468   0.606
 3915WAT     H112264   2.090   5.398   0.623
 3915WAT     H212265   2.099   5.544   0.584
 3916WAT      O12266   2.165   5.396   1.850
 3916WAT     H112267   2.137   5.446   1.773
 3916WAT     H212268   2.203   5.316   1.813
 3917WAT      O12269   2.825   5.338   1.907
 3917WAT     H112270   2.814   5.370   1.997
 3917WAT     H212271   2.907   5.378   1.878
 3918WAT      O12272   2.716   4.262   4.576
 3918WAT     H112273   2.708   4.171   4.549
 3918WAT     H212274   2.675   4.312   4.505
 3919WAT      O12275   2.529   4.440   4.764
 3919WAT     H112276   2.452   4.392   4.793
 3919WAT     H212277   2.594   4.372   4.747
 3920WAT      O12278   1.931   4.471   4.852
 3920WAT     H112279   1.848   4.446   4.892
 3920WAT     H212280   1.992   4.478   4.926
 3921WAT      O12281   2.931   4.881   4.642
 3921WAT     H112282   2.885   4.803   4.675
 3921WAT     H212283   3.013   4.883   4.693
 3922WAT      O12284   1.929   4.875   4.872
 3922WAT     H112285   1.959   4.785   4.854
 3922WAT     H212286   2.003   4.930   4.849
 3923WAT      O12287   1.772   3.967   4.230
 3923WAT     H112288   1.683   4.001   4.220
 3923WAT     H212289   1.800   3.947   4.141
 3924WAT      O12290   1.568   4.227   4.819
 3924WAT     H112291   1.625   4.150   4.819
 3924WAT     H212292   1.568   4.257   4.728
 3925WAT      O12293   2.554   5.109   4.604
 3925WAT     H112294   2.492   5.155   4.547
 3925WAT     H212295   2.639   5.125   4.564
 3926WAT      O12296   2.473   4.707   4.765
 3926WAT     H112297   2.466   4.613   4.749
 3926WAT     H212298   2.549   4.717   4.822
 3927WAT      O12299   1.692   3.768   4.997
 3927WAT     H112300   1.674   3.678   5.025
 3927WAT     H212301   1.652   3.823   5.065
 3928WAT      O12302   2.576   3.988   4.788
 3928WAT     H112303   2.614   3.901   4.776
 3928WAT     H212304   2.567   4.022   4.698
 3929WAT      O12305   1.989   3.825   4.334
 3929WAT     H112306   2.000   3.915   4.364
 3929WAT     H212307   1.898   3.821   4.305
 3930WAT      O12308   2.955   3.738   4.481
 3930WAT     H112309   3.037   3.689   4.485
 3930WAT     H212310   2.958   3.797   4.556
 3931WAT      O12311   1.754   4.018   4.858
 3931WAT     H112312   1.822   4.044   4.920
 3931WAT     H212313   1.723   3.934   4.892
 3932WAT      O12314   2.173   4.122   4.767
 3932WAT     H112315   2.224   4.172   4.831
 3932WAT     H212316   2.227   4.045   4.749
 3933WAT      O12317   3.384   3.939   5.137
 3933WAT     H112318   3.313   3.978   5.085
 3933WAT     H212319   3.410   4.009   5.197
 3934WAT      O12320   2.002   3.586   5.194
 3934WAT     H112321   2.002   3.638   5.113
 3934WAT     H212322   1.919   3.539   5.191
 3935WAT      O12323   2.641   4.597   4.344
 3935WAT     H112324   2.579   4.644   4.287
 3935WAT     H212325   2.692   4.667   4.385
 3936WAT      O12326   2.127   4.550   5.011
 3936WAT     H112327   2.094   4.613   5.076
 3936WAT     H212328   2.145   4.603   4.933
 3937WAT      O12329   2.978   3.932   4.758
 3937WAT     H112330   2.908   3.961   4.816
 3937WAT     H212331   3.014   4.013   4.722
 3938WAT      O12332   1.970   3.757   4.994
 3938WAT     H112333   2.004   3.842   4.965
 3938WAT     H212334   1.876   3.772   5.006
 3939WAT      O12335   2.048   4.747   5.193
 3939WAT     H112336   2.110   4.815   5.165
 3939WAT     H212337   1.962   4.788   5.184
 3940WAT      O12338   1.577   4.666   4.081
 3940WAT     H112339   1.540   4.715   4.008
 3940WAT     H212340   1.603   4.733   4.144
 3941WAT      O12341   3.140   4.893   4.984
 3941WAT     H112342   3.071   4.960   4.984
 3941WAT     H212343   3.194   4.913   4.908
 3942WAT      O12344   3.285   3.876   4.797
 3942WAT     H112345   3.190   3.880   4.810
 3942WAT     H212346   3.318   3.958   4.836
 3943WAT      O12347   2.338   3.506   4.627
 3943WAT     H112348   2.369   3.451   4.555
 3943WAT     H212349   2.245   3.520   4.609
 3944WAT      O12350   2.893   5.078   4.856
 3944WAT     H112351   2.895   5.038   4.769
 3944WAT     H212352   2.838   5.155   4.845
 3945WAT      O12353   3.023   4.750   4.365
 3945WAT     H112354   3.012   4.656   4.377
 3945WAT     H212355   3.023   4.786   4.453
 3946WAT      O12356   2.833   4.568   4.989
 3946WAT     H112357   2.875   4.547   4.905
 3946WAT     H212358   2.906   4.594   5.046
 3947WAT      O12359   2.577   4.313   4.300
 3947WAT     H112360   2.484   4.306   4.323
 3947WAT     H212361   2.592   4.407   4.289
 3948WAT      O12362   3.228   4.408   4.998
 3948WAT     H112363   3.145   4.415   4.950
 3948WAT     H212364   3.287   4.467   4.951
 3949WAT      O12365   2.980   4.469   4.351
 3949WAT     H112366   2.918   4.435   4.286
 3949WAT     H212367   2.978   4.405   4.422
 3950WAT      O12368   2.924   4.087   5.092
 3950WAT     H112369   2.883   4.169   5.118
 3950WAT     H212370   2.851   4.028   5.073
 3951WAT      O12371   2.138   4.365   4.579
 3951WAT     H112372   2.097   4.294   4.529
 3951WAT     H212373   2.146   4.331   4.667
 3952WAT      O12374   2.184   4.734   4.795
 3952WAT     H112375   2.155   4.673   4.727
 3952WAT     H212376   2.279   4.738   4.784
 3953WAT      O12377   2.009   4.043   4.957
 3953WAT     H112378   2.064   4.054   4.879
 3953WAT     H212379   2.060   4.080   5.028
 3954WAT      O12380   2.993   5.091   5.161
 3954WAT     H112381   2.946   5.172   5.142
 3954WAT     H212382   2.925   5.026   5.176
 3955WAT      O12383   2.094   4.708   5.460
 3955WAT     H112384   2.004   4.730   5.485
 3955WAT     H212385   2.096   4.720   5.365
 3956WAT      O12386   1.976   4.395   5.318
 3956WAT     H112387   1.962   4.482   5.354
 3956WAT     H212388   1.888   4.361   5.303
 3957WAT      O12389   2.609   4.887   4.448
 3957WAT     H112390   2.653   4.961   4.407
 3957WAT     H212391   2.603   4.911   4.541
 3958WAT      O12392   2.156   4.989   5.538
 3958WAT     H112393   2.153   5.030   5.452
 3958WAT     H212394   2.140   4.896   5.522
 3959WAT      O12395   1.808   4.255   4.329
 3959WAT     H112396   1.796   4.327   4.267
 3959WAT     H212397   1.777   4.178   4.281
 3960WAT      O12398   1.572   4.572   4.909
 3960WAT     H112399   1.579   4.585   4.815
 3960WAT     H212400   1.633   4.501   4.929
 3961WAT      O12401   1.696   4.742   4.550
 3961WAT     H112402   1.655   4.756   4.465
 3961WAT     H212403   1.785   4.714   4.530
 3962WAT      O12404   3.292   4.787   5.384
 3962WAT     H112405   3.304   4.763   5.292
 3962WAT     H212406   3.296   4.703   5.431
 3963WAT      O12407   2.678   5.157   5.241
 3963WAT     H112408   2.729   5.148   5.321
 3963WAT     H212409   2.594   5.191   5.270
 3964WAT      O12410   2.875   5.185   4.184
 3964WAT     H112411   2.859   5.156   4.274
 3964WAT     H212412   2.859   5.108   4.130
 3965WAT      O12413   2.123   5.163   4.362
 3965WAT     H112414   2.106   5.072   4.340
 3965WAT     H212415   2.038   5.199   4.386
 3966WAT      O12416   2.846   4.936   4.040
 3966WAT     H112417   2.776   4.936   3.974
 3966WAT     H212418   2.920   4.894   3.997
 3967WAT      O12419   2.802   5.099   4.447
 3967WAT     H112420   2.848   5.021   4.479
 3967WAT     H212421   2.836   5.170   4.502
 3968WAT      O12422   3.277   3.992   5.481
 3968WAT     H112423   3.215   4.043   5.428
 3968WAT     H212424   3.245   3.902   5.475
 3969WAT      O12425   1.577   4.676   5.163
 3969WAT     H112426   1.593   4.629   5.081
 3969WAT     H212427   1.624   4.625   5.230
 3970WAT      O12428   2.054   3.589   4.667
 3970WAT     H112429   2.010   3.667   4.634
 3970WAT     H212430   2.110   3.621   4.738
 3971WAT      O12431   2.483   3.876   5.227
 3971WAT     H112432   2.437   3.897   5.308
 3971WAT     H212433   2.443   3.794   5.197
 3972WAT      O12434   2.983   3.998   5.340
 3972WAT     H112435   2.898   3.968   5.372
 3972WAT     H212436   2.967   4.022   5.249
 3973WAT      O12437   2.693   4.148   5.550
 3973WAT     H112438   2.725   4.065   5.516
 3973WAT     H212439   2.771   4.200   5.565
 3974WAT      O12440   2.366   3.551   4.155
 3974WAT     H112441   2.303   3.551   4.227
 3974WAT     H212442   2.357   3.465   4.115
 3975WAT      O12443   2.258   3.644   4.853
 3975WAT     H112444   2.288   3.734   4.845
 3975WAT     H212445   2.313   3.595   4.791
 3976WAT      O12446   2.033   4.101   4.440
 3976WAT     H112447   2.011   4.080   4.530
 3976WAT     H212448   1.955   4.145   4.405
 3977WAT      O12449   2.756   4.102   4.300
 3977WAT     H112450   2.697   4.174   4.281
 3977WAT     H212451   2.811   4.096   4.221
 3978WAT      O12452   2.277   4.191   5.506
 3978WAT     H112453   2.268   4.097   5.491
 3978WAT     H212454   2.362   4.213   5.467
 3979WAT      O12455   2.617   3.966   4.503
 3979WAT     H112456   2.656   3.997   4.421
 3979WAT     H212457   2.653   3.878   4.514
 3980WAT      O12458   1.791   3.832   5.322
 3980WAT     H112459   1.751   3.917   5.342
 3980WAT     H212460   1.722   3.769   5.341
 3981WAT      O12461   1.521   3.625   4.725
 3981WAT     H112462   1.492   3.682   4.796
 3981WAT     H212463   1.595   3.577   4.761
 3982WAT      O12464   1.539   4.019   3.846
 3982WAT     H112465   1.531   4.113   3.860
 3982WAT     H212466   1.504   4.005   3.758
 3983WAT      O12467   2.676   4.225   4.912
 3983WAT     H112468   2.602   4.276   4.947
 3983WAT     H212469   2.636   4.143   4.882
 3984WAT      O12470   2.319   3.892   4.753
 3984WAT     H112471   2.320   3.848   4.668
 3984WAT     H212472   2.409   3.925   4.763
 3985WAT      O12473   1.904   3.881   4.649
 3985WAT     H112474   1.870   3.928   4.724
 3985WAT     H212475   1.828   3.835   4.613
 3986WAT      O12476   2.722   3.770   4.853
 3986WAT     H112477   2.724   3.815   4.938
 3986WAT     H212478   2.697   3.680   4.875
 3987WAT      O12479   3.065   3.511   5.437
 3987WAT     H112480   3.097   3.438   5.490
 3987WAT     H212481   3.068   3.480   5.347
 3988WAT      O12482   1.735   4.614   5.379
 3988WAT     H112483   1.696   4.550   5.439
 3988WAT     H212484   1.766   4.684   5.436
 3989WAT      O12485   2.350   4.298   4.927
 3989WAT     H112486   2.386   4.251   5.002
 3989WAT     H212487   2.331   4.386   4.961
 3990WAT      O12488   1.636   3.773   4.540
 3990WAT     H112489   1.607   3.736   4.624
 3990WAT     H212490   1.630   3.700   4.479
 3991WAT      O12491   2.128   4.202   5.159
 3991WAT     H112492   2.098   4.290   5.182
 3991WAT     H212493   2.224   4.208   5.163
 3992WAT      O12494   1.981   4.623   4.219
 3992WAT     H112495   1.904   4.569   4.203
 3992WAT     H212496   2.054   4.571   4.185
 3993WAT      O12497   3.057   4.523   4.798
 3993WAT     H112498   3.129   4.572   4.759
 3993WAT     H212499   3.037   4.455   4.734
 3994WAT      O12500   2.603   3.662   4.212
 3994WAT     H112501   2.522   3.612   4.205
 3994WAT     H212502   2.584   3.746   4.171
 3995WAT      O12503   2.595   4.530   5.387
 3995WAT     H112504   2.589   4.438   5.361
 3995WAT     H212505   2.532   4.540   5.458
 3996WAT      O12506   1.986   4.590   4.583
 3996WAT     H112507   2.037   4.510   4.577
 3996WAT     H212508   1.941   4.584   4.667
 3997WAT      O12509   2.474   4.717   4.110
 3997WAT     H112510   2.509   4.791   4.060
 3997WAT     H212511   2.392   4.748   4.146
 3998WAT      O12512   1.734   4.286   5.274
 3998WAT     H112513   1.698   4.353   5.333
 3998WAT     H212514   1.705   4.203   5.311
 3999WAT      O12515   2.054   4.332   5.562
 3999WAT     H112516   2.024   4.347   5.473
 3999WAT     H212517   2.131   4.276   5.553
 4000WAT      O12518   2.589   4.812   5.362
 4000WAT     H112519   2.590   4.719   5.340
 4000WAT     H212520   2.518   4.821   5.426
 4001WAT      O12521   3.210   4.476   5.297
 4001WAT     H112522   3.137   4.535   5.277
 4001WAT     H212523   3.262   4.475   5.217
 4002WAT      O12524   3.205   4.916   4.262
 4002WAT     H112525   3.141   4.850   4.289
 4002WAT     H212526   3.166   4.956   4.184
 4003WAT      O12527   2.763   4.649   4.646
 4003WAT     H112528   2.798   4.589   4.580
 4003WAT     H212529   2.674   4.616   4.663
 4004WAT      O12530   2.371   4.725   4.387
 4004WAT     H112531   2.440   4.779   4.425
 4004WAT     H212532   2.293   4.779   4.391
 4005WAT      O12533   1.585   4.286   3.936
 4005WAT     H112534   1.672   4.315   3.965
 4005WAT     H212535   1.536   4.368   3.925
 4006WAT      O12536   2.302   4.425   4.348
 4006WAT     H112537   2.347   4.506   4.371
 4006WAT     H212538   2.266   4.393   4.431
 4007WAT      O12539   2.532   4.976   5.071
 4007WAT     H112540   2.596   4.997   5.139
 4007WAT     H212541   2.568   4.900   5.026
 4008WAT      O12542   1.892   3.460   4.396
 4008WAT     H112543   1.879   3.459   4.490
 4008WAT     H212544   1.809   3.493   4.360
 4009WAT      O12545   2.659   4.777   4.943
 4009WAT     H112546   2.723   4.706   4.954
 4009WAT     H212547   2.712   4.855   4.925
 4010WAT      O12548   3.044   4.805   3.915
 4010WAT     H112549   3.021   4.733   3.975
 4010WAT     H212550   3.005   4.780   3.832
 4011WAT      O12551   2.837   4.856   5.263
 4011WAT     H112552   2.870   4.915   5.331
 4011WAT     H212553   2.745   4.843   5.286
 4012WAT      O12554   1.622   5.208   3.993
 4012WAT     H112555   1.658   5.268   3.927
 4012WAT     H212556   1.608   5.262   4.070
 4013WAT      O12557   1.592   3.635   5.342
 4013WAT     H112558   1.520   3.655   5.402
 4013WAT     H212559   1.634   3.558   5.379
 4014WAT      O12560   3.002   4.597   4.082
 4014WAT     H112561   2.973   4.643   4.160
 4014WAT     H212562   3.081   4.551   4.108
 4015WAT      O12563   1.620   5.034   5.440
 4015WAT     H112564   1.631   4.940   5.426
 4015WAT     H212565   1.555   5.061   5.375
 4016WAT      O12566   2.224   4.946   4.075
 4016WAT     H112567   2.223   5.019   4.013
 4016WAT     H212568   2.132   4.921   4.084
 4017WAT      O12569   1.784   4.468   4.149
 4017WAT     H112570   1.723   4.542   4.150
 4017WAT     H212571   1.831   4.477   4.066
 4018WAT      O12572   2.741   3.885   5.117
 4018WAT     H112573   2.778   3.803   5.149
 4018WAT     H212574   2.655   3.891   5.158
 4019WAT      O12575   3.078   3.780   4.197
 4019WAT     H112576   3.015   3.791   4.126
 4019WAT     H212577   3.028   3.802   4.276
 4020WAT      O12578   2.522   4.952   3.941
 4020WAT     H112579   2.532   4.932   3.848
 4020WAT     H212580   2.432   4.927   3.961
 4021WAT      O12581   2.274   4.008   4.339
 4021WAT     H112582   2.204   4.055   4.383
 4021WAT     H212583   2.303   3.942   4.403
 4022WAT      O12584   2.437   4.150   5.139
 4022WAT     H112585   2.487   4.198   5.206
 4022WAT     H212586   2.451   4.058   5.160
 4023WAT      O12587   2.678   3.681   4.483
 4023WAT     H112588   2.665   3.682   4.388
 4023WAT     H212589   2.772   3.685   4.495
 4024WAT      O12590   2.386   5.204   4.410
 4024WAT     H112591   2.412   5.200   4.318
 4024WAT     H212592   2.292   5.191   4.410
 4025WAT      O12593   2.095   3.839   4.077
 4025WAT     H112594   2.180   3.883   4.070
 4025WAT     H212595   2.058   3.870   4.159
 4026WAT      O12596   3.158   3.772   5.223
 4026WAT     H112597   3.107   3.846   5.257
 4026WAT     H212598   3.239   3.811   5.192
 4027WAT      O12599   2.987   4.296   4.568
 4027WAT     H112600   2.893   4.298   4.585
 4027WAT     H212601   3.018   4.217   4.612
 4028WAT      O12602   1.985   4.464   3.924
 4028WAT     H112603   2.061   4.453   3.980
 4028WAT     H212604   1.992   4.395   3.859
 4029WAT      O12605   1.854   4.208   3.992
 4029WAT     H112606   1.862   4.113   4.003
 4029WAT     H212607   1.943   4.241   4.003
 4030WAT      O12608   3.187   5.013   4.735
 4030WAT     H112609   3.200   5.095   4.783
 4030WAT     H212610   3.274   4.992   4.701
 4031WAT      O12611   1.934   5.222   4.703
 4031WAT     H112612   2.008   5.168   4.730
 4031WAT     H212613   1.973   5.309   4.689
 4032WAT      O12614   1.623   4.829   4.290
 4032WAT     H112615   1.530   4.853   4.289
 4032WAT     H212616   1.669   4.912   4.278
 4033WAT      O12617   2.245   5.140   3.885
 4033WAT     H112618   2.325   5.169   3.840
 4033WAT     H212619   2.193   5.097   3.817
 4034WAT      O12620   2.862   5.125   5.477
 4034WAT     H112621   2.957   5.116   5.472
 4034WAT     H212622   2.847   5.191   5.545
 4035WAT      O12623   3.151   5.062   4.027
 4035WAT     H112624   3.122   5.021   3.946
 4035WAT     H212625   3.131   5.155   4.015
 4036WAT      O12626   2.297   4.662   3.871
 4036WAT     H112627   2.287   4.600   3.944
 4036WAT     H212628   2.280   4.609   3.793
 4037WAT      O12629   2.312   4.530   5.469
 4037WAT     H112630   2.236   4.587   5.461
 4037WAT     H212631   2.330   4.501   5.380
 4038WAT      O12632   3.027   4.703   5.525
 4038WAT     H112633   3.101   4.737   5.475
 4038WAT     H212634   2.950   4.720   5.470
 4039WAT      O12635   2.188   4.464   4.121
 4039WAT     H112636   2.230   4.447   4.206
 4039WAT     H212637   2.200   4.383   4.072
 4040WAT      O12638   2.004   4.062   5.402
 4040WAT     H112639   1.951   4.013   5.339
 4040WAT     H212640   2.071   4.105   5.349
 4041WAT      O12641   2.894   4.509   5.378
 4041WAT     H112642   2.935   4.524   5.463
 4041WAT     H212643   2.800   4.521   5.395
 4042WAT      O12644   2.053   3.758   5.410
 4042WAT     H112645   2.043   3.697   5.338
 4042WAT     H212646   1.995   3.831   5.387
 4043WAT      O12647   2.330   3.614   5.113
 4043WAT     H112648   2.285   3.616   5.029
 4043WAT     H212649   2.266   3.574   5.173
 4044WAT      O12650   2.370   4.504   5.175
 4044WAT     H112651   2.412   4.588   5.158
 4044WAT     H212652   2.278   4.517   5.153
 4045WAT      O12653   2.604   4.277   5.314
 4045WAT     H112654   2.616   4.217   5.388
 4045WAT     H212655   2.690   4.281   5.272
 4046WAT      O12656   2.838   4.332   5.171
 4046WAT     H112657   2.785   4.385   5.111
 4046WAT     H212658   2.872   4.396   5.235
 4047WAT      O12659   2.078   4.071   3.816
 4047WAT     H112660   2.057   3.985   3.852
 4047WAT     H212661   2.060   4.063   3.722
 4048WAT      O12662   2.155   5.134   5.287
 4048WAT     H112663   2.101   5.207   5.255
 4048WAT     H212664   2.181   5.087   5.208
 4049WAT      O12665   2.280   3.931   5.440
 4049WAT     H112666   2.339   3.900   5.508
 4049WAT     H212667   2.199   3.884   5.455
 4050WAT      O12668   2.762   3.893   5.463
 4050WAT     H112669   2.694   3.827   5.456
 4050WAT     H212670   2.834   3.848   5.507
 4051WAT      O12671   2.825   3.552   4.069
 4051WAT     H112672   2.853   3.468   4.104
 4051WAT     H212673   2.748   3.576   4.120
 4052WAT      O12674   1.957   3.781   3.815
 4052WAT     H112675   1.988   3.782   3.724
 4052WAT     H212676   2.031   3.746   3.864
 4053WAT      O12677   2.441   5.258   5.313
 4053WAT     H112678   2.433   5.348   5.344
 4053WAT     H212679   2.351   5.226   5.310
 4054WAT      O12680   2.279   3.676   3.913
 4054WAT     H112681   2.244   3.608   3.855
 4054WAT     H212682   2.299   3.629   3.995
 4055WAT      O12683   2.496   5.174   4.075
 4055WAT     H112684   2.585   5.208   4.077
 4055WAT     H212685   2.499   5.102   4.012
 4056WAT      O12686   1.860   4.712   3.898
 4056WAT     H112687   1.903   4.766   3.964
 4056WAT     H212688   1.908   4.629   3.899
 4057WAT      O12689   1.581   4.991   4.643
 4057WAT     H112690   1.614   4.904   4.620
 4057WAT     H212691   1.624   5.011   4.726
 4058WAT      O12692   2.041   4.824   4.409
 4058WAT     H112693   2.011   4.811   4.499
 4058WAT     H212694   2.030   4.738   4.368
 4059WAT      O12695   1.630   5.077   4.917
 4059WAT     H112696   1.586   5.095   5.000
 4059WAT     H212697   1.687   5.153   4.903
 4060WAT      O12698   3.194   5.027   5.346
 4060WAT     H112699   3.134   5.033   5.271
 4060WAT     H212700   3.207   4.933   5.359
 4061WAT      O12701   3.318   4.802   3.880
 4061WAT     H112702   3.235   4.808   3.927
 4061WAT     H212703   3.335   4.891   3.849
 4062WAT      O12704   3.263   4.476   4.130
 4062WAT     H112705   3.339   4.533   4.140
 4062WAT     H212706   3.265   4.419   4.207
 4063WAT      O12707   1.613   4.328   4.553
 4063WAT     H112708   1.548   4.302   4.489
 4063WAT     H212709   1.697   4.318   4.508
 4064WAT      O12710   3.364   4.562   4.614
 4064WAT     H112711   3.401   4.483   4.574
 4064WAT     H212712   3.428   4.630   4.596
 4065WAT      O12713   3.062   4.700   5.156
 4065WAT     H112714   2.981   4.743   5.182
 4065WAT     H212715   3.103   4.761   5.094
 4066WAT      O12716   2.908   3.808   3.975
 4066WAT     H112717   2.950   3.789   3.891
 4066WAT     H212718   2.878   3.723   4.006
 4067WAT      O12719   3.258   4.299   4.345
 4067WAT     H112720   3.220   4.222   4.302
 4067WAT     H212721   3.185   4.337   4.394
 4068WAT      O12722   1.717   4.367   5.007
 4068WAT     H112723   1.754   4.358   5.095
 4068WAT     H212724   1.660   4.291   4.997
 4069WAT      O12725   3.197   4.214   5.308
 4069WAT     H112726   3.174   4.191   5.218
 4069WAT     H212727   3.223   4.306   5.304
 4070WAT      O12728   1.672   4.058   5.398
 4070WAT     H112729   1.583   4.055   5.431
 4070WAT     H212730   1.726   4.078   5.474
 4071WAT      O12731   1.535   4.049   4.147
 4071WAT     H112732   1.444   4.076   4.130
 4071WAT     H212733   1.583   4.077   4.069
 4072WAT      O12734   3.186   4.122   4.675
 4072WAT     H112735   3.238   4.072   4.612
 4072WAT     H212736   3.244   4.135   4.749
 4073WAT      O12737   3.203   4.130   5.027
 4073WAT     H112738   3.108   4.127   5.039
 4073WAT     H212739   3.222   4.221   5.004
 4074WAT      O12740   1.789   3.955   3.938
 4074WAT     H112741   1.860   3.913   3.890
 4074WAT     H212742   1.717   3.962   3.875
 4075WAT      O12743   1.754   3.561   3.842
 4075WAT     H112744   1.826   3.615   3.874
 4075WAT     H212745   1.781   3.533   3.755
 4076WAT      O12746   3.135   4.047   4.269
 4076WAT     H112747   3.184   4.024   4.347
 4076WAT     H212748   3.115   3.964   4.227
 4077WAT      O12749   1.723   3.486   4.832
 4077WAT     H112750   1.787   3.431   4.788
 4077WAT     H212751   1.765   3.511   4.915
 4078WAT      O12752   3.277   3.911   4.522
 4078WAT     H112753   3.266   3.896   4.616
 4078WAT     H212754   3.354   3.858   4.498
 4079WAT      O12755   3.112   3.505   5.168
 4079WAT     H112756   3.176   3.566   5.205
 4079WAT     H212757   3.127   3.509   5.074
 4080WAT      O12758   3.068   5.175   4.508
 4080WAT     H112759   3.127   5.143   4.441
 4080WAT     H212760   3.094   5.128   4.587
 4081WAT      O12761   1.698   3.501   5.107
 4081WAT     H112762   1.663   3.547   5.183
 4081WAT     H212763   1.665   3.412   5.115
 4082WAT      O12764   2.229   4.974   5.083
 4082WAT     H112765   2.204   5.001   4.995
 4082WAT     H212766   2.323   4.991   5.089
 4083WAT      O12767   2.449   3.620   5.459
 4083WAT     H112768   2.443   3.679   5.534
 4083WAT     H212769   2.543   3.609   5.444
 4084WAT      O12770   2.713   3.586   5.423
 4084WAT     H112771   2.774   3.618   5.357
 4084WAT     H212772   2.767   3.537   5.485
 4085WAT      O12773   3.355   5.176   5.163
 4085WAT     H112774   3.305   5.216   5.092
 4085WAT     H212775   3.294   5.113   5.203
 4086WAT      O12776   1.765   3.454   5.434
 4086WAT     H112777   1.820   3.436   5.358
 4086WAT     H212778   1.772   3.375   5.488
 4087WAT      O12779   1.842   5.113   5.235
 4087WAT     H112780   1.783   5.100   5.309
 4087WAT     H212781   1.842   5.029   5.189
 4088WAT      O12782   2.787   3.442   5.055
 4088WAT     H112783   2.700   3.476   5.035
 4088WAT     H212784   2.776   3.395   5.138
 4089WAT      O12785   2.878   3.663   5.194
 4089WAT     H112786   2.845   3.581   5.156
 4089WAT     H212787   2.972   3.659   5.182
 4090WAT      O12788   3.123   5.240   4.891
 4090WAT     H112789   3.077   5.315   4.854
 4090WAT     H212790   3.060   5.168   4.885
 4091WAT      O12791   1.806   4.850   5.130
 4091WAT     H112792   1.733   4.788   5.123
 4091WAT     H212793   1.812   4.889   5.043
 4092WAT      O12794   2.166   5.071   4.809
 4092WAT     H112795   2.218   5.010   4.756
 4092WAT     H212796   2.231   5.121   4.858
 4093WAT      O12797   2.440   5.160   4.891
 4093WAT     H112798   2.469   5.135   4.804
 4093WAT     H212799   2.491   5.105   4.950
 4094WAT      O12800   2.562   3.534   4.949
 4094WAT     H112801   2.483   3.581   4.977
 4094WAT     H212802   2.532   3.444   4.938
 4095WAT      O12803   3.017   3.604   4.754
 4095WAT     H112804   3.061   3.599   4.669
 4095WAT     H212805   2.990   3.696   4.761
 4096WAT      O12806   3.203   3.567   4.555
 4096WAT     H112807   3.197   3.473   4.540
 4096WAT     H212808   3.281   3.578   4.609
 4097WAT      O12809   1.634   5.181   4.451
 4097WAT     H112810   1.617   5.118   4.521
 4097WAT     H212811   1.547   5.202   4.416
 4098WAT      O12812   1.696   3.564   4.201
 4098WAT     H112813   1.772   3.576   4.144
 4098WAT     H212814   1.650   3.648   4.197
 4099WAT      O12815   2.350   3.776   4.501
 4099WAT     H112816   2.269   3.738   4.466
 4099WAT     H212817   2.401   3.700   4.531
 4100WAT      O12818   2.800   3.442   4.624
 4100WAT     H112819   2.861   3.499   4.672
 4100WAT     H212820   2.726   3.499   4.602
 4101WAT      O12821   3.115   3.482   4.152
 4101WAT     H112822   3.134   3.572   4.178
 4101WAT     H212823   3.036   3.459   4.201
 4102WAT      O12824   1.794   5.051   4.196
 4102WAT     H112825   1.742   5.089   4.125
 4102WAT     H212826   1.787   5.113   4.268
 4103WAT      O12827   1.933   3.617   4.056
 4103WAT     H112828   1.986   3.538   4.043
 4103WAT     H212829   1.997   3.685   4.079
 4104WAT      O12830   2.153   3.591   4.361
 4104WAT     H112831   2.090   3.521   4.378
 4104WAT     H212832   2.099   3.667   4.339
 4105WAT      O12833   3.270   5.206   4.328
 4105WAT     H112834   3.288   5.138   4.263
 4105WAT     H212835   3.200   5.259   4.289
 4106WAT      O12836   2.054   5.245   4.083
 4106WAT     H112837   2.128   5.217   4.028
 4106WAT     H212838   2.080   5.222   4.172
 4107WAT      O12839   1.971   4.857   4.084
 4107WAT     H112840   1.908   4.904   4.138
 4107WAT     H212841   1.982   4.773   4.127
 4108WAT      O12842   2.716   4.262   2.699
 4108WAT     H112843   2.708   4.171   2.672
 4108WAT     H212844   2.675   4.312   2.628
 4109WAT      O12845   2.529   4.440   2.887
 4109WAT     H112846   2.452   4.392   2.916
 4109WAT     H212847   2.594   4.372   2.869
 4110WAT      O12848   1.931   4.471   2.974
 4110WAT     H112849   1.848   4.446   3.014
 4110WAT     H212850   1.992   4.478   3.048
 4111WAT      O12851   2.931   4.881   2.765
 4111WAT     H112852   2.885   4.803   2.798
 4111WAT     H212853   3.013   4.883   2.815
 4112WAT      O12854   1.929   4.875   2.994
 4112WAT     H112855   1.959   4.785   2.976
 4112WAT     H212856   2.003   4.930   2.971
 4113WAT      O12857   1.772   3.967   2.353
 4113WAT     H112858   1.683   4.001   2.343
 4113WAT     H212859   1.800   3.947   2.264
 4114WAT      O12860   1.568   4.227   2.941
 4114WAT     H112861   1.625   4.150   2.941
 4114WAT     H212862   1.568   4.257   2.850
 4115WAT      O12863   2.554   5.109   2.727
 4115WAT     H112864   2.492   5.155   2.670
 4115WAT     H212865   2.639   5.125   2.687
 4116WAT      O12866   2.473   4.707   2.887
 4116WAT     H112867   2.466   4.613   2.871
 4116WAT     H212868   2.549   4.717   2.945
 4117WAT      O12869   1.692   3.768   3.120
 4117WAT     H112870   1.674   3.678   3.148
 4117WAT     H212871   1.652   3.823   3.187
 4118WAT      O12872   1.989   3.825   2.456
 4118WAT     H112873   2.000   3.915   2.487
 4118WAT     H212874   1.898   3.821   2.427
 4119WAT      O12875   1.754   4.018   2.981
 4119WAT     H112876   1.822   4.044   3.043
 4119WAT     H212877   1.723   3.934   3.014
 4120WAT      O12878   2.173   4.122   2.890
 4120WAT     H112879   2.224   4.172   2.954
 4120WAT     H212880   2.227   4.045   2.872
 4121WAT      O12881   2.002   3.586   3.316
 4121WAT     H112882   2.002   3.638   3.236
 4121WAT     H212883   1.919   3.539   3.314
 4122WAT      O12884   2.641   4.597   2.466
 4122WAT     H112885   2.579   4.644   2.410
 4122WAT     H212886   2.692   4.667   2.508
 4123WAT      O12887   2.127   4.550   3.134
 4123WAT     H112888   2.094   4.613   3.198
 4123WAT     H212889   2.145   4.603   3.056
 4124WAT      O12890   1.970   3.757   3.117
 4124WAT     H112891   2.004   3.842   3.087
 4124WAT     H212892   1.876   3.772   3.129
 4125WAT      O12893   2.048   4.747   3.315
 4125WAT     H112894   2.110   4.815   3.287
 4125WAT     H212895   1.962   4.788   3.306
 4126WAT      O12896   1.577   4.666   2.203
 4126WAT     H112897   1.540   4.715   2.130
 4126WAT     H212898   1.603   4.733   2.267
 4127WAT      O12899   2.893   5.078   2.978
 4127WAT     H112900   2.895   5.038   2.892
 4127WAT     H212901   2.838   5.155   2.968
 4128WAT      O12902   3.023   4.750   2.487
 4128WAT     H112903   3.012   4.656   2.500
 4128WAT     H212904   3.023   4.786   2.576
 4129WAT      O12905   2.577   4.313   2.423
 4129WAT     H112906   2.484   4.306   2.446
 4129WAT     H212907   2.592   4.407   2.411
 4130WAT      O12908   2.980   4.469   2.473
 4130WAT     H112909   2.918   4.435   2.409
 4130WAT     H212910   2.978   4.405   2.544
 4131WAT      O12911   2.138   4.365   2.701
 4131WAT     H112912   2.097   4.294   2.652
 4131WAT     H212913   2.146   4.331   2.790
 4132WAT      O12914   2.184   4.734   2.918
 4132WAT     H112915   2.155   4.673   2.850
 4132WAT     H212916   2.279   4.738   2.906
 4133WAT      O12917   2.009   4.043   3.079
 4133WAT     H112918   2.064   4.054   3.002
 4133WAT     H212919   2.060   4.080   3.151
 4134WAT      O12920   2.094   4.708   3.583
 4134WAT     H112921   2.004   4.730   3.607
 4134WAT     H212922   2.096   4.720   3.488
 4135WAT      O12923   2.798   4.393   2.174
 4135WAT     H112924   2.842   4.309   2.159
 4135WAT     H212925   2.869   4.456   2.183
 4136WAT      O12926   1.976   4.395   3.440
 4136WAT     H112927   1.962   4.482   3.477
 4136WAT     H212928   1.888   4.361   3.426
 4137WAT      O12929   2.609   4.887   2.571
 4137WAT     H112930   2.653   4.961   2.529
 4137WAT     H212931   2.603   4.911   2.663
 4138WAT      O12932   2.156   4.989   3.661
 4138WAT     H112933   2.153   5.030   3.574
 4138WAT     H212934   2.140   4.896   3.645
 4139WAT      O12935   3.156   3.518   2.005
 4139WAT     H112936   3.125   3.527   2.095
 4139WAT     H212937   3.232   3.576   2.000
 4140WAT      O12938   1.808   4.255   2.451
 4140WAT     H112939   1.796   4.327   2.390
 4140WAT     H212940   1.777   4.178   2.403
 4141WAT      O12941   3.351   5.067   3.791
 4141WAT     H112942   3.399   5.115   3.859
 4141WAT     H212943   3.413   5.061   3.718
 4142WAT      O12944   1.572   4.572   3.032
 4142WAT     H112945   1.579   4.585   2.937
 4142WAT     H212946   1.633   4.501   3.051
 4143WAT      O12947   1.696   4.742   2.673
 4143WAT     H112948   1.655   4.756   2.587
 4143WAT     H212949   1.785   4.714   2.653
 4144WAT      O12950   2.678   5.157   3.364
 4144WAT     H112951   2.729   5.148   3.444
 4144WAT     H212952   2.594   5.191   3.393
 4145WAT      O12953   2.875   5.185   2.306
 4145WAT     H112954   2.859   5.156   2.396
 4145WAT     H212955   2.859   5.108   2.253
 4146WAT      O12956   2.123   5.163   2.484
 4146WAT     H112957   2.106   5.072   2.463
 4146WAT     H212958   2.038   5.199   2.508
 4147WAT      O12959   2.846   4.936   2.162
 4147WAT     H112960   2.776   4.936   2.096
 4147WAT     H212961   2.920   4.894   2.119
 4148WAT      O12962   2.802   5.099   2.570
 4148WAT     H112963   2.848   5.021   2.601
 4148WAT     H212964   2.836   5.170   2.624
 4149WAT      O12965   1.577   4.676   3.286
 4149WAT     H112966   1.593   4.629   3.204
 4149WAT     H212967   1.624   4.625   3.352
 4150WAT      O12968   2.033   4.101   2.562
 4150WAT     H112969   2.011   4.080   2.653
 4150WAT     H212970   1.955   4.145   2.528
 4151WAT      O12971   1.791   3.832   3.444
 4151WAT     H112972   1.751   3.917   3.465
 4151WAT     H212973   1.722   3.769   3.463
 4152WAT      O12974   1.521   3.625   2.847
 4152WAT     H112975   1.492   3.682   2.919
 4152WAT     H212976   1.595   3.577   2.884
 4153WAT      O12977   1.539   4.019   1.969
 4153WAT     H112978   1.531   4.113   1.983
 4153WAT     H212979   1.504   4.005   1.881
 4154WAT      O12980   2.676   4.225   3.035
 4154WAT     H112981   2.602   4.276   3.070
 4154WAT     H212982   2.636   4.143   3.005
 4155WAT      O12983   1.904   3.881   2.771
 4155WAT     H112984   1.870   3.928   2.847
 4155WAT     H212985   1.828   3.835   2.735
 4156WAT      O12986   2.227   4.223   2.114
 4156WAT     H112987   2.170   4.179   2.051
 4156WAT     H212988   2.298   4.259   2.061
 4157WAT      O12989   1.735   4.614   3.502
 4157WAT     H112990   1.696   4.550   3.562
 4157WAT     H212991   1.766   4.684   3.559
 4158WAT      O12992   2.350   4.298   3.050
 4158WAT     H112993   2.386   4.251   3.124
 4158WAT     H212994   2.331   4.386   3.084
 4159WAT      O12995   1.636   3.773   2.663
 4159WAT     H112996   1.607   3.736   2.747
 4159WAT     H212997   1.630   3.700   2.601
 4160WAT      O12998   2.128   4.202   3.282
 4160WAT     H112999   2.098   4.290   3.304
 4160WAT     H213000   2.224   4.208   3.285
 4161WAT      O13001   1.981   4.623   2.341
 4161WAT     H113002   1.904   4.569   2.325
 4161WAT     H213003   2.054   4.571   2.308
 4162WAT      O13004   2.875   4.099   2.165
 4162WAT     H113005   2.964   4.130   2.147
 4162WAT     H213006   2.872   4.012   2.125
 4163WAT      O13007   1.986   4.590   2.705
 4163WAT     H113008   2.037   4.510   2.700
 4163WAT     H213009   1.941   4.584   2.789
 4164WAT      O13010   2.474   4.717   2.232
 4164WAT     H113011   2.509   4.791   2.183
 4164WAT     H213012   2.392   4.748   2.269
 4165WAT      O13013   1.734   4.286   3.396
 4165WAT     H113014   1.698   4.353   3.455
 4165WAT     H213015   1.705   4.203   3.434
 4166WAT      O13016   2.054   4.332   3.685
 4166WAT     H113017   2.024   4.347   3.595
 4166WAT     H213018   2.131   4.276   3.676
 4167WAT      O13019   3.102   4.230   2.111
 4167WAT     H113020   3.094   4.274   2.026
 4167WAT     H213021   3.174   4.276   2.155
 4168WAT      O13022   3.205   4.916   2.384
 4168WAT     H113023   3.141   4.850   2.412
 4168WAT     H213024   3.166   4.956   2.307
 4169WAT      O13025   2.763   4.649   2.769
 4169WAT     H113026   2.798   4.589   2.703
 4169WAT     H213027   2.674   4.616   2.786
 4170WAT      O13028   2.371   4.725   2.510
 4170WAT     H113029   2.440   4.779   2.548
 4170WAT     H213030   2.293   4.779   2.513
 4171WAT      O13031   1.585   4.286   2.059
 4171WAT     H113032   1.672   4.315   2.087
 4171WAT     H213033   1.536   4.368   2.047
 4172WAT      O13034   2.302   4.425   2.471
 4172WAT     H113035   2.347   4.506   2.493
 4172WAT     H213036   2.266   4.393   2.554
 4173WAT      O13037   2.532   4.976   3.194
 4173WAT     H113038   2.596   4.997   3.262
 4173WAT     H213039   2.568   4.900   3.148
 4174WAT      O13040   1.892   3.460   2.518
 4174WAT     H113041   1.879   3.459   2.613
 4174WAT     H213042   1.809   3.493   2.483
 4175WAT      O13043   3.044   4.805   2.038
 4175WAT     H113044   3.021   4.733   2.097
 4175WAT     H213045   3.005   4.780   1.954
 4176WAT      O13046   1.622   5.208   2.115
 4176WAT     H113047   1.658   5.268   2.050
 4176WAT     H213048   1.608   5.262   2.193
 4177WAT      O13049   1.592   3.635   3.464
 4177WAT     H113050   1.520   3.655   3.525
 4177WAT     H213051   1.634   3.558   3.501
 4178WAT      O13052   3.002   4.597   2.204
 4178WAT     H113053   2.973   4.643   2.283
 4178WAT     H213054   3.081   4.551   2.231
 4179WAT      O13055   1.620   5.034   3.563
 4179WAT     H113056   1.631   4.940   3.549
 4179WAT     H213057   1.555   5.061   3.498
 4180WAT      O13058   2.419   4.861   3.703
 4180WAT     H113059   2.387   4.789   3.757
 4180WAT     H213060   2.352   4.929   3.710
 4181WAT      O13061   2.224   4.946   2.197
 4181WAT     H113062   2.223   5.019   2.136
 4181WAT     H213063   2.132   4.921   2.206
 4182WAT      O13064   1.784   4.468   2.272
 4182WAT     H113065   1.723   4.542   2.273
 4182WAT     H213066   1.831   4.477   2.189
 4183WAT      O13067   2.522   4.952   2.063
 4183WAT     H113068   2.532   4.932   1.970
 4183WAT     H213069   2.432   4.927   2.084
 4184WAT      O13070   2.274   4.008   2.462
 4184WAT     H113071   2.204   4.055   2.506
 4184WAT     H213072   2.303   3.942   2.525
 4185WAT      O13073   2.437   4.150   3.262
 4185WAT     H113074   2.487   4.198   3.328
 4185WAT     H213075   2.451   4.058   3.282
 4186WAT      O13076   2.386   5.204   2.533
 4186WAT     H113077   2.412   5.200   2.441
 4186WAT     H213078   2.292   5.191   2.532
 4187WAT      O13079   2.987   4.296   2.690
 4187WAT     H113080   2.893   4.298   2.708
 4187WAT     H213081   3.018   4.217   2.735
 4188WAT      O13082   1.985   4.464   2.046
 4188WAT     H113083   2.061   4.453   2.103
 4188WAT     H213084   1.992   4.395   1.981
 4189WAT      O13085   1.854   4.208   2.115
 4189WAT     H113086   1.862   4.113   2.126
 4189WAT     H213087   1.943   4.241   2.125
 4190WAT      O13088   1.934   5.222   2.825
 4190WAT     H113089   2.008   5.168   2.852
 4190WAT     H213090   1.973   5.309   2.811
 4191WAT      O13091   1.623   4.829   2.413
 4191WAT     H113092   1.530   4.853   2.412
 4191WAT     H213093   1.669   4.912   2.400
 4192WAT      O13094   1.835   5.141   3.744
 4192WAT     H113095   1.915   5.173   3.785
 4192WAT     H213096   1.783   5.105   3.816
 4193WAT      O13097   2.245   5.140   2.007
 4193WAT     H113098   2.325   5.169   1.962
 4193WAT     H213099   2.193   5.097   1.940
 4194WAT      O13100   2.862   5.125   3.600
 4194WAT     H113101   2.957   5.116   3.595
 4194WAT     H213102   2.847   5.191   3.667
 4195WAT      O13103   3.151   5.062   2.150
 4195WAT     H113104   3.122   5.021   2.068
 4195WAT     H213105   3.131   5.155   2.138
 4196WAT      O13106   1.607   4.390   3.638
 4196WAT     H113107   1.657   4.332   3.696
 4196WAT     H213108   1.533   4.418   3.692
 4197WAT      O13109   2.297   4.662   1.994
 4197WAT     H113110   2.287   4.600   2.066
 4197WAT     H213111   2.280   4.609   1.915
 4198WAT      O13112   2.312   4.530   3.592
 4198WAT     H113113   2.236   4.587   3.583
 4198WAT     H213114   2.330   4.501   3.502
 4199WAT      O13115   2.621   4.568   2.054
 4199WAT     H113116   2.566   4.613   2.119
 4199WAT     H213117   2.683   4.517   2.107
 4200WAT      O13118   1.810   4.204   3.728
 4200WAT     H113119   1.814   4.174   3.819
 4200WAT     H213120   1.896   4.244   3.712
 4201WAT      O13121   2.188   4.464   2.244
 4201WAT     H113122   2.230   4.447   2.328
 4201WAT     H213123   2.200   4.383   2.194
 4202WAT      O13124   2.004   4.062   3.525
 4202WAT     H113125   1.951   4.013   3.462
 4202WAT     H213126   2.071   4.105   3.471
 4203WAT      O13127   2.439   4.366   1.969
 4203WAT     H113128   2.491   4.295   1.932
 4203WAT     H213129   2.504   4.430   1.999
 4204WAT      O13130   2.053   3.758   3.533
 4204WAT     H113131   2.043   3.697   3.460
 4204WAT     H213132   1.995   3.831   3.510
 4205WAT      O13133   2.330   3.614   3.236
 4205WAT     H113134   2.285   3.616   3.151
 4205WAT     H213135   2.266   3.574   3.296
 4206WAT      O13136   2.370   4.504   3.298
 4206WAT     H113137   2.412   4.588   3.281
 4206WAT     H213138   2.278   4.517   3.275
 4207WAT      O13139   2.078   4.071   1.938
 4207WAT     H113140   2.057   3.985   1.975
 4207WAT     H213141   2.060   4.063   1.845
 4208WAT      O13142   2.155   5.134   3.410
 4208WAT     H113143   2.101   5.207   3.378
 4208WAT     H213144   2.181   5.087   3.331
 4209WAT      O13145   2.280   3.931   3.562
 4209WAT     H113146   2.339   3.900   3.631
 4209WAT     H213147   2.199   3.884   3.578
 4210WAT      O13148   2.441   5.258   3.435
 4210WAT     H113149   2.433   5.348   3.466
 4210WAT     H213150   2.351   5.226   3.433
 4211WAT      O13151   2.496   5.174   2.198
 4211WAT     H113152   2.585   5.208   2.200
 4211WAT     H213153   2.499   5.102   2.135
 4212WAT      O13154   1.860   4.712   2.021
 4212WAT     H113155   1.903   4.766   2.086
 4212WAT     H213156   1.908   4.629   2.022
 4213WAT      O13157   1.581   4.991   2.766
 4213WAT     H113158   1.614   4.904   2.743
 4213WAT     H213159   1.624   5.011   2.849
 4214WAT      O13160   2.041   4.824   2.532
 4214WAT     H113161   2.011   4.811   2.622
 4214WAT     H213162   2.030   4.738   2.491
 4215WAT      O13163   1.630   5.077   3.040
 4215WAT     H113164   1.586   5.095   3.123
 4215WAT     H213165   1.687   5.153   3.025
 4216WAT      O13166   3.318   4.802   2.002
 4216WAT     H113167   3.235   4.808   2.049
 4216WAT     H213168   3.335   4.891   1.972
 4217WAT      O13169   3.263   4.476   2.252
 4217WAT     H113170   3.339   4.533   2.263
 4217WAT     H213171   3.265   4.419   2.329
 4218WAT      O13172   1.613   4.328   2.675
 4218WAT     H113173   1.548   4.302   2.611
 4218WAT     H213174   1.697   4.318   2.631
 4219WAT      O13175   3.364   4.562   2.737
 4219WAT     H113176   3.401   4.483   2.696
 4219WAT     H213177   3.428   4.630   2.719
 4220WAT      O13178   3.268   4.505   1.968
 4220WAT     H113179   3.296   4.596   1.955
 4220WAT     H213180   3.250   4.499   2.062
 4221WAT      O13181   2.908   3.808   2.098
 4221WAT     H113182   2.950   3.789   2.014
 4221WAT     H213183   2.878   3.723   2.129
 4222WAT      O13184   3.258   4.299   2.467
 4222WAT     H113185   3.220   4.222   2.424
 4222WAT     H213186   3.185   4.337   2.516
 4223WAT      O13187   1.717   4.367   3.130
 4223WAT     H113188   1.754   4.358   3.217
 4223WAT     H213189   1.660   4.291   3.120
 4224WAT      O13190   1.672   4.058   3.520
 4224WAT     H113191   1.583   4.055   3.554
 4224WAT     H213192   1.726   4.078   3.597
 4225WAT      O13193   1.535   4.049   2.270
 4225WAT     H113194   1.444   4.076   2.252
 4225WAT     H213195   1.583   4.077   2.192
 4226WAT      O13196   3.186   4.122   2.797
 4226WAT     H113197   3.238   4.072   2.734
 4226WAT     H213198   3.244   4.135   2.872
 4227WAT      O13199   1.789   3.955   2.061
 4227WAT     H113200   1.860   3.913   2.012
 4227WAT     H213201   1.717   3.962   1.998
 4228WAT      O13202   1.754   3.561   1.965
 4228WAT     H113203   1.826   3.615   1.997
 4228WAT     H213204   1.781   3.533   1.877
 4229WAT      O13205   3.135   4.047   2.391
 4229WAT     H113206   3.184   4.024   2.470
 4229WAT     H213207   3.115   3.964   2.350
 4230WAT      O13208   1.723   3.486   2.955
 4230WAT     H113209   1.787   3.431   2.911
 4230WAT     H213210   1.765   3.511   3.037
 4231WAT      O13211   3.366   3.694   1.969
 4231WAT     H113212   3.459   3.681   1.948
 4231WAT     H213213   3.364   3.702   2.064
 4232WAT      O13214   3.374   3.771   2.231
 4232WAT     H113215   3.294   3.765   2.284
 4232WAT     H213216   3.394   3.865   2.230
 4233WAT      O13217   3.068   5.175   2.631
 4233WAT     H113218   3.127   5.143   2.563
 4233WAT     H213219   3.094   5.128   2.710
 4234WAT      O13220   1.698   3.501   3.229
 4234WAT     H113221   1.663   3.547   3.306
 4234WAT     H213222   1.665   3.412   3.237
 4235WAT      O13223   1.859   4.818   3.646
 4235WAT     H113224   1.854   4.781   3.734
 4235WAT     H213225   1.872   4.912   3.660
 4236WAT      O13226   2.229   4.974   3.206
 4236WAT     H113227   2.204   5.001   3.117
 4236WAT     H213228   2.323   4.991   3.211
 4237WAT      O13229   2.449   3.620   3.581
 4237WAT     H113230   2.443   3.679   3.656
 4237WAT     H213231   2.543   3.609   3.567
 4238WAT      O13232   1.765   3.454   3.557
 4238WAT     H113233   1.820   3.436   3.480
 4238WAT     H213234   1.772   3.375   3.610
 4239WAT      O13235   1.842   5.113   3.358
 4239WAT     H113236   1.783   5.100   3.432
 4239WAT     H213237   1.842   5.029   3.311
 4240WAT      O13238   1.806   4.850   3.253
 4240WAT     H113239   1.733   4.788   3.246
 4240WAT     H213240   1.812   4.889   3.166
 4241WAT      O13241   2.166   5.071   2.931
 4241WAT     H113242   2.218   5.010   2.879
 4241WAT     H213243   2.231   5.121   2.980
 4242WAT      O13244   2.440   5.160   3.014
 4242WAT     H113245   2.469   5.135   2.926
 4242WAT     H213246   2.491   5.105   3.073
 4243WAT      O13247   1.634   5.181   2.574
 4243WAT     H113248   1.617   5.118   2.644
 4243WAT     H213249   1.547   5.202   2.539
 4244WAT      O13250   1.696   3.564   2.324
 4244WAT     H113251   1.772   3.576   2.267
 4244WAT     H213252   1.650   3.648   2.319
 4245WAT      O13253   1.794   5.051   2.318
 4245WAT     H113254   1.742   5.089   2.248
 4245WAT     H213255   1.787   5.113   2.390
 4246WAT      O13256   2.447   5.252   3.751
 4246WAT     H113257   2.539   5.229   3.755
 4246WAT     H213258   2.445   5.335   3.703
 4247WAT      O13259   3.270   5.206   2.450
 4247WAT     H113260   3.288   5.138   2.386
 4247WAT     H213261   3.200   5.259   2.411
 4248WAT      O13262   2.165   3.519   3.727
 4248WAT     H113263   2.137   3.569   3.651
 4248WAT     H213264   2.203   3.439   3.690
 4249WAT      O13265   2.054   5.245   2.206
 4249WAT     H113266   2.128   5.217   2.151
 4249WAT     H213267   2.080   5.222   2.295
 4250WAT      O13268   1.971   4.857   2.206
 4250WAT     H113269   1.908   4.904   2.261
 4250WAT     H213270   1.982   4.773   2.250
 4251WAT      O13271   3.103   5.175   3.733
 4251WAT     H113272   3.183   5.125   3.712
 4251WAT     H213273   3.133   5.243   3.794
 4252WAT      O13274   2.716   4.262   0.821
 4252WAT     H113275   2.708   4.171   0.794
 4252WAT     H213276   2.675   4.312   0.751
 4253WAT      O13277   2.529   4.440   1.009
 4253WAT     H113278   2.452   4.392   1.038
 4253WAT     H213279   2.594   4.372   0.992
 4254WAT      O13280   1.931   4.471   1.097
 4254WAT     H113281   1.848   4.446   1.137
 4254WAT     H213282   1.992   4.478   1.171
 4255WAT      O13283   2.931   4.881   0.887
 4255WAT     H113284   2.885   4.803   0.920
 4255WAT     H213285   3.013   4.883   0.938
 4256WAT      O13286   1.929   4.875   1.117
 4256WAT     H113287   1.959   4.785   1.099
 4256WAT     H213288   2.003   4.930   1.094
 4257WAT      O13289   1.772   3.967   0.475
 4257WAT     H113290   1.683   4.001   0.465
 4257WAT     H213291   1.800   3.947   0.386
 4258WAT      O13292   1.568   4.227   1.064
 4258WAT     H113293   1.625   4.150   1.064
 4258WAT     H213294   1.568   4.257   0.973
 4259WAT      O13295   2.554   5.109   0.849
 4259WAT     H113296   2.492   5.155   0.792
 4259WAT     H213297   2.639   5.125   0.809
 4260WAT      O13298   2.473   4.707   1.010
 4260WAT     H113299   2.466   4.613   0.994
 4260WAT     H213300   2.549   4.717   1.067
 4261WAT      O13301   1.692   3.768   1.243
 4261WAT     H113302   1.674   3.678   1.271
 4261WAT     H213303   1.652   3.823   1.310
 4262WAT      O13304   2.576   3.988   1.033
 4262WAT     H113305   2.614   3.901   1.021
 4262WAT     H213306   2.567   4.022   0.944
 4263WAT      O13307   1.989   3.825   0.579
 4263WAT     H113308   2.000   3.915   0.610
 4263WAT     H213309   1.898   3.821   0.550
 4264WAT      O13310   2.955   3.738   0.726
 4264WAT     H113311   3.037   3.689   0.730
 4264WAT     H213312   2.958   3.797   0.801
 4265WAT      O13313   1.754   4.018   1.103
 4265WAT     H113314   1.822   4.044   1.165
 4265WAT     H213315   1.723   3.934   1.137
 4266WAT      O13316   2.173   4.122   1.012
 4266WAT     H113317   2.224   4.172   1.076
 4266WAT     H213318   2.227   4.045   0.995
 4267WAT      O13319   3.384   3.939   1.382
 4267WAT     H113320   3.313   3.978   1.331
 4267WAT     H213321   3.410   4.009   1.443
 4268WAT      O13322   2.002   3.586   1.439
 4268WAT     H113323   2.002   3.638   1.358
 4268WAT     H213324   1.919   3.539   1.436
 4269WAT      O13325   2.641   4.597   0.589
 4269WAT     H113326   2.579   4.644   0.532
 4269WAT     H213327   2.692   4.667   0.630
 4270WAT      O13328   2.127   4.550   1.256
 4270WAT     H113329   2.094   4.613   1.321
 4270WAT     H213330   2.145   4.603   1.179
 4271WAT      O13331   2.978   3.932   1.003
 4271WAT     H113332   2.908   3.961   1.061
 4271WAT     H213333   3.014   4.013   0.967
 4272WAT      O13334   1.970   3.757   1.239
 4272WAT     H113335   2.004   3.842   1.210
 4272WAT     H213336   1.876   3.772   1.251
 4273WAT      O13337   2.048   4.747   1.438
 4273WAT     H113338   2.110   4.815   1.410
 4273WAT     H213339   1.962   4.788   1.429
 4274WAT      O13340   1.577   4.666   0.326
 4274WAT     H113341   1.540   4.715   0.253
 4274WAT     H213342   1.603   4.733   0.389
 4275WAT      O13343   3.140   4.893   1.230
 4275WAT     H113344   3.071   4.960   1.229
 4275WAT     H213345   3.194   4.913   1.153
 4276WAT      O13346   3.285   3.876   1.042
 4276WAT     H113347   3.190   3.880   1.056
 4276WAT     H213348   3.318   3.958   1.081
 4277WAT      O13349   2.338   3.506   0.872
 4277WAT     H113350   2.369   3.451   0.800
 4277WAT     H213351   2.245   3.520   0.854
 4278WAT      O13352   2.893   5.078   1.101
 4278WAT     H113353   2.895   5.038   1.014
 4278WAT     H213354   2.838   5.155   1.091
 4279WAT      O13355   3.023   4.750   0.610
 4279WAT     H113356   3.012   4.656   0.622
 4279WAT     H213357   3.023   4.786   0.699
 4280WAT      O13358   2.833   4.568   1.234
 4280WAT     H113359   2.875   4.547   1.150
 4280WAT     H213360   2.906   4.594   1.291
 4281WAT      O13361   2.577   4.313   0.546
 4281WAT     H113362   2.484   4.306   0.568
 4281WAT     H213363   2.592   4.407   0.534
 4282WAT      O13364   2.576   3.940   0.245
 4282WAT     H113365   2.482   3.956   0.254
 4282WAT     H213366   2.608   4.012   0.191
 4283WAT      O13367   3.228   4.408   1.243
 4283WAT     H113368   3.145   4.415   1.195
 4283WAT     H213369   3.287   4.467   1.196
 4284WAT      O13370   2.980   4.469   0.596
 4284WAT     H113371   2.918   4.435   0.531
 4284WAT     H213372   2.978   4.405   0.667
 4285WAT      O13373   2.924   4.087   1.338
 4285WAT     H113374   2.883   4.169   1.363
 4285WAT     H213375   2.851   4.028   1.318
 4286WAT      O13376   2.138   4.365   0.824
 4286WAT     H113377   2.097   4.294   0.774
 4286WAT     H213378   2.146   4.331   0.913
 4287WAT      O13379   2.184   4.734   1.040
 4287WAT     H113380   2.155   4.673   0.972
 4287WAT     H213381   2.279   4.738   1.029
 4288WAT      O13382   2.009   4.043   1.202
 4288WAT     H113383   2.064   4.054   1.124
 4288WAT     H213384   2.060   4.080   1.273
 4289WAT      O13385   2.993   5.091   1.406
 4289WAT     H113386   2.946   5.172   1.387
 4289WAT     H213387   2.925   5.026   1.422
 4290WAT      O13388   2.094   4.708   1.705
 4290WAT     H113389   2.004   4.730   1.730
 4290WAT     H213390   2.096   4.720   1.610
 4291WAT      O13391   2.798   4.393   0.297
 4291WAT     H113392   2.842   4.309   0.282
 4291WAT     H213393   2.869   4.456   0.305
 4292WAT      O13394   1.976   4.395   1.563
 4292WAT     H113395   1.962   4.482   1.600
 4292WAT     H213396   1.888   4.361   1.548
 4293WAT      O13397   2.609   4.887   0.693
 4293WAT     H113398   2.653   4.961   0.652
 4293WAT     H213399   2.603   4.911   0.786
 4294WAT      O13400   2.156   4.989   1.784
 4294WAT     H113401   2.153   5.030   1.697
 4294WAT     H213402   2.140   4.896   1.767
 4295WAT      O13403   1.808   4.255   0.574
 4295WAT     H113404   1.796   4.327   0.513
 4295WAT     H213405   1.777   4.178   0.526
 4296WAT      O13406   3.351   5.067   1.913
 4296WAT     H113407   3.399   5.115   1.981
 4296WAT     H213408   3.413   5.061   1.841
 4297WAT      O13409   1.572   4.572   1.154
 4297WAT     H113410   1.579   4.585   1.060
 4297WAT     H213411   1.633   4.501   1.174
 4298WAT      O13412   1.696   4.742   0.796
 4298WAT     H113413   1.655   4.756   0.710
 4298WAT     H213414   1.785   4.714   0.775
 4299WAT      O13415   3.292   4.787   1.629
 4299WAT     H113416   3.304   4.763   1.537
 4299WAT     H213417   3.296   4.703   1.676
 4300WAT      O13418   2.678   5.157   1.486
 4300WAT     H113419   2.729   5.148   1.566
 4300WAT     H213420   2.594   5.191   1.515
 4301WAT      O13421   2.875   5.185   0.429
 4301WAT     H113422   2.859   5.156   0.519
 4301WAT     H213423   2.859   5.108   0.375
 4302WAT      O13424   2.123   5.163   0.607
 4302WAT     H113425   2.106   5.072   0.585
 4302WAT     H213426   2.038   5.199   0.631
 4303WAT      O13427   2.846   4.936   0.285
 4303WAT     H113428   2.776   4.936   0.219
 4303WAT     H213429   2.920   4.894   0.242
 4304WAT      O13430   2.802   5.099   0.692
 4304WAT     H113431   2.848   5.021   0.724
 4304WAT     H213432   2.836   5.170   0.747
 4305WAT      O13433   3.277   3.992   1.726
 4305WAT     H113434   3.215   4.043   1.673
 4305WAT     H213435   3.245   3.902   1.720
 4306WAT      O13436   1.577   4.676   1.408
 4306WAT     H113437   1.593   4.629   1.327
 4306WAT     H213438   1.624   4.625   1.475
 4307WAT      O13439   2.054   3.589   0.912
 4307WAT     H113440   2.010   3.667   0.879
 4307WAT     H213441   2.110   3.621   0.983
 4308WAT      O13442   2.483   3.876   1.472
 4308WAT     H113443   2.437   3.897   1.554
 4308WAT     H213444   2.443   3.794   1.442
 4309WAT      O13445   2.983   3.998   1.585
 4309WAT     H113446   2.898   3.968   1.617
 4309WAT     H213447   2.967   4.022   1.494
 4310WAT      O13448   2.693   4.148   1.795
 4310WAT     H113449   2.725   4.065   1.761
 4310WAT     H213450   2.771   4.200   1.810
 4311WAT      O13451   2.366   3.551   0.400
 4311WAT     H113452   2.303   3.551   0.473
 4311WAT     H213453   2.357   3.465   0.360
 4312WAT      O13454   2.258   3.644   1.098
 4312WAT     H113455   2.288   3.734   1.090
 4312WAT     H213456   2.313   3.595   1.037
 4313WAT      O13457   2.033   4.101   0.685
 4313WAT     H113458   2.011   4.080   0.775
 4313WAT     H213459   1.955   4.145   0.650
 4314WAT      O13460   2.756   4.102   0.545
 4314WAT     H113461   2.697   4.174   0.526
 4314WAT     H213462   2.811   4.096   0.466
 4315WAT      O13463   2.277   4.191   1.751
 4315WAT     H113464   2.268   4.097   1.736
 4315WAT     H213465   2.362   4.213   1.712
 4316WAT      O13466   2.617   3.966   0.748
 4316WAT     H113467   2.656   3.997   0.666
 4316WAT     H213468   2.653   3.878   0.759
 4317WAT      O13469   1.791   3.832   1.567
 4317WAT     H113470   1.751   3.917   1.587
 4317WAT     H213471   1.722   3.769   1.586
 4318WAT      O13472   1.521   3.625   0.970
 4318WAT     H113473   1.492   3.682   1.041
 4318WAT     H213474   1.595   3.577   1.006
 4319WAT      O13475   2.676   4.225   1.157
 4319WAT     H113476   2.602   4.276   1.192
 4319WAT     H213477   2.636   4.143   1.127
 4320WAT      O13478   2.319   3.892   0.998
 4320WAT     H113479   2.320   3.848   0.913
 4320WAT     H213480   2.409   3.925   1.009
 4321WAT      O13481   1.904   3.881   0.894
 4321WAT     H113482   1.870   3.928   0.969
 4321WAT     H213483   1.828   3.835   0.858
 4322WAT      O13484   2.326   3.992   0.297
 4322WAT     H113485   2.338   3.988   0.392
 4322WAT     H213486   2.287   4.079   0.281
 4323WAT      O13487   2.722   3.770   1.098
 4323WAT     H113488   2.724   3.815   1.183
 4323WAT     H213489   2.697   3.680   1.120
 4324WAT      O13490   2.227   4.223   0.237
 4324WAT     H113491   2.170   4.179   0.174
 4324WAT     H213492   2.298   4.259   0.183
 4325WAT      O13493   3.065   3.511   1.682
 4325WAT     H113494   3.097   3.438   1.735
 4325WAT     H213495   3.068   3.480   1.592
 4326WAT      O13496   1.735   4.614   1.624
 4326WAT     H113497   1.696   4.550   1.684
 4326WAT     H213498   1.766   4.684   1.681
 4327WAT      O13499   2.350   4.298   1.172
 4327WAT     H113500   2.386   4.251   1.247
 4327WAT     H213501   2.331   4.386   1.207
 4328WAT      O13502   1.636   3.773   0.785
 4328WAT     H113503   1.607   3.736   0.869
 4328WAT     H213504   1.630   3.700   0.724
 4329WAT      O13505   2.128   4.202   1.404
 4329WAT     H113506   2.098   4.290   1.427
 4329WAT     H213507   2.224   4.208   1.408
 4330WAT      O13508   1.981   4.623   0.464
 4330WAT     H113509   1.904   4.569   0.448
 4330WAT     H213510   2.054   4.571   0.430
 4331WAT      O13511   3.057   4.523   1.043
 4331WAT     H113512   3.129   4.572   1.004
 4331WAT     H213513   3.037   4.455   0.979
 4332WAT      O13514   2.603   3.662   0.458
 4332WAT     H113515   2.522   3.612   0.450
 4332WAT     H213516   2.584   3.746   0.416
 4333WAT      O13517   2.595   4.530   1.632
 4333WAT     H113518   2.589   4.438   1.606
 4333WAT     H213519   2.532   4.540   1.703
 4334WAT      O13520   2.875   4.099   0.287
 4334WAT     H113521   2.964   4.130   0.270
 4334WAT     H213522   2.872   4.012   0.248
 4335WAT      O13523   1.986   4.590   0.828
 4335WAT     H113524   2.037   4.510   0.822
 4335WAT     H213525   1.941   4.584   0.912
 4336WAT      O13526   2.474   4.717   0.355
 4336WAT     H113527   2.509   4.791   0.305
 4336WAT     H213528   2.392   4.748   0.391
 4337WAT      O13529   1.734   4.286   1.519
 4337WAT     H113530   1.698   4.353   1.578
 4337WAT     H213531   1.705   4.203   1.556
 4338WAT      O13532   2.054   4.332   1.807
 4338WAT     H113533   2.024   4.347   1.718
 4338WAT     H213534   2.131   4.276   1.798
 4339WAT      O13535   2.589   4.812   1.607
 4339WAT     H113536   2.590   4.719   1.585
 4339WAT     H213537   2.518   4.821   1.671
 4340WAT      O13538   3.210   4.476   1.542
 4340WAT     H113539   3.137   4.535   1.522
 4340WAT     H213540   3.262   4.475   1.462
 4341WAT      O13541   3.205   4.916   0.507
 4341WAT     H113542   3.141   4.850   0.534
 4341WAT     H213543   3.166   4.956   0.429
 4342WAT      O13544   2.763   4.649   0.891
 4342WAT     H113545   2.798   4.589   0.825
 4342WAT     H213546   2.674   4.616   0.909
 4343WAT      O13547   2.371   4.725   0.632
 4343WAT     H113548   2.440   4.779   0.670
 4343WAT     H213549   2.293   4.779   0.636
 4344WAT      O13550   1.585   4.286   0.181
 4344WAT     H113551   1.672   4.315   0.210
 4344WAT     H213552   1.536   4.368   0.170
 4345WAT      O13553   2.302   4.425   0.593
 4345WAT     H113554   2.347   4.506   0.616
 4345WAT     H213555   2.266   4.393   0.677
 4346WAT      O13556   2.532   4.976   1.316
 4346WAT     H113557   2.596   4.997   1.384
 4346WAT     H213558   2.568   4.900   1.271
 4347WAT      O13559   1.892   3.460   0.641
 4347WAT     H113560   1.879   3.459   0.736
 4347WAT     H213561   1.809   3.493   0.606
 4348WAT      O13562   2.659   4.777   1.188
 4348WAT     H113563   2.723   4.706   1.199
 4348WAT     H213564   2.712   4.855   1.170
 4349WAT      O13565   2.837   4.856   1.508
 4349WAT     H113566   2.870   4.915   1.576
 4349WAT     H213567   2.745   4.843   1.531
 4350WAT      O13568   1.622   5.208   0.238
 4350WAT     H113569   1.658   5.268   0.173
 4350WAT     H213570   1.608   5.262   0.315
 4351WAT      O13571   1.592   3.635   1.587
 4351WAT     H113572   1.520   3.655   1.647
 4351WAT     H213573   1.634   3.558   1.624
 4352WAT      O13574   3.002   4.597   0.327
 4352WAT     H113575   2.973   4.643   0.405
 4352WAT     H213576   3.081   4.551   0.354
 4353WAT      O13577   1.620   5.034   1.685
 4353WAT     H113578   1.631   4.940   1.671
 4353WAT     H213579   1.555   5.061   1.621
 4354WAT      O13580   2.419   4.861   1.825
 4354WAT     H113581   2.387   4.789   1.880
 4354WAT     H213582   2.352   4.929   1.833
 4355WAT      O13583   2.224   4.946   0.320
 4355WAT     H113584   2.223   5.019   0.258
 4355WAT     H213585   2.132   4.921   0.329
 4356WAT      O13586   1.784   4.468   0.394
 4356WAT     H113587   1.723   4.542   0.395
 4356WAT     H213588   1.831   4.477   0.312
 4357WAT      O13589   2.741   3.885   1.362
 4357WAT     H113590   2.778   3.803   1.395
 4357WAT     H213591   2.655   3.891   1.403
 4358WAT      O13592   3.078   3.780   0.443
 4358WAT     H113593   3.015   3.791   0.371
 4358WAT     H213594   3.028   3.802   0.522
 4359WAT      O13595   2.274   4.008   0.584
 4359WAT     H113596   2.204   4.055   0.628
 4359WAT     H213597   2.303   3.942   0.648
 4360WAT      O13598   2.437   4.150   1.384
 4360WAT     H113599   2.487   4.198   1.451
 4360WAT     H213600   2.451   4.058   1.405
 4361WAT      O13601   2.678   3.681   0.728
 4361WAT     H113602   2.665   3.682   0.633
 4361WAT     H213603   2.772   3.685   0.740
 4362WAT      O13604   2.386   5.204   0.655
 4362WAT     H113605   2.412   5.200   0.563
 4362WAT     H213606   2.292   5.191   0.655
 4363WAT      O13607   2.095   3.839   0.322
 4363WAT     H113608   2.180   3.883   0.315
 4363WAT     H213609   2.058   3.870   0.404
 4364WAT      O13610   3.158   3.772   1.468
 4364WAT     H113611   3.107   3.846   1.502
 4364WAT     H213612   3.239   3.811   1.437
 4365WAT      O13613   2.987   4.296   0.813
 4365WAT     H113614   2.893   4.298   0.830
 4365WAT     H213615   3.018   4.217   0.858
 4366WAT      O13616   1.854   4.208   0.237
 4366WAT     H113617   1.862   4.113   0.249
 4366WAT     H213618   1.943   4.241   0.248
 4367WAT      O13619   3.187   5.013   0.981
 4367WAT     H113620   3.200   5.095   1.028
 4367WAT     H213621   3.274   4.992   0.946
 4368WAT      O13622   1.934   5.222   0.948
 4368WAT     H113623   2.008   5.168   0.975
 4368WAT     H213624   1.973   5.309   0.934
 4369WAT      O13625   1.623   4.829   0.535
 4369WAT     H113626   1.530   4.853   0.534
 4369WAT     H213627   1.669   4.912   0.523
 4370WAT      O13628   1.835   5.141   1.867
 4370WAT     H113629   1.915   5.173   1.908
 4370WAT     H213630   1.783   5.105   1.939
 4371WAT      O13631   2.719   4.752   1.861
 4371WAT     H113632   2.658   4.754   1.787
 4371WAT     H213633   2.688   4.679   1.915
 4372WAT      O13634   2.862   5.125   1.722
 4372WAT     H113635   2.957   5.116   1.717
 4372WAT     H213636   2.847   5.191   1.790
 4373WAT      O13637   3.151   5.062   0.272
 4373WAT     H113638   3.122   5.021   0.191
 4373WAT     H213639   3.131   5.155   0.260
 4374WAT      O13640   1.607   4.390   1.761
 4374WAT     H113641   1.657   4.332   1.818
 4374WAT     H213642   1.533   4.418   1.815
 4375WAT      O13643   2.312   4.530   1.714
 4375WAT     H113644   2.236   4.587   1.706
 4375WAT     H213645   2.330   4.501   1.625
 4376WAT      O13646   2.621   4.568   0.177
 4376WAT     H113647   2.566   4.613   0.241
 4376WAT     H213648   2.683   4.517   0.229
 4377WAT      O13649   3.027   4.703   1.770
 4377WAT     H113650   3.101   4.737   1.720
 4377WAT     H213651   2.950   4.720   1.715
 4378WAT      O13652   1.810   4.204   1.850
 4378WAT     H113653   1.814   4.174   1.941
 4378WAT     H213654   1.896   4.244   1.835
 4379WAT      O13655   2.188   4.464   0.366
 4379WAT     H113656   2.230   4.447   0.451
 4379WAT     H213657   2.200   4.383   0.317
 4380WAT      O13658   2.004   4.062   1.647
 4380WAT     H113659   1.951   4.013   1.584
 4380WAT     H213660   2.071   4.105   1.594
 4381WAT      O13661   2.894   4.509   1.624
 4381WAT     H113662   2.935   4.524   1.709
 4381WAT     H213663   2.800   4.521   1.640
 4382WAT      O13664   2.941   4.243   1.824
 4382WAT     H113665   2.999   4.167   1.815
 4382WAT     H213666   2.959   4.296   1.746
 4383WAT      O13667   2.053   3.758   1.655
 4383WAT     H113668   2.043   3.697   1.583
 4383WAT     H213669   1.995   3.831   1.632
 4384WAT      O13670   2.330   3.614   1.358
 4384WAT     H113671   2.285   3.616   1.274
 4384WAT     H213672   2.266   3.574   1.418
 4385WAT      O13673   2.370   4.504   1.421
 4385WAT     H113674   2.412   4.588   1.403
 4385WAT     H213675   2.278   4.517   1.398
 4386WAT      O13676   2.604   4.277   1.559
 4386WAT     H113677   2.616   4.217   1.633
 4386WAT     H213678   2.690   4.281   1.517
 4387WAT      O13679   2.838   4.332   1.417
 4387WAT     H113680   2.785   4.385   1.356
 4387WAT     H213681   2.872   4.396   1.480
 4388WAT      O13682   2.155   5.134   1.532
 4388WAT     H113683   2.101   5.207   1.500
 4388WAT     H213684   2.181   5.087   1.453
 4389WAT      O13685   2.280   3.931   1.685
 4389WAT     H113686   2.339   3.900   1.753
 4389WAT     H213687   2.199   3.884   1.700
 4390WAT      O13688   2.762   3.893   1.708
 4390WAT     H113689   2.694   3.827   1.702
 4390WAT     H213690   2.834   3.848   1.753
 4391WAT      O13691   2.825   3.552   0.314
 4391WAT     H113692   2.853   3.468   0.350
 4391WAT     H213693   2.748   3.576   0.365
 4392WAT      O13694   2.441   5.258   1.558
 4392WAT     H113695   2.433   5.348   1.589
 4392WAT     H213696   2.351   5.226   1.555
 4393WAT      O13697   2.496   5.174   0.320
 4393WAT     H113698   2.585   5.208   0.322
 4393WAT     H213699   2.499   5.102   0.258
 4394WAT      O13700   1.581   4.991   0.888
 4394WAT     H113701   1.614   4.904   0.865
 4394WAT     H213702   1.624   5.011   0.971
 4395WAT      O13703   2.041   4.824   0.654
 4395WAT     H113704   2.011   4.811   0.744
 4395WAT     H213705   2.030   4.738   0.614
 4396WAT      O13706   1.630   5.077   1.162
 4396WAT     H113707   1.586   5.095   1.245
 4396WAT     H213708   1.687   5.153   1.148
 4397WAT      O13709   3.194   5.027   1.591
 4397WAT     H113710   3.134   5.033   1.517
 4397WAT     H213711   3.207   4.933   1.604
 4398WAT      O13712   3.263   4.476   0.375
 4398WAT     H113713   3.339   4.533   0.386
 4398WAT     H213714   3.265   4.419   0.452
 4399WAT      O13715   1.613   4.328   0.798
 4399WAT     H113716   1.548   4.302   0.734
 4399WAT     H213717   1.697   4.318   0.753
 4400WAT      O13718   3.364   4.562   0.859
 4400WAT     H113719   3.401   4.483   0.819
 4400WAT     H213720   3.428   4.630   0.842
 4401WAT      O13721   3.062   4.700   1.401
 4401WAT     H113722   2.981   4.743   1.427
 4401WAT     H213723   3.103   4.761   1.339
 4402WAT      O13724   3.258   4.299   0.590
 4402WAT     H113725   3.220   4.222   0.547
 4402WAT     H213726   3.185   4.337   0.639
 4403WAT      O13727   1.717   4.367   1.252
 4403WAT     H113728   1.754   4.358   1.340
 4403WAT     H213729   1.660   4.291   1.242
 4404WAT      O13730   3.197   4.214   1.553
 4404WAT     H113731   3.174   4.191   1.463
 4404WAT     H213732   3.223   4.306   1.549
 4405WAT      O13733   1.672   4.058   1.643
 4405WAT     H113734   1.583   4.055   1.677
 4405WAT     H213735   1.726   4.078   1.719
 4406WAT      O13736   3.041   3.736   1.831
 4406WAT     H113737   3.129   3.737   1.870
 4406WAT     H213738   3.042   3.663   1.770
 4407WAT      O13739   1.535   4.049   0.392
 4407WAT     H113740   1.444   4.076   0.375
 4407WAT     H213741   1.583   4.077   0.314
 4408WAT      O13742   3.186   4.122   0.920
 4408WAT     H113743   3.238   4.072   0.857
 4408WAT     H213744   3.244   4.135   0.995
 4409WAT      O13745   3.203   4.130   1.272
 4409WAT     H113746   3.108   4.127   1.284
 4409WAT     H213747   3.222   4.221   1.249
 4410WAT      O13748   3.135   4.047   0.514
 4410WAT     H113749   3.184   4.024   0.592
 4410WAT     H213750   3.115   3.964   0.472
 4411WAT      O13751   1.723   3.486   1.077
 4411WAT     H113752   1.787   3.431   1.033
 4411WAT     H213753   1.765   3.511   1.160
 4412WAT      O13754   3.277   3.911   0.767
 4412WAT     H113755   3.266   3.896   0.861
 4412WAT     H213756   3.354   3.858   0.743
 4413WAT      O13757   3.112   3.505   1.413
 4413WAT     H113758   3.176   3.566   1.450
 4413WAT     H213759   3.127   3.509   1.319
 4414WAT      O13760   3.374   3.771   0.354
 4414WAT     H113761   3.294   3.765   0.407
 4414WAT     H213762   3.394   3.865   0.353
 4415WAT      O13763   3.068   5.175   0.753
 4415WAT     H113764   3.127   5.143   0.686
 4415WAT     H213765   3.094   5.128   0.833
 4416WAT      O13766   1.698   3.501   1.352
 4416WAT     H113767   1.663   3.547   1.428
 4416WAT     H213768   1.665   3.412   1.360
 4417WAT      O13769   1.859   4.818   1.768
 4417WAT     H113770   1.854   4.781   1.856
 4417WAT     H213771   1.872   4.912   1.782
 4418WAT      O13772   2.229   4.974   1.328
 4418WAT     H113773   2.204   5.001   1.240
 4418WAT     H213774   2.323   4.991   1.334
 4419WAT      O13775   2.713   3.586   1.668
 4419WAT     H113776   2.774   3.618   1.602
 4419WAT     H213777   2.767   3.537   1.730
 4420WAT      O13778   3.355   5.176   1.408
 4420WAT     H113779   3.305   5.216   1.337
 4420WAT     H213780   3.294   5.113   1.448
 4421WAT      O13781   1.765   3.454   1.679
 4421WAT     H113782   1.820   3.436   1.603
 4421WAT     H213783   1.772   3.375   1.733
 4422WAT      O13784   1.842   5.113   1.480
 4422WAT     H113785   1.783   5.100   1.554
 4422WAT     H213786   1.842   5.029   1.434
 4423WAT      O13787   2.787   3.442   1.301
 4423WAT     H113788   2.700   3.476   1.280
 4423WAT     H213789   2.776   3.395   1.383
 4424WAT      O13790   2.878   3.663   1.439
 4424WAT     H113791   2.845   3.581   1.401
 4424WAT     H213792   2.972   3.659   1.427
 4425WAT      O13793   3.123   5.240   1.136
 4425WAT     H113794   3.077   5.315   1.099
 4425WAT     H213795   3.060   5.168   1.131
 4426WAT      O13796   1.806   4.850   1.375
 4426WAT     H113797   1.733   4.788   1.369
 4426WAT     H213798   1.812   4.889   1.288
 4427WAT      O13799   2.166   5.071   1.054
 4427WAT     H113800   2.218   5.010   1.001
 4427WAT     H213801   2.231   5.121   1.103
 4428WAT      O13802   2.440   5.160   1.137
 4428WAT     H113803   2.469   5.135   1.049
 4428WAT     H213804   2.491   5.105   1.196
 4429WAT      O13805   2.562   3.534   1.194
 4429WAT     H113806   2.483   3.581   1.222
 4429WAT     H213807   2.532   3.444   1.184
 4430WAT      O13808   3.017   3.604   0.999
 4430WAT     H113809   3.061   3.599   0.914
 4430WAT     H213810   2.990   3.696   1.006
 4431WAT      O13811   3.203   3.567   0.800
 4431WAT     H113812   3.197   3.473   0.785
 4431WAT     H213813   3.281   3.578   0.855
 4432WAT      O13814   1.634   5.181   0.696
 4432WAT     H113815   1.617   5.118   0.766
 4432WAT     H213816   1.547   5.202   0.661
 4433WAT      O13817   1.696   3.564   0.447
 4433WAT     H113818   1.772   3.576   0.389
 4433WAT     H213819   1.650   3.648   0.442
 4434WAT      O13820   2.350   3.776   0.746
 4434WAT     H113821   2.269   3.738   0.712
 4434WAT     H213822   2.401   3.700   0.776
 4435WAT      O13823   2.800   3.442   0.869
 4435WAT     H113824   2.861   3.499   0.917
 4435WAT     H213825   2.726   3.499   0.847
 4436WAT      O13826   3.115   3.482   0.397
 4436WAT     H113827   3.134   3.572   0.424
 4436WAT     H213828   3.036   3.459   0.446
 4437WAT      O13829   1.794   5.051   0.441
 4437WAT     H113830   1.742   5.089   0.370
 4437WAT     H213831   1.787   5.113   0.513
 4438WAT      O13832   1.933   3.617   0.301
 4438WAT     H113833   1.986   3.538   0.288
 4438WAT     H213834   1.997   3.685   0.324
 4439WAT      O13835   2.153   3.591   0.606
 4439WAT     H113836   2.090   3.521   0.623
 4439WAT     H213837   2.099   3.667   0.584
 4440WAT      O13838   2.447   5.252   1.873
 4440WAT     H113839   2.539   5.229   1.878
 4440WAT     H213840   2.445   5.335   1.825
 4441WAT      O13841   3.270   5.206   0.573
 4441WAT     H113842   3.288   5.138   0.509
 4441WAT     H213843   3.200   5.259   0.534
 4442WAT      O13844   2.054   5.245   0.328
 4442WAT     H113845   2.128   5.217   0.274
 4442WAT     H213846   2.080   5.222   0.417
 4443WAT      O13847   1.971   4.857   0.329
 4443WAT     H113848   1.908   4.904   0.384
 4443WAT     H213849   1.982   4.773   0.372
 4444WAT      O13850   2.825   3.460   1.907
 4444WAT     H113851   2.814   3.492   1.997
 4444WAT     H213852   2.907   3.500   1.878
 4445WAT      O13853   3.103   5.175   1.856
 4445WAT     H113854   3.183   5.125   1.835
 4445WAT     H213855   3.133   5.243   1.916
 4446WAT      O13856   2.716   2.385   4.576
 4446WAT     H113857   2.708   2.293   4.549
 4446WAT     H213858   2.675   2.434   4.505
 4447WAT      O13859   2.529   2.562   4.764
 4447WAT     H113860   2.452   2.514   4.793
 4447WAT     H213861   2.594   2.495   4.747
 4448WAT      O13862   1.931   2.594   4.852
 4448WAT     H113863   1.848   2.568   4.892
 4448WAT     H213864   1.992   2.601   4.926
 4449WAT      O13865   2.931   3.003   4.642
 4449WAT     H113866   2.885   2.926   4.675
 4449WAT     H213867   3.013   3.006   4.693
 4450WAT      O13868   1.929   2.997   4.872
 4450WAT     H113869   1.959   2.908   4.854
 4450WAT     H213870   2.003   3.053   4.849
 4451WAT      O13871   1.772   2.090   4.230
 4451WAT     H113872   1.683   2.124   4.220
 4451WAT     H213873   1.800   2.070   4.141
 4452WAT      O13874   1.568   2.350   4.819
 4452WAT     H113875   1.625   2.273   4.819
 4452WAT     H213876   1.568   2.380   4.728
 4453WAT      O13877   2.554   3.232   4.604
 4453WAT     H113878   2.492   3.277   4.547
 4453WAT     H213879   2.639   3.247   4.564
 4454WAT      O13880   2.473   2.830   4.765
 4454WAT     H113881   2.466   2.736   4.749
 4454WAT     H213882   2.549   2.839   4.822
 4455WAT      O13883   1.692   1.891   4.997
 4455WAT     H113884   1.674   1.801   5.025
 4455WAT     H213885   1.652   1.945   5.065
 4456WAT      O13886   2.576   2.111   4.788
 4456WAT     H113887   2.614   2.023   4.776
 4456WAT     H213888   2.567   2.144   4.698
 4457WAT      O13889   1.989   1.948   4.334
 4457WAT     H113890   2.000   2.038   4.364
 4457WAT     H213891   1.898   1.943   4.305
 4458WAT      O13892   2.955   1.860   4.481
 4458WAT     H113893   3.037   1.811   4.485
 4458WAT     H213894   2.958   1.919   4.556
 4459WAT      O13895   1.754   2.140   4.858
 4459WAT     H113896   1.822   2.167   4.920
 4459WAT     H213897   1.723   2.056   4.892
 4460WAT      O13898   2.173   2.245   4.767
 4460WAT     H113899   2.224   2.295   4.831
 4460WAT     H213900   2.227   2.167   4.749
 4461WAT      O13901   3.384   2.062   5.137
 4461WAT     H113902   3.313   2.101   5.085
 4461WAT     H213903   3.410   2.131   5.197
 4462WAT      O13904   2.002   1.709   5.194
 4462WAT     H113905   2.002   1.761   5.113
 4462WAT     H213906   1.919   1.661   5.191
 4463WAT      O13907   2.641   2.720   4.344
 4463WAT     H113908   2.579   2.767   4.287
 4463WAT     H213909   2.692   2.789   4.385
 4464WAT      O13910   2.127   2.673   5.011
 4464WAT     H113911   2.094   2.736   5.076
 4464WAT     H213912   2.145   2.725   4.933
 4465WAT      O13913   2.978   2.054   4.758
 4465WAT     H113914   2.908   2.083   4.816
 4465WAT     H213915   3.014   2.135   4.722
 4466WAT      O13916   1.970   1.880   4.994
 4466WAT     H113917   2.004   1.964   4.965
 4466WAT     H213918   1.876   1.895   5.006
 4467WAT      O13919   2.048   2.870   5.193
 4467WAT     H113920   2.110   2.937   5.165
 4467WAT     H213921   1.962   2.911   5.184
 4468WAT      O13922   1.577   2.789   4.081
 4468WAT     H113923   1.540   2.837   4.008
 4468WAT     H213924   1.603   2.856   4.144
 4469WAT      O13925   3.140   3.016   4.984
 4469WAT     H113926   3.071   3.083   4.984
 4469WAT     H213927   3.194   3.036   4.908
 4470WAT      O13928   3.285   1.999   4.797
 4470WAT     H113929   3.190   2.002   4.810
 4470WAT     H213930   3.318   2.080   4.836
 4471WAT      O13931   2.338   1.629   4.627
 4471WAT     H113932   2.369   1.573   4.555
 4471WAT     H213933   2.245   1.642   4.609
 4472WAT      O13934   2.893   3.200   4.856
 4472WAT     H113935   2.895   3.160   4.769
 4472WAT     H213936   2.838   3.278   4.845
 4473WAT      O13937   3.023   2.873   4.365
 4473WAT     H113938   3.012   2.778   4.377
 4473WAT     H213939   3.023   2.909   4.453
 4474WAT      O13940   2.833   2.691   4.989
 4474WAT     H113941   2.875   2.669   4.905
 4474WAT     H213942   2.906   2.716   5.046
 4475WAT      O13943   2.577   2.435   4.300
 4475WAT     H113944   2.484   2.429   4.323
 4475WAT     H213945   2.592   2.529   4.289
 4476WAT      O13946   3.228   2.531   4.998
 4476WAT     H113947   3.145   2.538   4.950
 4476WAT     H213948   3.287   2.589   4.951
 4477WAT      O13949   2.980   2.591   4.351
 4477WAT     H113950   2.918   2.558   4.286
 4477WAT     H213951   2.978   2.527   4.422
 4478WAT      O13952   2.924   2.209   5.092
 4478WAT     H113953   2.883   2.292   5.118
 4478WAT     H213954   2.851   2.151   5.073
 4479WAT      O13955   2.138   2.488   4.579
 4479WAT     H113956   2.097   2.417   4.529
 4479WAT     H213957   2.146   2.453   4.667
 4480WAT      O13958   2.184   2.857   4.795
 4480WAT     H113959   2.155   2.796   4.727
 4480WAT     H213960   2.279   2.860   4.784
 4481WAT      O13961   2.009   2.165   4.957
 4481WAT     H113962   2.064   2.176   4.879
 4481WAT     H213963   2.060   2.203   5.028
 4482WAT      O13964   2.993   3.214   5.161
 4482WAT     H113965   2.946   3.295   5.142
 4482WAT     H213966   2.925   3.149   5.176
 4483WAT      O13967   2.094   2.830   5.460
 4483WAT     H113968   2.004   2.853   5.485
 4483WAT     H213969   2.096   2.843   5.365
 4484WAT      O13970   2.798   2.515   4.051
 4484WAT     H113971   2.842   2.432   4.037
 4484WAT     H213972   2.869   2.579   4.060
 4485WAT      O13973   1.976   2.518   5.318
 4485WAT     H113974   1.962   2.605   5.354
 4485WAT     H213975   1.888   2.483   5.303
 4486WAT      O13976   2.609   3.009   4.448
 4486WAT     H113977   2.653   3.084   4.407
 4486WAT     H213978   2.603   3.034   4.541
 4487WAT      O13979   2.156   3.112   5.538
 4487WAT     H113980   2.153   3.152   5.452
 4487WAT     H213981   2.140   3.019   5.522
 4488WAT      O13982   3.156   1.641   3.883
 4488WAT     H113983   3.125   1.650   3.973
 4488WAT     H213984   3.232   1.699   3.878
 4489WAT      O13985   1.808   2.377   4.329
 4489WAT     H113986   1.796   2.450   4.267
 4489WAT     H213987   1.777   2.300   4.281
 4490WAT      O13988   1.572   2.695   4.909
 4490WAT     H113989   1.579   2.708   4.815
 4490WAT     H213990   1.633   2.624   4.929
 4491WAT      O13991   1.696   2.865   4.550
 4491WAT     H113992   1.655   2.879   4.465
 4491WAT     H213993   1.785   2.836   4.530
 4492WAT      O13994   3.292   2.909   5.384
 4492WAT     H113995   3.304   2.885   5.292
 4492WAT     H213996   3.296   2.826   5.431
 4493WAT      O13997   2.678   3.279   5.241
 4493WAT     H113998   2.729   3.271   5.321
 4493WAT     H213999   2.594   3.314   5.270
 4494WAT      O14000   2.875   3.308   4.184
 4494WAT     H114001   2.859   3.279   4.274
 4494WAT     H214002   2.859   3.230   4.130
 4495WAT      O14003   2.123   3.286   4.362
 4495WAT     H114004   2.106   3.194   4.340
 4495WAT     H214005   2.038   3.322   4.386
 4496WAT      O14006   2.846   3.059   4.040
 4496WAT     H114007   2.776   3.059   3.974
 4496WAT     H214008   2.920   3.016   3.997
 4497WAT      O14009   2.802   3.221   4.447
 4497WAT     H114010   2.848   3.143   4.479
 4497WAT     H214011   2.836   3.293   4.502
 4498WAT      O14012   3.277   2.114   5.481
 4498WAT     H114013   3.215   2.165   5.428
 4498WAT     H214014   3.245   2.024   5.475
 4499WAT      O14015   1.577   2.799   5.163
 4499WAT     H114016   1.593   2.752   5.081
 4499WAT     H214017   1.624   2.748   5.230
 4500WAT      O14018   2.054   1.712   4.667
 4500WAT     H114019   2.010   1.790   4.634
 4500WAT     H214020   2.110   1.744   4.738
 4501WAT      O14021   2.483   1.998   5.227
 4501WAT     H114022   2.437   2.019   5.308
 4501WAT     H214023   2.443   1.917   5.197
 4502WAT      O14024   2.983   2.120   5.340
 4502WAT     H114025   2.898   2.091   5.372
 4502WAT     H214026   2.967   2.145   5.249
 4503WAT      O14027   2.693   2.271   5.550
 4503WAT     H114028   2.725   2.187   5.516
 4503WAT     H214029   2.771   2.323   5.565
 4504WAT      O14030   2.366   1.674   4.155
 4504WAT     H114031   2.303   1.673   4.227
 4504WAT     H214032   2.357   1.587   4.115
 4505WAT      O14033   2.258   1.766   4.853
 4505WAT     H114034   2.288   1.857   4.845
 4505WAT     H214035   2.313   1.717   4.791
 4506WAT      O14036   2.033   2.224   4.440
 4506WAT     H114037   2.011   2.202   4.530
 4506WAT     H214038   1.955   2.267   4.405
 4507WAT      O14039   2.756   2.225   4.300
 4507WAT     H114040   2.697   2.297   4.281
 4507WAT     H214041   2.811   2.218   4.221
 4508WAT      O14042   2.277   2.314   5.506
 4508WAT     H114043   2.268   2.220   5.491
 4508WAT     H214044   2.362   2.336   5.467
 4509WAT      O14045   2.617   2.088   4.503
 4509WAT     H114046   2.656   2.120   4.421
 4509WAT     H214047   2.653   2.000   4.514
 4510WAT      O14048   1.791   1.955   5.322
 4510WAT     H114049   1.751   2.040   5.342
 4510WAT     H214050   1.722   1.891   5.341
 4511WAT      O14051   1.521   1.747   4.725
 4511WAT     H114052   1.492   1.804   4.796
 4511WAT     H214053   1.595   1.699   4.761
 4512WAT      O14054   1.539   2.142   3.846
 4512WAT     H114055   1.531   2.236   3.860
 4512WAT     H214056   1.504   2.127   3.758
 4513WAT      O14057   2.676   2.347   4.912
 4513WAT     H114058   2.602   2.398   4.947
 4513WAT     H214059   2.636   2.266   4.882
 4514WAT      O14060   2.319   2.015   4.753
 4514WAT     H114061   2.320   1.971   4.668
 4514WAT     H214062   2.409   2.047   4.763
 4515WAT      O14063   1.904   2.003   4.649
 4515WAT     H114064   1.870   2.051   4.724
 4515WAT     H214065   1.828   1.958   4.613
 4516WAT      O14066   2.326   2.115   4.052
 4516WAT     H114067   2.338   2.111   4.147
 4516WAT     H214068   2.287   2.201   4.036
 4517WAT      O14069   2.722   1.893   4.853
 4517WAT     H114070   2.724   1.938   4.938
 4517WAT     H214071   2.697   1.803   4.875
 4518WAT      O14072   2.227   2.346   3.992
 4518WAT     H114073   2.170   2.301   3.929
 4518WAT     H214074   2.298   2.382   3.938
 4519WAT      O14075   3.065   1.634   5.437
 4519WAT     H114076   3.097   1.561   5.490
 4519WAT     H214077   3.068   1.602   5.347
 4520WAT      O14078   1.735   2.736   5.379
 4520WAT     H114079   1.696   2.672   5.439
 4520WAT     H214080   1.766   2.807   5.436
 4521WAT      O14081   2.350   2.421   4.927
 4521WAT     H114082   2.386   2.374   5.002
 4521WAT     H214083   2.331   2.508   4.961
 4522WAT      O14084   1.636   1.895   4.540
 4522WAT     H114085   1.607   1.859   4.624
 4522WAT     H214086   1.630   1.822   4.479
 4523WAT      O14087   2.128   2.325   5.159
 4523WAT     H114088   2.098   2.413   5.182
 4523WAT     H214089   2.224   2.331   5.163
 4524WAT      O14090   1.981   2.746   4.219
 4524WAT     H114091   1.904   2.692   4.203
 4524WAT     H214092   2.054   2.694   4.185
 4525WAT      O14093   3.057   2.645   4.798
 4525WAT     H114094   3.129   2.695   4.759
 4525WAT     H214095   3.037   2.577   4.734
 4526WAT      O14096   2.603   1.785   4.212
 4526WAT     H114097   2.522   1.735   4.205
 4526WAT     H214098   2.584   1.869   4.171
 4527WAT      O14099   2.595   2.652   5.387
 4527WAT     H114100   2.589   2.560   5.361
 4527WAT     H214101   2.532   2.662   5.458
 4528WAT      O14102   2.875   2.222   4.042
 4528WAT     H114103   2.964   2.253   4.025
 4528WAT     H214104   2.872   2.135   4.003
 4529WAT      O14105   1.986   2.712   4.583
 4529WAT     H114106   2.037   2.632   4.577
 4529WAT     H214107   1.941   2.706   4.667
 4530WAT      O14108   2.474   2.839   4.110
 4530WAT     H114109   2.509   2.914   4.060
 4530WAT     H214110   2.392   2.870   4.146
 4531WAT      O14111   1.734   2.409   5.274
 4531WAT     H114112   1.698   2.476   5.333
 4531WAT     H214113   1.705   2.326   5.311
 4532WAT      O14114   2.054   2.455   5.562
 4532WAT     H114115   2.024   2.469   5.473
 4532WAT     H214116   2.131   2.399   5.553
 4533WAT      O14117   2.589   2.935   5.362
 4533WAT     H114118   2.590   2.841   5.340
 4533WAT     H214119   2.518   2.943   5.426
 4534WAT      O14120   3.102   2.353   3.989
 4534WAT     H114121   3.094   2.396   3.904
 4534WAT     H214122   3.174   2.399   4.032
 4535WAT      O14123   3.210   2.599   5.297
 4535WAT     H114124   3.137   2.658   5.277
 4535WAT     H214125   3.262   2.598   5.217
 4536WAT      O14126   3.205   3.038   4.262
 4536WAT     H114127   3.141   2.973   4.289
 4536WAT     H214128   3.166   3.079   4.184
 4537WAT      O14129   2.763   2.771   4.646
 4537WAT     H114130   2.798   2.712   4.580
 4537WAT     H214131   2.674   2.739   4.663
 4538WAT      O14132   2.371   2.847   4.387
 4538WAT     H114133   2.440   2.902   4.425
 4538WAT     H214134   2.293   2.902   4.391
 4539WAT      O14135   1.585   2.409   3.936
 4539WAT     H114136   1.672   2.437   3.965
 4539WAT     H214137   1.536   2.490   3.925
 4540WAT      O14138   2.302   2.548   4.348
 4540WAT     H114139   2.347   2.629   4.371
 4540WAT     H214140   2.266   2.516   4.431
 4541WAT      O14141   2.532   3.099   5.071
 4541WAT     H114142   2.596   3.119   5.139
 4541WAT     H214143   2.568   3.023   5.026
 4542WAT      O14144   1.892   1.582   4.396
 4542WAT     H114145   1.879   1.581   4.490
 4542WAT     H214146   1.809   1.616   4.360
 4543WAT      O14147   2.659   2.899   4.943
 4543WAT     H114148   2.723   2.829   4.954
 4543WAT     H214149   2.712   2.977   4.925
 4544WAT      O14150   3.044   2.928   3.915
 4544WAT     H114151   3.021   2.856   3.975
 4544WAT     H214152   3.005   2.903   3.832
 4545WAT      O14153   2.837   2.979   5.263
 4545WAT     H114154   2.870   3.038   5.331
 4545WAT     H214155   2.745   2.966   5.286
 4546WAT      O14156   1.622   3.330   3.993
 4546WAT     H114157   1.658   3.390   3.927
 4546WAT     H214158   1.608   3.385   4.070
 4547WAT      O14159   1.592   1.758   5.342
 4547WAT     H114160   1.520   1.778   5.402
 4547WAT     H214161   1.634   1.680   5.379
 4548WAT      O14162   3.002   2.719   4.082
 4548WAT     H114163   2.973   2.765   4.160
 4548WAT     H214164   3.081   2.673   4.108
 4549WAT      O14165   1.620   3.157   5.440
 4549WAT     H114166   1.631   3.063   5.426
 4549WAT     H214167   1.555   3.183   5.375
 4550WAT      O14168   2.224   3.069   4.075
 4550WAT     H114169   2.223   3.142   4.013
 4550WAT     H214170   2.132   3.044   4.084
 4551WAT      O14171   1.784   2.591   4.149
 4551WAT     H114172   1.723   2.665   4.150
 4551WAT     H214173   1.831   2.600   4.066
 4552WAT      O14174   2.741   2.007   5.117
 4552WAT     H114175   2.778   1.925   5.149
 4552WAT     H214176   2.655   2.013   5.158
 4553WAT      O14177   3.078   1.903   4.197
 4553WAT     H114178   3.015   1.913   4.126
 4553WAT     H214179   3.028   1.925   4.276
 4554WAT      O14180   2.522   3.075   3.941
 4554WAT     H114181   2.532   3.054   3.848
 4554WAT     H214182   2.432   3.049   3.961
 4555WAT      O14183   2.274   2.131   4.339
 4555WAT     H114184   2.204   2.178   4.383
 4555WAT     H214185   2.303   2.065   4.403
 4556WAT      O14186   2.437   2.273   5.139
 4556WAT     H114187   2.487   2.320   5.206
 4556WAT     H214188   2.451   2.180   5.160
 4557WAT      O14189   2.678   1.803   4.483
 4557WAT     H114190   2.665   1.805   4.388
 4557WAT     H214191   2.772   1.808   4.495
 4558WAT      O14192   2.386   3.327   4.410
 4558WAT     H114193   2.412   3.323   4.318
 4558WAT     H214194   2.292   3.314   4.410
 4559WAT      O14195   2.095   1.961   4.077
 4559WAT     H114196   2.180   2.005   4.070
 4559WAT     H214197   2.058   1.993   4.159
 4560WAT      O14198   3.158   1.894   5.223
 4560WAT     H114199   3.107   1.968   5.257
 4560WAT     H214200   3.239   1.933   5.192
 4561WAT      O14201   2.987   2.419   4.568
 4561WAT     H114202   2.893   2.420   4.585
 4561WAT     H214203   3.018   2.340   4.612
 4562WAT      O14204   1.985   2.587   3.924
 4562WAT     H114205   2.061   2.576   3.980
 4562WAT     H214206   1.992   2.517   3.859
 4563WAT      O14207   1.854   2.330   3.992
 4563WAT     H114208   1.862   2.235   4.003
 4563WAT     H214209   1.943   2.363   4.003
 4564WAT      O14210   3.187   3.136   4.735
 4564WAT     H114211   3.200   3.218   4.783
 4564WAT     H214212   3.274   3.115   4.701
 4565WAT      O14213   1.934   3.345   4.703
 4565WAT     H114214   2.008   3.290   4.730
 4565WAT     H214215   1.973   3.432   4.689
 4566WAT      O14216   1.623   2.952   4.290
 4566WAT     H114217   1.530   2.976   4.289
 4566WAT     H214218   1.669   3.034   4.278
 4567WAT      O14219   2.245   3.262   3.885
 4567WAT     H114220   2.325   3.291   3.840
 4567WAT     H214221   2.193   3.219   3.817
 4568WAT      O14222   2.862   3.247   5.477
 4568WAT     H114223   2.957   3.239   5.472
 4568WAT     H214224   2.847   3.313   5.545
 4569WAT      O14225   2.297   2.784   3.871
 4569WAT     H114226   2.287   2.723   3.944
 4569WAT     H214227   2.280   2.732   3.793
 4570WAT      O14228   2.312   2.653   5.469
 4570WAT     H114229   2.236   2.710   5.461
 4570WAT     H214230   2.330   2.624   5.380
 4571WAT      O14231   2.621   2.691   3.932
 4571WAT     H114232   2.566   2.735   3.996
 4571WAT     H214233   2.683   2.640   3.984
 4572WAT      O14234   3.027   2.826   5.525
 4572WAT     H114235   3.101   2.860   5.475
 4572WAT     H214236   2.950   2.843   5.470
 4573WAT      O14237   2.188   2.586   4.121
 4573WAT     H114238   2.230   2.570   4.206
 4573WAT     H214239   2.200   2.505   4.072
 4574WAT      O14240   2.004   2.184   5.402
 4574WAT     H114241   1.951   2.135   5.339
 4574WAT     H214242   2.071   2.227   5.349
 4575WAT      O14243   2.439   2.489   3.846
 4575WAT     H114244   2.491   2.417   3.810
 4575WAT     H214245   2.504   2.553   3.876
 4576WAT      O14246   2.894   2.631   5.378
 4576WAT     H114247   2.935   2.647   5.463
 4576WAT     H214248   2.800   2.644   5.395
 4577WAT      O14249   2.053   1.881   5.410
 4577WAT     H114250   2.043   1.819   5.338
 4577WAT     H214251   1.995   1.954   5.387
 4578WAT      O14252   2.330   1.737   5.113
 4578WAT     H114253   2.285   1.739   5.029
 4578WAT     H214254   2.266   1.697   5.173
 4579WAT      O14255   2.370   2.626   5.175
 4579WAT     H114256   2.412   2.711   5.158
 4579WAT     H214257   2.278   2.640   5.153
 4580WAT      O14258   2.604   2.399   5.314
 4580WAT     H114259   2.616   2.340   5.388
 4580WAT     H214260   2.690   2.403   5.272
 4581WAT      O14261   2.838   2.455   5.171
 4581WAT     H114262   2.785   2.507   5.111
 4581WAT     H214263   2.872   2.518   5.235
 4582WAT      O14264   2.078   2.194   3.816
 4582WAT     H114265   2.057   2.107   3.852
 4582WAT     H214266   2.060   2.185   3.722
 4583WAT      O14267   2.155   3.257   5.287
 4583WAT     H114268   2.101   3.329   5.255
 4583WAT     H214269   2.181   3.209   5.208
 4584WAT      O14270   2.280   2.054   5.440
 4584WAT     H114271   2.339   2.023   5.508
 4584WAT     H214272   2.199   2.007   5.455
 4585WAT      O14273   2.762   2.015   5.463
 4585WAT     H114274   2.694   1.949   5.456
 4585WAT     H214275   2.834   1.971   5.507
 4586WAT      O14276   2.825   1.675   4.069
 4586WAT     H114277   2.853   1.591   4.104
 4586WAT     H214278   2.748   1.698   4.120
 4587WAT      O14279   1.957   1.904   3.815
 4587WAT     H114280   1.988   1.904   3.724
 4587WAT     H214281   2.031   1.869   3.864
 4588WAT      O14282   2.441   3.380   5.313
 4588WAT     H114283   2.433   3.471   5.344
 4588WAT     H214284   2.351   3.348   5.310
 4589WAT      O14285   2.279   1.798   3.913
 4589WAT     H114286   2.244   1.730   3.855
 4589WAT     H214287   2.299   1.752   3.995
 4590WAT      O14288   2.496   3.297   4.075
 4590WAT     H114289   2.585   3.331   4.077
 4590WAT     H214290   2.499   3.225   4.012
 4591WAT      O14291   1.860   2.834   3.898
 4591WAT     H114292   1.903   2.889   3.964
 4591WAT     H214293   1.908   2.752   3.899
 4592WAT      O14294   1.581   3.113   4.643
 4592WAT     H114295   1.614   3.026   4.620
 4592WAT     H214296   1.624   3.134   4.726
 4593WAT      O14297   2.041   2.946   4.409
 4593WAT     H114298   2.011   2.934   4.499
 4593WAT     H214299   2.030   2.860   4.368
 4594WAT      O14300   1.630   3.200   4.917
 4594WAT     H114301   1.586   3.218   5.000
 4594WAT     H214302   1.687   3.276   4.903
 4595WAT      O14303   3.194   3.150   5.346
 4595WAT     H114304   3.134   3.156   5.271
 4595WAT     H214305   3.207   3.056   5.359
 4596WAT      O14306   3.318   2.924   3.880
 4596WAT     H114307   3.235   2.931   3.927
 4596WAT     H214308   3.335   3.013   3.849
 4597WAT      O14309   3.263   2.599   4.130
 4597WAT     H114310   3.339   2.656   4.140
 4597WAT     H214311   3.265   2.542   4.207
 4598WAT      O14312   1.613   2.451   4.553
 4598WAT     H114313   1.548   2.424   4.489
 4598WAT     H214314   1.697   2.440   4.508
 4599WAT      O14315   3.364   2.684   4.614
 4599WAT     H114316   3.401   2.606   4.574
 4599WAT     H214317   3.428   2.753   4.596
 4600WAT      O14318   3.062   2.823   5.156
 4600WAT     H114319   2.981   2.865   5.182
 4600WAT     H214320   3.103   2.884   5.094
 4601WAT      O14321   3.268   2.628   3.846
 4601WAT     H114322   3.296   2.719   3.833
 4601WAT     H214323   3.250   2.622   3.939
 4602WAT      O14324   3.258   2.422   4.345
 4602WAT     H114325   3.220   2.345   4.302
 4602WAT     H214326   3.185   2.460   4.394
 4603WAT      O14327   1.717   2.490   5.007
 4603WAT     H114328   1.754   2.481   5.095
 4603WAT     H214329   1.660   2.413   4.997
 4604WAT      O14330   3.197   2.336   5.308
 4604WAT     H114331   3.174   2.314   5.218
 4604WAT     H214332   3.223   2.428   5.304
 4605WAT      O14333   1.672   2.181   5.398
 4605WAT     H114334   1.583   2.177   5.431
 4605WAT     H214335   1.726   2.201   5.474
 4606WAT      O14336   1.535   2.172   4.147
 4606WAT     H114337   1.444   2.198   4.130
 4606WAT     H214338   1.583   2.199   4.069
 4607WAT      O14339   3.186   2.244   4.675
 4607WAT     H114340   3.238   2.195   4.612
 4607WAT     H214341   3.244   2.258   4.749
 4608WAT      O14342   3.203   2.253   5.027
 4608WAT     H114343   3.108   2.249   5.039
 4608WAT     H214344   3.222   2.344   5.004
 4609WAT      O14345   1.789   2.078   3.938
 4609WAT     H114346   1.860   2.036   3.890
 4609WAT     H214347   1.717   2.084   3.875
 4610WAT      O14348   1.754   1.683   3.842
 4610WAT     H114349   1.826   1.737   3.874
 4610WAT     H214350   1.781   1.656   3.755
 4611WAT      O14351   3.135   2.170   4.269
 4611WAT     H114352   3.184   2.147   4.347
 4611WAT     H214353   3.115   2.086   4.227
 4612WAT      O14354   1.723   1.608   4.832
 4612WAT     H114355   1.787   1.553   4.788
 4612WAT     H214356   1.765   1.634   4.915
 4613WAT      O14357   3.277   2.034   4.522
 4613WAT     H114358   3.266   2.018   4.616
 4613WAT     H214359   3.354   1.981   4.498
 4614WAT      O14360   3.112   1.628   5.168
 4614WAT     H114361   3.176   1.689   5.205
 4614WAT     H214362   3.127   1.631   5.074
 4615WAT      O14363   3.366   1.817   3.846
 4615WAT     H114364   3.459   1.803   3.825
 4615WAT     H214365   3.364   1.825   3.942
 4616WAT      O14366   3.374   1.894   4.109
 4616WAT     H114367   3.294   1.887   4.162
 4616WAT     H214368   3.394   1.987   4.108
 4617WAT      O14369   3.068   3.298   4.508
 4617WAT     H114370   3.127   3.266   4.441
 4617WAT     H214371   3.094   3.250   4.587
 4618WAT      O14372   1.698   1.624   5.107
 4618WAT     H114373   1.663   1.669   5.183
 4618WAT     H214374   1.665   1.534   5.115
 4619WAT      O14375   2.229   3.096   5.083
 4619WAT     H114376   2.204   3.123   4.995
 4619WAT     H214377   2.323   3.114   5.089
 4620WAT      O14378   2.449   1.743   5.459
 4620WAT     H114379   2.443   1.802   5.534
 4620WAT     H214380   2.543   1.732   5.444
 4621WAT      O14381   2.713   1.709   5.423
 4621WAT     H114382   2.774   1.740   5.357
 4621WAT     H214383   2.767   1.660   5.485
 4622WAT      O14384   3.355   3.298   5.163
 4622WAT     H114385   3.305   3.338   5.092
 4622WAT     H214386   3.294   3.236   5.203
 4623WAT      O14387   1.765   1.576   5.434
 4623WAT     H114388   1.820   1.558   5.358
 4623WAT     H214389   1.772   1.497   5.488
 4624WAT      O14390   1.842   3.236   5.235
 4624WAT     H114391   1.783   3.222   5.309
 4624WAT     H214392   1.842   3.152   5.189
 4625WAT      O14393   2.787   1.565   5.055
 4625WAT     H114394   2.700   1.598   5.035
 4625WAT     H214395   2.776   1.518   5.138
 4626WAT      O14396   2.878   1.786   5.194
 4626WAT     H114397   2.845   1.704   5.156
 4626WAT     H214398   2.972   1.781   5.182
 4627WAT      O14399   3.123   3.363   4.891
 4627WAT     H114400   3.077   3.438   4.854
 4627WAT     H214401   3.060   3.291   4.885
 4628WAT      O14402   1.806   2.972   5.130
 4628WAT     H114403   1.733   2.910   5.123
 4628WAT     H214404   1.812   3.011   5.043
 4629WAT      O14405   2.166   3.194   4.809
 4629WAT     H114406   2.218   3.132   4.756
 4629WAT     H214407   2.231   3.244   4.858
 4630WAT      O14408   2.440   3.283   4.891
 4630WAT     H114409   2.469   3.257   4.804
 4630WAT     H214410   2.491   3.227   4.950
 4631WAT      O14411   2.562   1.657   4.949
 4631WAT     H114412   2.483   1.704   4.977
 4631WAT     H214413   2.532   1.566   4.938
 4632WAT      O14414   3.017   1.727   4.754
 4632WAT     H114415   3.061   1.721   4.669
 4632WAT     H214416   2.990   1.818   4.761
 4633WAT      O14417   3.203   1.690   4.555
 4633WAT     H114418   3.197   1.596   4.540
 4633WAT     H214419   3.281   1.701   4.609
 4634WAT      O14420   1.634   3.304   4.451
 4634WAT     H114421   1.617   3.241   4.521
 4634WAT     H214422   1.547   3.324   4.416
 4635WAT      O14423   1.696   1.687   4.201
 4635WAT     H114424   1.772   1.698   4.144
 4635WAT     H214425   1.650   1.771   4.197
 4636WAT      O14426   2.350   1.898   4.501
 4636WAT     H114427   2.269   1.861   4.466
 4636WAT     H214428   2.401   1.823   4.531
 4637WAT      O14429   2.800   1.565   4.624
 4637WAT     H114430   2.861   1.622   4.672
 4637WAT     H214431   2.726   1.621   4.602
 4638WAT      O14432   3.115   1.605   4.152
 4638WAT     H114433   3.134   1.695   4.178
 4638WAT     H214434   3.036   1.582   4.201
 4639WAT      O14435   1.794   3.173   4.196
 4639WAT     H114436   1.742   3.211   4.125
 4639WAT     H214437   1.787   3.236   4.268
 4640WAT      O14438   1.933   1.740   4.056
 4640WAT     H114439   1.986   1.661   4.043
 4640WAT     H214440   1.997   1.808   4.079
 4641WAT      O14441   2.153   1.713   4.361
 4641WAT     H114442   2.090   1.643   4.378
 4641WAT     H214443   2.099   1.789   4.339
 4642WAT      O14444   3.270   3.329   4.328
 4642WAT     H114445   3.288   3.260   4.263
 4642WAT     H214446   3.200   3.382   4.289
 4643WAT      O14447   2.054   3.368   4.083
 4643WAT     H114448   2.128   3.340   4.028
 4643WAT     H214449   2.080   3.344   4.172
 4644WAT      O14450   1.971   2.980   4.084
 4644WAT     H114451   1.908   3.026   4.138
 4644WAT     H214452   1.982   2.895   4.127
 4645WAT      O14453   1.931   2.594   2.974
 4645WAT     H114454   1.848   2.568   3.014
 4645WAT     H214455   1.992   2.601   3.048
 4646WAT      O14456   1.929   2.997   2.994
 4646WAT     H114457   1.959   2.908   2.976
 4646WAT     H214458   2.003   3.053   2.971
 4647WAT      O14459   1.692   1.891   3.120
 4647WAT     H114460   1.674   1.801   3.148
 4647WAT     H214461   1.652   1.945   3.187
 4648WAT      O14462   2.955   1.860   2.603
 4648WAT     H114463   3.037   1.811   2.608
 4648WAT     H214464   2.958   1.919   2.679
 4649WAT      O14465   2.002   1.709   3.316
 4649WAT     H114466   2.002   1.761   3.236
 4649WAT     H214467   1.919   1.661   3.314
 4650WAT      O14468   2.048   2.870   3.315
 4650WAT     H114469   2.110   2.937   3.287
 4650WAT     H214470   1.962   2.911   3.306
 4651WAT      O14471   1.577   2.789   2.203
 4651WAT     H114472   1.540   2.837   2.130
 4651WAT     H214473   1.603   2.856   2.267
 4652WAT      O14474   2.576   2.062   2.123
 4652WAT     H114475   2.482   2.079   2.131
 4652WAT     H214476   2.608   2.134   2.068
 4653WAT      O14477   2.094   2.830   3.583
 4653WAT     H114478   2.004   2.853   3.607
 4653WAT     H214479   2.096   2.843   3.488
 4654WAT      O14480   1.976   2.518   3.440
 4654WAT     H114481   1.962   2.605   3.477
 4654WAT     H214482   1.888   2.483   3.426
 4655WAT      O14483   2.156   3.112   3.661
 4655WAT     H114484   2.153   3.152   3.574
 4655WAT     H214485   2.140   3.019   3.645
 4656WAT      O14486   3.156   1.641   2.005
 4656WAT     H114487   3.125   1.650   2.095
 4656WAT     H214488   3.232   1.699   2.000
 4657WAT      O14489   1.572   2.695   3.032
 4657WAT     H114490   1.579   2.708   2.937
 4657WAT     H214491   1.633   2.624   3.051
 4658WAT      O14492   1.696   2.865   2.673
 4658WAT     H114493   1.655   2.879   2.587
 4658WAT     H214494   1.785   2.836   2.653
 4659WAT      O14495   3.292   2.909   3.507
 4659WAT     H114496   3.304   2.885   3.415
 4659WAT     H214497   3.296   2.826   3.554
 4660WAT      O14498   1.577   2.799   3.286
 4660WAT     H114499   1.593   2.752   3.204
 4660WAT     H214500   1.624   2.748   3.352
 4661WAT      O14501   2.366   1.674   2.278
 4661WAT     H114502   2.303   1.673   2.350
 4661WAT     H214503   2.357   1.587   2.238
 4662WAT      O14504   1.791   1.955   3.444
 4662WAT     H114505   1.751   2.040   3.465
 4662WAT     H214506   1.722   1.891   3.463
 4663WAT      O14507   1.521   1.747   2.847
 4663WAT     H114508   1.492   1.804   2.919
 4663WAT     H214509   1.595   1.699   2.884
 4664WAT      O14510   1.539   2.142   1.969
 4664WAT     H114511   1.531   2.236   1.983
 4664WAT     H214512   1.504   2.127   1.881
 4665WAT      O14513   1.735   2.736   3.502
 4665WAT     H114514   1.696   2.672   3.562
 4665WAT     H214515   1.766   2.807   3.559
 4666WAT      O14516   1.636   1.895   2.663
 4666WAT     H114517   1.607   1.859   2.747
 4666WAT     H214518   1.630   1.822   2.601
 4667WAT      O14519   2.603   1.785   2.335
 4667WAT     H114520   2.522   1.735   2.327
 4667WAT     H214521   2.584   1.869   2.293
 4668WAT      O14522   1.734   2.409   3.396
 4668WAT     H114523   1.698   2.476   3.455
 4668WAT     H214524   1.705   2.326   3.434
 4669WAT      O14525   2.054   2.455   3.685
 4669WAT     H114526   2.024   2.469   3.595
 4669WAT     H214527   2.131   2.399   3.676
 4670WAT      O14528   1.585   2.409   2.059
 4670WAT     H114529   1.672   2.437   2.087
 4670WAT     H214530   1.536   2.490   2.047
 4671WAT      O14531   1.892   1.582   2.518
 4671WAT     H114532   1.879   1.581   2.613
 4671WAT     H214533   1.809   1.616   2.483
 4672WAT      O14534   1.622   3.330   2.115
 4672WAT     H114535   1.658   3.390   2.050
 4672WAT     H214536   1.608   3.385   2.193
 4673WAT      O14537   1.592   1.758   3.464
 4673WAT     H114538   1.520   1.778   3.525
 4673WAT     H214539   1.634   1.680   3.501
 4674WAT      O14540   1.620   3.157   3.563
 4674WAT     H114541   1.631   3.063   3.549
 4674WAT     H214542   1.555   3.183   3.498
 4675WAT      O14543   2.419   2.984   3.703
 4675WAT     H114544   2.387   2.912   3.757
 4675WAT     H214545   2.352   3.052   3.710
 4676WAT      O14546   1.784   2.591   2.272
 4676WAT     H114547   1.723   2.665   2.273
 4676WAT     H214548   1.831   2.600   2.189
 4677WAT      O14549   2.678   1.803   2.606
 4677WAT     H114550   2.665   1.805   2.511
 4677WAT     H214551   2.772   1.808   2.618
 4678WAT      O14552   2.095   1.961   2.199
 4678WAT     H114553   2.180   2.005   2.193
 4678WAT     H214554   2.058   1.993   2.282
 4679WAT      O14555   1.854   2.330   2.115
 4679WAT     H114556   1.862   2.235   2.126
 4679WAT     H214557   1.943   2.363   2.125
 4680WAT      O14558   1.934   3.345   2.825
 4680WAT     H114559   2.008   3.290   2.852
 4680WAT     H214560   1.973   3.432   2.811
 4681WAT      O14561   1.623   2.952   2.413
 4681WAT     H114562   1.530   2.976   2.412
 4681WAT     H214563   1.669   3.034   2.400
 4682WAT      O14564   1.835   3.263   3.744
 4682WAT     H114565   1.915   3.296   3.785
 4682WAT     H214566   1.783   3.227   3.816
 4683WAT      O14567   2.719   2.874   3.739
 4683WAT     H114568   2.658   2.877   3.665
 4683WAT     H214569   2.688   2.801   3.792
 4684WAT      O14570   1.607   2.512   3.638
 4684WAT     H114571   1.657   2.454   3.696
 4684WAT     H214572   1.533   2.541   3.692
 4685WAT      O14573   2.312   2.653   3.592
 4685WAT     H114574   2.236   2.710   3.583
 4685WAT     H214575   2.330   2.624   3.502
 4686WAT      O14576   3.027   2.826   3.647
 4686WAT     H114577   3.101   2.860   3.597
 4686WAT     H214578   2.950   2.843   3.592
 4687WAT      O14579   1.810   2.327   3.728
 4687WAT     H114580   1.814   2.297   3.819
 4687WAT     H214581   1.896   2.367   3.712
 4688WAT      O14582   2.004   2.184   3.525
 4688WAT     H114583   1.951   2.135   3.462
 4688WAT     H214584   2.071   2.227   3.471
 4689WAT      O14585   2.053   1.881   3.533
 4689WAT     H114586   2.043   1.819   3.460
 4689WAT     H214587   1.995   1.954   3.510
 4690WAT      O14588   2.330   1.737   3.236
 4690WAT     H114589   2.285   1.739   3.151
 4690WAT     H214590   2.266   1.697   3.296
 4691WAT      O14591   2.078   2.194   1.938
 4691WAT     H114592   2.057   2.107   1.975
 4691WAT     H214593   2.060   2.185   1.845
 4692WAT      O14594   2.155   3.257   3.410
 4692WAT     H114595   2.101   3.329   3.378
 4692WAT     H214596   2.181   3.209   3.331
 4693WAT      O14597   2.825   1.675   2.191
 4693WAT     H114598   2.853   1.591   2.227
 4693WAT     H214599   2.748   1.698   2.243
 4694WAT      O14600   1.957   1.904   1.937
 4694WAT     H114601   1.988   1.904   1.846
 4694WAT     H214602   2.031   1.869   1.987
 4695WAT      O14603   2.279   1.798   2.036
 4695WAT     H114604   2.244   1.730   1.978
 4695WAT     H214605   2.299   1.752   2.117
 4696WAT      O14606   1.860   2.834   2.021
 4696WAT     H114607   1.903   2.889   2.086
 4696WAT     H214608   1.908   2.752   2.022
 4697WAT      O14609   1.581   3.113   2.766
 4697WAT     H114610   1.614   3.026   2.743
 4697WAT     H214611   1.624   3.134   2.849
 4698WAT      O14612   2.041   2.946   2.532
 4698WAT     H114613   2.011   2.934   2.622
 4698WAT     H214614   2.030   2.860   2.491
 4699WAT      O14615   1.630   3.200   3.040
 4699WAT     H114616   1.586   3.218   3.123
 4699WAT     H214617   1.687   3.276   3.025
 4700WAT      O14618   2.908   1.930   2.098
 4700WAT     H114619   2.950   1.912   2.014
 4700WAT     H214620   2.878   1.845   2.129
 4701WAT      O14621   1.717   2.490   3.130
 4701WAT     H114622   1.754   2.481   3.217
 4701WAT     H214623   1.660   2.413   3.120
 4702WAT      O14624   1.672   2.181   3.520
 4702WAT     H114625   1.583   2.177   3.554
 4702WAT     H214626   1.726   2.201   3.597
 4703WAT      O14627   1.535   2.172   2.270
 4703WAT     H114628   1.444   2.198   2.252
 4703WAT     H214629   1.583   2.199   2.192
 4704WAT      O14630   1.789   2.078   2.061
 4704WAT     H114631   1.860   2.036   2.012
 4704WAT     H214632   1.717   2.084   1.998
 4705WAT      O14633   1.754   1.683   1.965
 4705WAT     H114634   1.826   1.737   1.997
 4705WAT     H214635   1.781   1.656   1.877
 4706WAT      O14636   1.723   1.608   2.955
 4706WAT     H114637   1.787   1.553   2.911
 4706WAT     H214638   1.765   1.634   3.037
 4707WAT      O14639   3.277   2.034   2.645
 4707WAT     H114640   3.266   2.018   2.739
 4707WAT     H214641   3.354   1.981   2.621
 4708WAT      O14642   3.366   1.817   1.969
 4708WAT     H114643   3.459   1.803   1.948
 4708WAT     H214644   3.364   1.825   2.064
 4709WAT      O14645   3.374   1.894   2.231
 4709WAT     H114646   3.294   1.887   2.284
 4709WAT     H214647   3.394   1.987   2.230
 4710WAT      O14648   1.698   1.624   3.229
 4710WAT     H114649   1.663   1.669   3.306
 4710WAT     H214650   1.665   1.534   3.237
 4711WAT      O14651   1.859   2.941   3.646
 4711WAT     H114652   1.854   2.904   3.734
 4711WAT     H214653   1.872   3.035   3.660
 4712WAT      O14654   1.765   1.576   3.557
 4712WAT     H114655   1.820   1.558   3.480
 4712WAT     H214656   1.772   1.497   3.610
 4713WAT      O14657   1.842   3.236   3.358
 4713WAT     H114658   1.783   3.222   3.432
 4713WAT     H214659   1.842   3.152   3.311
 4714WAT      O14660   1.806   2.972   3.253
 4714WAT     H114661   1.733   2.910   3.246
 4714WAT     H214662   1.812   3.011   3.166
 4715WAT      O14663   2.562   1.657   3.072
 4715WAT     H114664   2.483   1.704   3.100
 4715WAT     H214665   2.532   1.566   3.061
 4716WAT      O14666   3.017   1.727   2.876
 4716WAT     H114667   3.061   1.721   2.792
 4716WAT     H214668   2.990   1.818   2.884
 4717WAT      O14669   3.203   1.690   2.678
 4717WAT     H114670   3.197   1.596   2.663
 4717WAT     H214671   3.281   1.701   2.732
 4718WAT      O14672   1.634   3.304   2.574
 4718WAT     H114673   1.617   3.241   2.644
 4718WAT     H214674   1.547   3.324   2.539
 4719WAT      O14675   1.696   1.687   2.324
 4719WAT     H114676   1.772   1.698   2.267
 4719WAT     H214677   1.650   1.771   2.319
 4720WAT      O14678   2.800   1.565   2.747
 4720WAT     H114679   2.861   1.622   2.794
 4720WAT     H214680   2.726   1.621   2.725
 4721WAT      O14681   3.115   1.605   2.274
 4721WAT     H114682   3.134   1.695   2.301
 4721WAT     H214683   3.036   1.582   2.324
 4722WAT      O14684   1.794   3.173   2.318
 4722WAT     H114685   1.742   3.211   2.248
 4722WAT     H214686   1.787   3.236   2.390
 4723WAT      O14687   1.933   1.740   2.178
 4723WAT     H114688   1.986   1.661   2.165
 4723WAT     H214689   1.997   1.808   2.201
 4724WAT      O14690   2.153   1.713   2.484
 4724WAT     H114691   2.090   1.643   2.500
 4724WAT     H214692   2.099   1.789   2.462
 4725WAT      O14693   2.447   3.375   3.751
 4725WAT     H114694   2.539   3.351   3.755
 4725WAT     H214695   2.445   3.458   3.703
 4726WAT      O14696   2.165   1.641   3.727
 4726WAT     H114697   2.137   1.692   3.651
 4726WAT     H214698   2.203   1.561   3.690
 4727WAT      O14699   1.971   2.980   2.206
 4727WAT     H114700   1.908   3.026   2.261
 4727WAT     H214701   1.982   2.895   2.250
 4728WAT      O14702   2.825   1.583   3.785
 4728WAT     H114703   2.814   1.615   3.874
 4728WAT     H214704   2.907   1.623   3.755
 4729WAT      O14705   2.716   2.385   0.821
 4729WAT     H114706   2.708   2.293   0.794
 4729WAT     H214707   2.675   2.434   0.751
 4730WAT      O14708   2.529   2.562   1.009
 4730WAT     H114709   2.452   2.514   1.038
 4730WAT     H214710   2.594   2.495   0.992
 4731WAT      O14711   1.931   2.594   1.097
 4731WAT     H114712   1.848   2.568   1.137
 4731WAT     H214713   1.992   2.601   1.171
 4732WAT      O14714   2.931   3.003   0.887
 4732WAT     H114715   2.885   2.926   0.920
 4732WAT     H214716   3.013   3.006   0.938
 4733WAT      O14717   1.929   2.997   1.117
 4733WAT     H114718   1.959   2.908   1.099
 4733WAT     H214719   2.003   3.053   1.094
 4734WAT      O14720   1.772   2.090   0.475
 4734WAT     H114721   1.683   2.124   0.465
 4734WAT     H214722   1.800   2.070   0.386
 4735WAT      O14723   1.568   2.350   1.064
 4735WAT     H114724   1.625   2.273   1.064
 4735WAT     H214725   1.568   2.380   0.973
 4736WAT      O14726   2.554   3.232   0.849
 4736WAT     H114727   2.492   3.277   0.792
 4736WAT     H214728   2.639   3.247   0.809
 4737WAT      O14729   2.473   2.830   1.010
 4737WAT     H114730   2.466   2.736   0.994
 4737WAT     H214731   2.549   2.839   1.067
 4738WAT      O14732   1.692   1.891   1.243
 4738WAT     H114733   1.674   1.801   1.271
 4738WAT     H214734   1.652   1.945   1.310
 4739WAT      O14735   2.576   2.111   1.033
 4739WAT     H114736   2.614   2.023   1.021
 4739WAT     H214737   2.567   2.144   0.944
 4740WAT      O14738   1.989   1.948   0.579
 4740WAT     H114739   2.000   2.038   0.610
 4740WAT     H214740   1.898   1.943   0.550
 4741WAT      O14741   2.955   1.860   0.726
 4741WAT     H114742   3.037   1.811   0.730
 4741WAT     H214743   2.958   1.919   0.801
 4742WAT      O14744   1.754   2.140   1.103
 4742WAT     H114745   1.822   2.167   1.165
 4742WAT     H214746   1.723   2.056   1.137
 4743WAT      O14747   2.173   2.245   1.012
 4743WAT     H114748   2.224   2.295   1.076
 4743WAT     H214749   2.227   2.167   0.995
 4744WAT      O14750   3.384   2.062   1.382
 4744WAT     H114751   3.313   2.101   1.331
 4744WAT     H214752   3.410   2.131   1.443
 4745WAT      O14753   2.002   1.709   1.439
 4745WAT     H114754   2.002   1.761   1.358
 4745WAT     H214755   1.919   1.661   1.436
 4746WAT      O14756   2.641   2.720   0.589
 4746WAT     H114757   2.579   2.767   0.532
 4746WAT     H214758   2.692   2.789   0.630
 4747WAT      O14759   2.127   2.673   1.256
 4747WAT     H114760   2.094   2.736   1.321
 4747WAT     H214761   2.145   2.725   1.179
 4748WAT      O14762   2.978   2.054   1.003
 4748WAT     H114763   2.908   2.083   1.061
 4748WAT     H214764   3.014   2.135   0.967
 4749WAT      O14765   1.970   1.880   1.239
 4749WAT     H114766   2.004   1.964   1.210
 4749WAT     H214767   1.876   1.895   1.251
 4750WAT      O14768   2.048   2.870   1.438
 4750WAT     H114769   2.110   2.937   1.410
 4750WAT     H214770   1.962   2.911   1.429
 4751WAT      O14771   1.577   2.789   0.326
 4751WAT     H114772   1.540   2.837   0.253
 4751WAT     H214773   1.603   2.856   0.389
 4752WAT      O14774   3.140   3.016   1.230
 4752WAT     H114775   3.071   3.083   1.229
 4752WAT     H214776   3.194   3.036   1.153
 4753WAT      O14777   3.285   1.999   1.042
 4753WAT     H114778   3.190   2.002   1.056
 4753WAT     H214779   3.318   2.080   1.081
 4754WAT      O14780   2.338   1.629   0.872
 4754WAT     H114781   2.369   1.573   0.800
 4754WAT     H214782   2.245   1.642   0.854
 4755WAT      O14783   2.893   3.200   1.101
 4755WAT     H114784   2.895   3.160   1.014
 4755WAT     H214785   2.838   3.278   1.091
 4756WAT      O14786   3.023   2.873   0.610
 4756WAT     H114787   3.012   2.778   0.622
 4756WAT     H214788   3.023   2.909   0.699
 4757WAT      O14789   2.833   2.691   1.234
 4757WAT     H114790   2.875   2.669   1.150
 4757WAT     H214791   2.906   2.716   1.291
 4758WAT      O14792   2.577   2.435   0.546
 4758WAT     H114793   2.484   2.429   0.568
 4758WAT     H214794   2.592   2.529   0.534
 4759WAT      O14795   2.576   2.062   0.245
 4759WAT     H114796   2.482   2.079   0.254
 4759WAT     H214797   2.608   2.134   0.191
 4760WAT      O14798   3.228   2.531   1.243
 4760WAT     H114799   3.145   2.538   1.195
 4760WAT     H214800   3.287   2.589   1.196
 4761WAT      O14801   2.980   2.591   0.596
 4761WAT     H114802   2.918   2.558   0.531
 4761WAT     H214803   2.978   2.527   0.667
 4762WAT      O14804   2.924   2.209   1.338
 4762WAT     H114805   2.883   2.292   1.363
 4762WAT     H214806   2.851   2.151   1.318
 4763WAT      O14807   2.138   2.488   0.824
 4763WAT     H114808   2.097   2.417   0.774
 4763WAT     H214809   2.146   2.453   0.913
 4764WAT      O14810   2.184   2.857   1.040
 4764WAT     H114811   2.155   2.796   0.972
 4764WAT     H214812   2.279   2.860   1.029
 4765WAT      O14813   2.009   2.165   1.202
 4765WAT     H114814   2.064   2.176   1.124
 4765WAT     H214815   2.060   2.203   1.273
 4766WAT      O14816   2.993   3.214   1.406
 4766WAT     H114817   2.946   3.295   1.387
 4766WAT     H214818   2.925   3.149   1.422
 4767WAT      O14819   2.094   2.830   1.705
 4767WAT     H114820   2.004   2.853   1.730
 4767WAT     H214821   2.096   2.843   1.610
 4768WAT      O14822   2.798   2.515   0.297
 4768WAT     H114823   2.842   2.432   0.282
 4768WAT     H214824   2.869   2.579   0.305
 4769WAT      O14825   1.976   2.518   1.563
 4769WAT     H114826   1.962   2.605   1.600
 4769WAT     H214827   1.888   2.483   1.548
 4770WAT      O14828   2.609   3.009   0.693
 4770WAT     H114829   2.653   3.084   0.652
 4770WAT     H214830   2.603   3.034   0.786
 4771WAT      O14831   2.156   3.112   1.784
 4771WAT     H114832   2.153   3.152   1.697
 4771WAT     H214833   2.140   3.019   1.767
 4772WAT      O14834   1.808   2.377   0.574
 4772WAT     H114835   1.796   2.450   0.513
 4772WAT     H214836   1.777   2.300   0.526
 4773WAT      O14837   1.572   2.695   1.154
 4773WAT     H114838   1.579   2.708   1.060
 4773WAT     H214839   1.633   2.624   1.174
 4774WAT      O14840   1.696   2.865   0.796
 4774WAT     H114841   1.655   2.879   0.710
 4774WAT     H214842   1.785   2.836   0.775
 4775WAT      O14843   3.292   2.909   1.629
 4775WAT     H114844   3.304   2.885   1.537
 4775WAT     H214845   3.296   2.826   1.676
 4776WAT      O14846   2.678   3.279   1.486
 4776WAT     H114847   2.729   3.271   1.566
 4776WAT     H214848   2.594   3.314   1.515
 4777WAT      O14849   2.875   3.308   0.429
 4777WAT     H114850   2.859   3.279   0.519
 4777WAT     H214851   2.859   3.230   0.375
 4778WAT      O14852   2.123   3.286   0.607
 4778WAT     H114853   2.106   3.194   0.585
 4778WAT     H214854   2.038   3.322   0.631
 4779WAT      O14855   2.846   3.059   0.285
 4779WAT     H114856   2.776   3.059   0.219
 4779WAT     H214857   2.920   3.016   0.242
 4780WAT      O14858   2.802   3.221   0.692
 4780WAT     H114859   2.848   3.143   0.724
 4780WAT     H214860   2.836   3.293   0.747
 4781WAT      O14861   3.277   2.114   1.726
 4781WAT     H114862   3.215   2.165   1.673
 4781WAT     H214863   3.245   2.024   1.720
 4782WAT      O14864   1.577   2.799   1.408
 4782WAT     H114865   1.593   2.752   1.327
 4782WAT     H214866   1.624   2.748   1.475
 4783WAT      O14867   2.054   1.712   0.912
 4783WAT     H114868   2.010   1.790   0.879
 4783WAT     H214869   2.110   1.744   0.983
 4784WAT      O14870   2.483   1.998   1.472
 4784WAT     H114871   2.437   2.019   1.554
 4784WAT     H214872   2.443   1.917   1.442
 4785WAT      O14873   2.366   1.674   0.400
 4785WAT     H114874   2.303   1.673   0.473
 4785WAT     H214875   2.357   1.587   0.360
 4786WAT      O14876   2.258   1.766   1.098
 4786WAT     H114877   2.288   1.857   1.090
 4786WAT     H214878   2.313   1.717   1.037
 4787WAT      O14879   2.033   2.224   0.685
 4787WAT     H114880   2.011   2.202   0.775
 4787WAT     H214881   1.955   2.267   0.650
 4788WAT      O14882   2.756   2.225   0.545
 4788WAT     H114883   2.697   2.297   0.526
 4788WAT     H214884   2.811   2.218   0.466
 4789WAT      O14885   2.277   2.314   1.751
 4789WAT     H114886   2.268   2.220   1.736
 4789WAT     H214887   2.362   2.336   1.712
 4790WAT      O14888   2.617   2.088   0.748
 4790WAT     H114889   2.656   2.120   0.666
 4790WAT     H214890   2.653   2.000   0.759
 4791WAT      O14891   1.791   1.955   1.567
 4791WAT     H114892   1.751   2.040   1.587
 4791WAT     H214893   1.722   1.891   1.586
 4792WAT      O14894   2.448   1.963   1.874
 4792WAT     H114895   2.379   1.944   1.937
 4792WAT     H214896   2.522   1.992   1.927
 4793WAT      O14897   1.521   1.747   0.970
 4793WAT     H114898   1.492   1.804   1.041
 4793WAT     H214899   1.595   1.699   1.006
 4794WAT      O14900   2.676   2.347   1.157
 4794WAT     H114901   2.602   2.398   1.192
 4794WAT     H214902   2.636   2.266   1.127
 4795WAT      O14903   2.319   2.015   0.998
 4795WAT     H114904   2.320   1.971   0.913
 4795WAT     H214905   2.409   2.047   1.009
 4796WAT      O14906   1.904   2.003   0.894
 4796WAT     H114907   1.870   2.051   0.969
 4796WAT     H214908   1.828   1.958   0.858
 4797WAT      O14909   2.326   2.115   0.297
 4797WAT     H114910   2.338   2.111   0.392
 4797WAT     H214911   2.287   2.201   0.281
 4798WAT      O14912   2.722   1.893   1.098
 4798WAT     H114913   2.724   1.938   1.183
 4798WAT     H214914   2.697   1.803   1.120
 4799WAT      O14915   2.227   2.346   0.237
 4799WAT     H114916   2.170   2.301   0.174
 4799WAT     H214917   2.298   2.382   0.183
 4800WAT      O14918   3.065   1.634   1.682
 4800WAT     H114919   3.097   1.561   1.735
 4800WAT     H214920   3.068   1.602   1.592
 4801WAT      O14921   1.735   2.736   1.624
 4801WAT     H114922   1.696   2.672   1.684
 4801WAT     H214923   1.766   2.807   1.681
 4802WAT      O14924   2.350   2.421   1.172
 4802WAT     H114925   2.386   2.374   1.247
 4802WAT     H214926   2.331   2.508   1.207
 4803WAT      O14927   1.636   1.895   0.785
 4803WAT     H114928   1.607   1.859   0.869
 4803WAT     H214929   1.630   1.822   0.724
 4804WAT      O14930   2.128   2.325   1.404
 4804WAT     H114931   2.098   2.413   1.427
 4804WAT     H214932   2.224   2.331   1.408
 4805WAT      O14933   1.981   2.746   0.464
 4805WAT     H114934   1.904   2.692   0.448
 4805WAT     H214935   2.054   2.694   0.430
 4806WAT      O14936   3.057   2.645   1.043
 4806WAT     H114937   3.129   2.695   1.004
 4806WAT     H214938   3.037   2.577   0.979
 4807WAT      O14939   2.603   1.785   0.458
 4807WAT     H114940   2.522   1.735   0.450
 4807WAT     H214941   2.584   1.869   0.416
 4808WAT      O14942   2.595   2.652   1.632
 4808WAT     H114943   2.589   2.560   1.606
 4808WAT     H214944   2.532   2.662   1.703
 4809WAT      O14945   2.875   2.222   0.287
 4809WAT     H114946   2.964   2.253   0.270
 4809WAT     H214947   2.872   2.135   0.248
 4810WAT      O14948   1.986   2.712   0.828
 4810WAT     H114949   2.037   2.632   0.822
 4810WAT     H214950   1.941   2.706   0.912
 4811WAT      O14951   2.474   2.839   0.355
 4811WAT     H114952   2.509   2.914   0.305
 4811WAT     H214953   2.392   2.870   0.391
 4812WAT      O14954   1.734   2.409   1.519
 4812WAT     H114955   1.698   2.476   1.578
 4812WAT     H214956   1.705   2.326   1.556
 4813WAT      O14957   2.054   2.455   1.807
 4813WAT     H114958   2.024   2.469   1.718
 4813WAT     H214959   2.131   2.399   1.798
 4814WAT      O14960   2.589   2.935   1.607
 4814WAT     H114961   2.590   2.841   1.585
 4814WAT     H214962   2.518   2.943   1.671
 4815WAT      O14963   3.210   2.599   1.542
 4815WAT     H114964   3.137   2.658   1.522
 4815WAT     H214965   3.262   2.598   1.462
 4816WAT      O14966   3.205   3.038   0.507
 4816WAT     H114967   3.141   2.973   0.534
 4816WAT     H214968   3.166   3.079   0.429
 4817WAT      O14969   2.763   2.771   0.891
 4817WAT     H114970   2.798   2.712   0.825
 4817WAT     H214971   2.674   2.739   0.909
 4818WAT      O14972   2.371   2.847   0.632
 4818WAT     H114973   2.440   2.902   0.670
 4818WAT     H214974   2.293   2.902   0.636
 4819WAT      O14975   1.585   2.409   0.181
 4819WAT     H114976   1.672   2.437   0.210
 4819WAT     H214977   1.536   2.490   0.170
 4820WAT      O14978   2.302   2.548   0.593
 4820WAT     H114979   2.347   2.629   0.616
 4820WAT     H214980   2.266   2.516   0.677
 4821WAT      O14981   2.532   3.099   1.316
 4821WAT     H114982   2.596   3.119   1.384
 4821WAT     H214983   2.568   3.023   1.271
 4822WAT      O14984   1.892   1.582   0.641
 4822WAT     H114985   1.879   1.581   0.736
 4822WAT     H214986   1.809   1.616   0.606
 4823WAT      O14987   2.659   2.899   1.188
 4823WAT     H114988   2.723   2.829   1.199
 4823WAT     H214989   2.712   2.977   1.170
 4824WAT      O14990   2.837   2.979   1.508
 4824WAT     H114991   2.870   3.038   1.576
 4824WAT     H214992   2.745   2.966   1.531
 4825WAT      O14993   1.622   3.330   0.238
 4825WAT     H114994   1.658   3.390   0.173
 4825WAT     H214995   1.608   3.385   0.315
 4826WAT      O14996   1.592   1.758   1.587
 4826WAT     H114997   1.520   1.778   1.647
 4826WAT     H214998   1.634   1.680   1.624
 4827WAT      O14999   3.002   2.719   0.327
 4827WAT     H115000   2.973   2.765   0.405
 4827WAT     H215001   3.081   2.673   0.354
 4828WAT      O15002   1.620   3.157   1.685
 4828WAT     H115003   1.631   3.063   1.671
 4828WAT     H215004   1.555   3.183   1.621
 4829WAT      O15005   2.419   2.984   1.825
 4829WAT     H115006   2.387   2.912   1.880
 4829WAT     H215007   2.352   3.052   1.833
 4830WAT      O15008   2.224   3.069   0.320
 4830WAT     H115009   2.223   3.142   0.258
 4830WAT     H215010   2.132   3.044   0.329
 4831WAT      O15011   1.784   2.591   0.394
 4831WAT     H115012   1.723   2.665   0.395
 4831WAT     H215013   1.831   2.600   0.312
 4832WAT      O15014   2.741   2.007   1.362
 4832WAT     H115015   2.778   1.925   1.395
 4832WAT     H215016   2.655   2.013   1.403
 4833WAT      O15017   3.078   1.903   0.443
 4833WAT     H115018   3.015   1.913   0.371
 4833WAT     H215019   3.028   1.925   0.522
 4834WAT      O15020   2.274   2.131   0.584
 4834WAT     H115021   2.204   2.178   0.628
 4834WAT     H215022   2.303   2.065   0.648
 4835WAT      O15023   2.437   2.273   1.384
 4835WAT     H115024   2.487   2.320   1.451
 4835WAT     H215025   2.451   2.180   1.405
 4836WAT      O15026   2.678   1.803   0.728
 4836WAT     H115027   2.665   1.805   0.633
 4836WAT     H215028   2.772   1.808   0.740
 4837WAT      O15029   2.386   3.327   0.655
 4837WAT     H115030   2.412   3.323   0.563
 4837WAT     H215031   2.292   3.314   0.655
 4838WAT      O15032   2.095   1.961   0.322
 4838WAT     H115033   2.180   2.005   0.315
 4838WAT     H215034   2.058   1.993   0.404
 4839WAT      O15035   3.158   1.894   1.468
 4839WAT     H115036   3.107   1.968   1.502
 4839WAT     H215037   3.239   1.933   1.437
 4840WAT      O15038   2.987   2.419   0.813
 4840WAT     H115039   2.893   2.420   0.830
 4840WAT     H215040   3.018   2.340   0.858
 4841WAT      O15041   1.854   2.330   0.237
 4841WAT     H115042   1.862   2.235   0.249
 4841WAT     H215043   1.943   2.363   0.248
 4842WAT      O15044   3.187   3.136   0.981
 4842WAT     H115045   3.200   3.218   1.028
 4842WAT     H215046   3.274   3.115   0.946
 4843WAT      O15047   1.934   3.345   0.948
 4843WAT     H115048   2.008   3.290   0.975
 4843WAT     H215049   1.973   3.432   0.934
 4844WAT      O15050   1.623   2.952   0.535
 4844WAT     H115051   1.530   2.976   0.534
 4844WAT     H215052   1.669   3.034   0.523
 4845WAT      O15053   1.835   3.263   1.867
 4845WAT     H115054   1.915   3.296   1.908
 4845WAT     H215055   1.783   3.227   1.939
 4846WAT      O15056   2.862   3.247   1.722
 4846WAT     H115057   2.957   3.239   1.717
 4846WAT     H215058   2.847   3.313   1.790
 4847WAT      O15059   3.151   3.185   0.272
 4847WAT     H115060   3.122   3.144   0.191
 4847WAT     H215061   3.131   3.278   0.260
 4848WAT      O15062   1.607   2.512   1.761
 4848WAT     H115063   1.657   2.454   1.818
 4848WAT     H215064   1.533   2.541   1.815
 4849WAT      O15065   2.312   2.653   1.714
 4849WAT     H115066   2.236   2.710   1.706
 4849WAT     H215067   2.330   2.624   1.625
 4850WAT      O15068   2.621   2.691   0.177
 4850WAT     H115069   2.566   2.735   0.241
 4850WAT     H215070   2.683   2.640   0.229
 4851WAT      O15071   1.810   2.327   1.850
 4851WAT     H115072   1.814   2.297   1.941
 4851WAT     H215073   1.896   2.367   1.835
 4852WAT      O15074   2.188   2.586   0.366
 4852WAT     H115075   2.230   2.570   0.451
 4852WAT     H215076   2.200   2.505   0.317
 4853WAT      O15077   2.004   2.184   1.647
 4853WAT     H115078   1.951   2.135   1.584
 4853WAT     H215079   2.071   2.227   1.594
 4854WAT      O15080   2.053   1.881   1.655
 4854WAT     H115081   2.043   1.819   1.583
 4854WAT     H215082   1.995   1.954   1.632
 4855WAT      O15083   2.330   1.737   1.358
 4855WAT     H115084   2.285   1.739   1.274
 4855WAT     H215085   2.266   1.697   1.418
 4856WAT      O15086   2.370   2.626   1.421
 4856WAT     H115087   2.412   2.711   1.403
 4856WAT     H215088   2.278   2.640   1.398
 4857WAT      O15089   2.604   2.399   1.559
 4857WAT     H115090   2.616   2.340   1.633
 4857WAT     H215091   2.690   2.403   1.517
 4858WAT      O15092   2.838   2.455   1.417
 4858WAT     H115093   2.785   2.507   1.356
 4858WAT     H215094   2.872   2.518   1.480
 4859WAT      O15095   2.155   3.257   1.532
 4859WAT     H115096   2.101   3.329   1.500
 4859WAT     H215097   2.181   3.209   1.453
 4860WAT      O15098   2.280   2.054   1.685
 4860WAT     H115099   2.339   2.023   1.753
 4860WAT     H215100   2.199   2.007   1.700
 4861WAT      O15101   2.825   1.675   0.314
 4861WAT     H115102   2.853   1.591   0.350
 4861WAT     H215103   2.748   1.698   0.365
 4862WAT      O15104   2.441   3.380   1.558
 4862WAT     H115105   2.433   3.471   1.589
 4862WAT     H215106   2.351   3.348   1.555
 4863WAT      O15107   2.496   3.297   0.320
 4863WAT     H115108   2.585   3.331   0.322
 4863WAT     H215109   2.499   3.225   0.258
 4864WAT      O15110   1.581   3.113   0.888
 4864WAT     H115111   1.614   3.026   0.865
 4864WAT     H215112   1.624   3.134   0.971
 4865WAT      O15113   2.041   2.946   0.654
 4865WAT     H115114   2.011   2.934   0.744
 4865WAT     H215115   2.030   2.860   0.614
 4866WAT      O15116   1.630   3.200   1.162
 4866WAT     H115117   1.586   3.218   1.245
 4866WAT     H215118   1.687   3.276   1.148
 4867WAT      O15119   3.194   3.150   1.591
 4867WAT     H115120   3.134   3.156   1.517
 4867WAT     H215121   3.207   3.056   1.604
 4868WAT      O15122   3.263   2.599   0.375
 4868WAT     H115123   3.339   2.656   0.386
 4868WAT     H215124   3.265   2.542   0.452
 4869WAT      O15125   1.613   2.451   0.798
 4869WAT     H115126   1.548   2.424   0.734
 4869WAT     H215127   1.697   2.440   0.753
 4870WAT      O15128   3.364   2.684   0.859
 4870WAT     H115129   3.401   2.606   0.819
 4870WAT     H215130   3.428   2.753   0.842
 4871WAT      O15131   3.062   2.823   1.401
 4871WAT     H115132   2.981   2.865   1.427
 4871WAT     H215133   3.103   2.884   1.339
 4872WAT      O15134   3.258   2.422   0.590
 4872WAT     H115135   3.220   2.345   0.547
 4872WAT     H215136   3.185   2.460   0.639
 4873WAT      O15137   1.717   2.490   1.252
 4873WAT     H115138   1.754   2.481   1.340
 4873WAT     H215139   1.660   2.413   1.242
 4874WAT      O15140   3.197   2.336   1.553
 4874WAT     H115141   3.174   2.314   1.463
 4874WAT     H215142   3.223   2.428   1.549
 4875WAT      O15143   1.672   2.181   1.643
 4875WAT     H115144   1.583   2.177   1.677
 4875WAT     H215145   1.726   2.201   1.719
 4876WAT      O15146   3.041   1.859   1.831
 4876WAT     H115147   3.129   1.860   1.870
 4876WAT     H215148   3.042   1.785   1.770
 4877WAT      O15149   1.535   2.172   0.392
 4877WAT     H115150   1.444   2.198   0.375
 4877WAT     H215151   1.583   2.199   0.314
 4878WAT      O15152   3.186   2.244   0.920
 4878WAT     H115153   3.238   2.195   0.857
 4878WAT     H215154   3.244   2.258   0.995
 4879WAT      O15155   3.203   2.253   1.272
 4879WAT     H115156   3.108   2.249   1.284
 4879WAT     H215157   3.222   2.344   1.249
 4880WAT      O15158   3.135   2.170   0.514
 4880WAT     H115159   3.184   2.147   0.592
 4880WAT     H215160   3.115   2.086   0.472
 4881WAT      O15161   1.723   1.608   1.077
 4881WAT     H115162   1.787   1.553   1.033
 4881WAT     H215163   1.765   1.634   1.160
 4882WAT      O15164   3.277   2.034   0.767
 4882WAT     H115165   3.266   2.018   0.861
 4882WAT     H215166   3.354   1.981   0.743
 4883WAT      O15167   3.112   1.628   1.413
 4883WAT     H115168   3.176   1.689   1.450
 4883WAT     H215169   3.127   1.631   1.319
 4884WAT      O15170   3.374   1.894   0.354
 4884WAT     H115171   3.294   1.887   0.407
 4884WAT     H215172   3.394   1.987   0.353
 4885WAT      O15173   3.068   3.298   0.753
 4885WAT     H115174   3.127   3.266   0.686
 4885WAT     H215175   3.094   3.250   0.833
 4886WAT      O15176   1.698   1.624   1.352
 4886WAT     H115177   1.663   1.669   1.428
 4886WAT     H215178   1.665   1.534   1.360
 4887WAT      O15179   1.859   2.941   1.768
 4887WAT     H115180   1.854   2.904   1.856
 4887WAT     H215181   1.872   3.035   1.782
 4888WAT      O15182   2.229   3.096   1.328
 4888WAT     H115183   2.204   3.123   1.240
 4888WAT     H215184   2.323   3.114   1.334
 4889WAT      O15185   2.449   1.743   1.704
 4889WAT     H115186   2.443   1.802   1.779
 4889WAT     H215187   2.543   1.732   1.689
 4890WAT      O15188   2.713   1.709   1.668
 4890WAT     H115189   2.774   1.740   1.602
 4890WAT     H215190   2.767   1.660   1.730
 4891WAT      O15191   3.355   3.298   1.408
 4891WAT     H115192   3.305   3.338   1.337
 4891WAT     H215193   3.294   3.236   1.448
 4892WAT      O15194   1.765   1.576   1.679
 4892WAT     H115195   1.820   1.558   1.603
 4892WAT     H215196   1.772   1.497   1.733
 4893WAT      O15197   1.842   3.236   1.480
 4893WAT     H115198   1.783   3.222   1.554
 4893WAT     H215199   1.842   3.152   1.434
 4894WAT      O15200   2.787   1.565   1.301
 4894WAT     H115201   2.700   1.598   1.280
 4894WAT     H215202   2.776   1.518   1.383
 4895WAT      O15203   2.878   1.786   1.439
 4895WAT     H115204   2.845   1.704   1.401
 4895WAT     H215205   2.972   1.781   1.427
 4896WAT      O15206   3.123   3.363   1.136
 4896WAT     H115207   3.077   3.438   1.099
 4896WAT     H215208   3.060   3.291   1.131
 4897WAT      O15209   1.806   2.972   1.375
 4897WAT     H115210   1.733   2.910   1.369
 4897WAT     H215211   1.812   3.011   1.288
 4898WAT      O15212   2.166   3.194   1.054
 4898WAT     H115213   2.218   3.132   1.001
 4898WAT     H215214   2.231   3.244   1.103
 4899WAT      O15215   2.440   3.283   1.137
 4899WAT     H115216   2.469   3.257   1.049
 4899WAT     H215217   2.491   3.227   1.196
 4900WAT      O15218   2.562   1.657   1.194
 4900WAT     H115219   2.483   1.704   1.222
 4900WAT     H215220   2.532   1.566   1.184
 4901WAT      O15221   3.017   1.727   0.999
 4901WAT     H115222   3.061   1.721   0.914
 4901WAT     H215223   2.990   1.818   1.006
 4902WAT      O15224   3.203   1.690   0.800
 4902WAT     H115225   3.197   1.596   0.785
 4902WAT     H215226   3.281   1.701   0.855
 4903WAT      O15227   1.634   3.304   0.696
 4903WAT     H115228   1.617   3.241   0.766
 4903WAT     H215229   1.547   3.324   0.661
 4904WAT      O15230   1.696   1.687   0.447
 4904WAT     H115231   1.772   1.698   0.389
 4904WAT     H215232   1.650   1.771   0.442
 4905WAT      O15233   2.350   1.898   0.746
 4905WAT     H115234   2.269   1.861   0.712
 4905WAT     H215235   2.401   1.823   0.776
 4906WAT      O15236   2.800   1.565   0.869
 4906WAT     H115237   2.861   1.622   0.917
 4906WAT     H215238   2.726   1.621   0.847
 4907WAT      O15239   3.115   1.605   0.397
 4907WAT     H115240   3.134   1.695   0.424
 4907WAT     H215241   3.036   1.582   0.446
 4908WAT      O15242   1.794   3.173   0.441
 4908WAT     H115243   1.742   3.211   0.370
 4908WAT     H215244   1.787   3.236   0.513
 4909WAT      O15245   1.933   1.740   0.301
 4909WAT     H115246   1.986   1.661   0.288
 4909WAT     H215247   1.997   1.808   0.324
 4910WAT      O15248   2.153   1.713   0.606
 4910WAT     H115249   2.090   1.643   0.623
 4910WAT     H215250   2.099   1.789   0.584
 4911WAT      O15251   3.270   3.329   0.573
 4911WAT     H115252   3.288   3.260   0.509
 4911WAT     H215253   3.200   3.382   0.534
 4912WAT      O15254   2.165   1.641   1.850
 4912WAT     H115255   2.137   1.692   1.773
 4912WAT     H215256   2.203   1.561   1.813
 4913WAT      O15257   2.054   3.368   0.328
 4913WAT     H115258   2.128   3.340   0.274
 4913WAT     H215259   2.080   3.344   0.417
 4914WAT      O15260   1.971   2.980   0.329
 4914WAT     H115261   1.908   3.026   0.384
 4914WAT     H215262   1.982   2.895   0.372
 4915WAT      O15263   2.825   1.583   1.907
 4915WAT     H115264   2.814   1.615   1.997
 4915WAT     H215265   2.907   1.623   1.878
 4916WAT      O15266   3.103   3.297   1.856
 4916WAT     H115267   3.183   3.248   1.835
 4916WAT     H215268   3.133   3.365   1.916
 4917WAT      O15269   2.716   0.507   4.576
 4917WAT     H115270   2.708   0.416   4.549
 4917WAT     H215271   2.675   0.557   4.505
 4918WAT      O15272   2.529   0.685   4.764
 4918WAT     H115273   2.452   0.637   4.793
 4918WAT     H215274   2.594   0.617   4.747
 4919WAT      O15275   1.931   0.716   4.852
 4919WAT     H115276   1.848   0.691   4.892
 4919WAT     H215277   1.992   0.723   4.926
 4920WAT      O15278   2.931   1.126   4.642
 4920WAT     H115279   2.885   1.049   4.675
 4920WAT     H215280   3.013   1.128   4.693
 4921WAT      O15281   1.929   1.120   4.872
 4921WAT     H115282   1.959   1.031   4.854
 4921WAT     H215283   2.003   1.175   4.849
 4922WAT      O15284   1.772   0.212   4.230
 4922WAT     H115285   1.683   0.246   4.220
 4922WAT     H215286   1.800   0.192   4.141
 4923WAT      O15287   1.568   0.472   4.819
 4923WAT     H115288   1.625   0.396   4.819
 4923WAT     H215289   1.568   0.502   4.728
 4924WAT      O15290   2.554   1.354   4.604
 4924WAT     H115291   2.492   1.400   4.547
 4924WAT     H215292   2.639   1.370   4.564
 4925WAT      O15293   2.473   0.953   4.765
 4925WAT     H115294   2.466   0.859   4.749
 4925WAT     H215295   2.549   0.962   4.822
 4926WAT      O15296   1.754   0.263   4.858
 4926WAT     H115297   1.822   0.289   4.920
 4926WAT     H215298   1.723   0.179   4.892
 4927WAT      O15299   2.173   0.367   4.767
 4927WAT     H115300   2.224   0.417   4.831
 4927WAT     H215301   2.227   0.290   4.749
 4928WAT      O15302   3.384   0.184   5.137
 4928WAT     H115303   3.313   0.223   5.085
 4928WAT     H215304   3.410   0.254   5.197
 4929WAT      O15305   2.641   0.843   4.344
 4929WAT     H115306   2.579   0.889   4.287
 4929WAT     H215307   2.692   0.912   4.385
 4930WAT      O15308   2.127   0.795   5.011
 4930WAT     H115309   2.094   0.858   5.076
 4930WAT     H215310   2.145   0.848   4.933
 4931WAT      O15311   2.978   0.177   4.758
 4931WAT     H115312   2.908   0.206   4.816
 4931WAT     H215313   3.014   0.258   4.722
 4932WAT      O15314   2.048   0.992   5.193
 4932WAT     H115315   2.110   1.060   5.165
 4932WAT     H215316   1.962   1.033   5.184
 4933WAT      O15317   1.577   0.911   4.081
 4933WAT     H115318   1.540   0.960   4.008
 4933WAT     H215319   1.603   0.978   4.144
 4934WAT      O15320   3.140   1.139   4.984
 4934WAT     H115321   3.071   1.206   4.984
 4934WAT     H215322   3.194   1.158   4.908
 4935WAT      O15323   2.893   1.323   4.856
 4935WAT     H115324   2.895   1.283   4.769
 4935WAT     H215325   2.838   1.400   4.845
 4936WAT      O15326   3.023   0.995   4.365
 4936WAT     H115327   3.012   0.901   4.377
 4936WAT     H215328   3.023   1.031   4.453
 4937WAT      O15329   2.833   0.813   4.989
 4937WAT     H115330   2.875   0.792   4.905
 4937WAT     H215331   2.906   0.839   5.046
 4938WAT      O15332   2.577   0.558   4.300
 4938WAT     H115333   2.484   0.551   4.323
 4938WAT     H215334   2.592   0.652   4.289
 4939WAT      O15335   2.576   0.185   4.000
 4939WAT     H115336   2.482   0.201   4.009
 4939WAT     H215337   2.608   0.257   3.945
 4940WAT      O15338   3.228   0.653   4.998
 4940WAT     H115339   3.145   0.660   4.950
 4940WAT     H215340   3.287   0.712   4.951
 4941WAT      O15341   2.980   0.714   4.351
 4941WAT     H115342   2.918   0.680   4.286
 4941WAT     H215343   2.978   0.650   4.422
 4942WAT      O15344   2.924   0.332   5.092
 4942WAT     H115345   2.883   0.414   5.118
 4942WAT     H215346   2.851   0.273   5.073
 4943WAT      O15347   2.138   0.610   4.579
 4943WAT     H115348   2.097   0.539   4.529
 4943WAT     H215349   2.146   0.576   4.667
 4944WAT      O15350   2.184   0.979   4.795
 4944WAT     H115351   2.155   0.919   4.727
 4944WAT     H215352   2.279   0.983   4.784
 4945WAT      O15353   2.009   0.288   4.957
 4945WAT     H115354   2.064   0.299   4.879
 4945WAT     H215355   2.060   0.325   5.028
 4946WAT      O15356   2.993   1.336   5.161
 4946WAT     H115357   2.946   1.417   5.142
 4946WAT     H215358   2.925   1.271   5.176
 4947WAT      O15359   2.094   0.953   5.460
 4947WAT     H115360   2.004   0.975   5.485
 4947WAT     H215361   2.096   0.965   5.365
 4948WAT      O15362   2.798   0.638   4.051
 4948WAT     H115363   2.842   0.554   4.037
 4948WAT     H215364   2.869   0.701   4.060
 4949WAT      O15365   1.976   0.640   5.318
 4949WAT     H115366   1.962   0.727   5.354
 4949WAT     H215367   1.888   0.606   5.303
 4950WAT      O15368   2.609   1.132   4.448
 4950WAT     H115369   2.653   1.206   4.407
 4950WAT     H215370   2.603   1.156   4.541
 4951WAT      O15371   2.156   1.234   5.538
 4951WAT     H115372   2.153   1.275   5.452
 4951WAT     H215373   2.140   1.141   5.522
 4952WAT      O15374   1.808   0.500   4.329
 4952WAT     H115375   1.796   0.573   4.267
 4952WAT     H215376   1.777   0.423   4.281
 4953WAT      O15377   1.572   0.817   4.909
 4953WAT     H115378   1.579   0.831   4.815
 4953WAT     H215379   1.633   0.746   4.929
 4954WAT      O15380   1.696   0.987   4.550
 4954WAT     H115381   1.655   1.001   4.465
 4954WAT     H215382   1.785   0.959   4.530
 4955WAT      O15383   3.292   1.032   5.384
 4955WAT     H115384   3.304   1.008   5.292
 4955WAT     H215385   3.296   0.949   5.431
 4956WAT      O15386   2.678   1.402   5.241
 4956WAT     H115387   2.729   1.393   5.321
 4956WAT     H215388   2.594   1.437   5.270
 4957WAT      O15389   2.875   1.431   4.184
 4957WAT     H115390   2.859   1.402   4.274
 4957WAT     H215391   2.859   1.353   4.130
 4958WAT      O15392   2.123   1.409   4.362
 4958WAT     H115393   2.106   1.317   4.340
 4958WAT     H215394   2.038   1.444   4.386
 4959WAT      O15395   2.846   1.181   4.040
 4959WAT     H115396   2.776   1.181   3.974
 4959WAT     H215397   2.920   1.139   3.997
 4960WAT      O15398   2.802   1.344   4.447
 4960WAT     H115399   2.848   1.266   4.479
 4960WAT     H215400   2.836   1.415   4.502
 4961WAT      O15401   1.577   0.921   5.163
 4961WAT     H115402   1.593   0.874   5.081
 4961WAT     H215403   1.624   0.870   5.230
 4962WAT      O15404   2.983   0.243   5.340
 4962WAT     H115405   2.898   0.213   5.372
 4962WAT     H215406   2.967   0.267   5.249
 4963WAT      O15407   2.693   0.393   5.550
 4963WAT     H115408   2.725   0.310   5.516
 4963WAT     H215409   2.771   0.445   5.565
 4964WAT      O15410   2.033   0.347   4.440
 4964WAT     H115411   2.011   0.325   4.530
 4964WAT     H215412   1.955   0.390   4.405
 4965WAT      O15413   2.756   0.347   4.300
 4965WAT     H115414   2.697   0.420   4.281
 4965WAT     H215415   2.811   0.341   4.221
 4966WAT      O15416   2.277   0.436   5.506
 4966WAT     H115417   2.268   0.342   5.491
 4966WAT     H215418   2.362   0.459   5.467
 4967WAT      O15419   1.539   0.264   3.846
 4967WAT     H115420   1.531   0.358   3.860
 4967WAT     H215421   1.504   0.250   3.758
 4968WAT      O15422   2.676   0.470   4.912
 4968WAT     H115423   2.602   0.521   4.947
 4968WAT     H215424   2.636   0.388   4.882
 4969WAT      O15425   2.326   0.238   4.052
 4969WAT     H115426   2.338   0.233   4.147
 4969WAT     H215427   2.287   0.324   4.036
 4970WAT      O15428   2.227   0.469   3.992
 4970WAT     H115429   2.170   0.424   3.929
 4970WAT     H215430   2.298   0.505   3.938
 4971WAT      O15431   1.735   0.859   5.379
 4971WAT     H115432   1.696   0.795   5.439
 4971WAT     H215433   1.766   0.929   5.436
 4972WAT      O15434   2.350   0.544   4.927
 4972WAT     H115435   2.386   0.496   5.002
 4972WAT     H215436   2.331   0.631   4.961
 4973WAT      O15437   2.128   0.448   5.159
 4973WAT     H115438   2.098   0.536   5.182
 4973WAT     H215439   2.224   0.454   5.163
 4974WAT      O15440   1.981   0.868   4.219
 4974WAT     H115441   1.904   0.814   4.203
 4974WAT     H215442   2.054   0.816   4.185
 4975WAT      O15443   3.057   0.768   4.798
 4975WAT     H115444   3.129   0.817   4.759
 4975WAT     H215445   3.037   0.700   4.734
 4976WAT      O15446   2.595   0.775   5.387
 4976WAT     H115447   2.589   0.683   5.361
 4976WAT     H215448   2.532   0.785   5.458
 4977WAT      O15449   2.875   0.344   4.042
 4977WAT     H115450   2.964   0.376   4.025
 4977WAT     H215451   2.872   0.257   4.003
 4978WAT      O15452   1.986   0.835   4.583
 4978WAT     H115453   2.037   0.755   4.577
 4978WAT     H215454   1.941   0.829   4.667
 4979WAT      O15455   2.474   0.962   4.110
 4979WAT     H115456   2.509   1.036   4.060
 4979WAT     H215457   2.392   0.993   4.146
 4980WAT      O15458   1.734   0.532   5.274
 4980WAT     H115459   1.698   0.598   5.333
 4980WAT     H215460   1.705   0.448   5.311
 4981WAT      O15461   2.054   0.577   5.562
 4981WAT     H115462   2.024   0.592   5.473
 4981WAT     H215463   2.131   0.522   5.553
 4982WAT      O15464   2.589   1.057   5.362
 4982WAT     H115465   2.590   0.964   5.340
 4982WAT     H215466   2.518   1.066   5.426
 4983WAT      O15467   3.102   0.476   3.989
 4983WAT     H115468   3.094   0.519   3.904
 4983WAT     H215469   3.174   0.522   4.032
 4984WAT      O15470   3.210   0.721   5.297
 4984WAT     H115471   3.137   0.781   5.277
 4984WAT     H215472   3.262   0.720   5.217
 4985WAT      O15473   3.205   1.161   4.262
 4985WAT     H115474   3.141   1.096   4.289
 4985WAT     H215475   3.166   1.202   4.184
 4986WAT      O15476   2.763   0.894   4.646
 4986WAT     H115477   2.798   0.834   4.580
 4986WAT     H215478   2.674   0.861   4.663
 4987WAT      O15479   2.371   0.970   4.387
 4987WAT     H115480   2.440   1.024   4.425
 4987WAT     H215481   2.293   1.024   4.391
 4988WAT      O15482   1.585   0.532   3.936
 4988WAT     H115483   1.672   0.560   3.965
 4988WAT     H215484   1.536   0.613   3.925
 4989WAT      O15485   2.302   0.670   4.348
 4989WAT     H115486   2.347   0.751   4.371
 4989WAT     H215487   2.266   0.638   4.431
 4990WAT      O15488   2.532   1.221   5.071
 4990WAT     H115489   2.596   1.242   5.139
 4990WAT     H215490   2.568   1.145   5.026
 4991WAT      O15491   2.659   1.022   4.943
 4991WAT     H115492   2.723   0.952   4.954
 4991WAT     H215493   2.712   1.100   4.925
 4992WAT      O15494   3.044   1.050   3.915
 4992WAT     H115495   3.021   0.978   3.975
 4992WAT     H215496   3.005   1.025   3.832
 4993WAT      O15497   2.837   1.102   5.263
 4993WAT     H115498   2.870   1.160   5.331
 4993WAT     H215499   2.745   1.089   5.286
 4994WAT      O15500   1.622   1.453   3.993
 4994WAT     H115501   1.658   1.513   3.927
 4994WAT     H215502   1.608   1.507   4.070
 4995WAT      O15503   3.002   0.842   4.082
 4995WAT     H115504   2.973   0.888   4.160
 4995WAT     H215505   3.081   0.796   4.108
 4996WAT      O15506   1.620   1.279   5.440
 4996WAT     H115507   1.631   1.185   5.426
 4996WAT     H215508   1.555   1.306   5.375
 4997WAT      O15509   2.224   1.191   4.075
 4997WAT     H115510   2.223   1.264   4.013
 4997WAT     H215511   2.132   1.166   4.084
 4998WAT      O15512   1.784   0.713   4.149
 4998WAT     H115513   1.723   0.787   4.150
 4998WAT     H215514   1.831   0.722   4.066
 4999WAT      O15515   2.522   1.197   3.941
 4999WAT     H115516   2.532   1.177   3.848
 4999WAT     H215517   2.432   1.172   3.961
 5000WAT      O15518   2.274   0.253   4.339
 5000WAT     H115519   2.204   0.300   4.383
 5000WAT     H215520   2.303   0.187   4.403
 5001WAT      O15521   2.437   0.395   5.139
 5001WAT     H115522   2.487   0.443   5.206
 5001WAT     H215523   2.451   0.303   5.160
 5002WAT      O15524   2.386   1.449   4.410
 5002WAT     H115525   2.412   1.445   4.318
 5002WAT     H215526   2.292   1.437   4.410
 5003WAT      O15527   2.987   0.541   4.568
 5003WAT     H115528   2.893   0.543   4.585
 5003WAT     H215529   3.018   0.463   4.612
 5004WAT      O15530   1.985   0.709   3.924
 5004WAT     H115531   2.061   0.698   3.980
 5004WAT     H215532   1.992   0.640   3.859
 5005WAT      O15533   1.854   0.453   3.992
 5005WAT     H115534   1.862   0.358   4.003
 5005WAT     H215535   1.943   0.486   4.003
 5006WAT      O15536   3.187   1.258   4.735
 5006WAT     H115537   3.200   1.341   4.783
 5006WAT     H215538   3.274   1.237   4.701
 5007WAT      O15539   1.934   1.468   4.703
 5007WAT     H115540   2.008   1.413   4.730
 5007WAT     H215541   1.973   1.554   4.689
 5008WAT      O15542   1.623   1.074   4.290
 5008WAT     H115543   1.530   1.099   4.289
 5008WAT     H215544   1.669   1.157   4.278
 5009WAT      O15545   2.245   1.385   3.885
 5009WAT     H115546   2.325   1.414   3.840
 5009WAT     H215547   2.193   1.342   3.817
 5010WAT      O15548   2.862   1.370   5.477
 5010WAT     H115549   2.957   1.361   5.472
 5010WAT     H215550   2.847   1.436   5.545
 5011WAT      O15551   3.151   1.308   4.027
 5011WAT     H115552   3.122   1.266   3.946
 5011WAT     H215553   3.131   1.400   4.015
 5012WAT      O15554   2.297   0.907   3.871
 5012WAT     H115555   2.287   0.845   3.944
 5012WAT     H215556   2.280   0.855   3.793
 5013WAT      O15557   2.312   0.775   5.469
 5013WAT     H115558   2.236   0.832   5.461
 5013WAT     H215559   2.330   0.746   5.380
 5014WAT      O15560   2.621   0.813   3.932
 5014WAT     H115561   2.566   0.858   3.996
 5014WAT     H215562   2.683   0.763   3.984
 5015WAT      O15563   3.027   0.949   5.525
 5015WAT     H115564   3.101   0.982   5.475
 5015WAT     H215565   2.950   0.965   5.470
 5016WAT      O15566   2.188   0.709   4.121
 5016WAT     H115567   2.230   0.692   4.206
 5016WAT     H215568   2.200   0.628   4.072
 5017WAT      O15569   2.004   0.307   5.402
 5017WAT     H115570   1.951   0.258   5.339
 5017WAT     H215571   2.071   0.350   5.349
 5018WAT      O15572   2.439   0.611   3.846
 5018WAT     H115573   2.491   0.540   3.810
 5018WAT     H215574   2.504   0.675   3.876
 5019WAT      O15575   2.894   0.754   5.378
 5019WAT     H115576   2.935   0.769   5.463
 5019WAT     H215577   2.800   0.766   5.395
 5020WAT      O15578   2.370   0.749   5.175
 5020WAT     H115579   2.412   0.833   5.158
 5020WAT     H215580   2.278   0.763   5.153
 5021WAT      O15581   2.604   0.522   5.314
 5021WAT     H115582   2.616   0.462   5.388
 5021WAT     H215583   2.690   0.526   5.272
 5022WAT      O15584   2.838   0.577   5.171
 5022WAT     H115585   2.785   0.630   5.111
 5022WAT     H215586   2.872   0.641   5.235
 5023WAT      O15587   2.078   0.316   3.816
 5023WAT     H115588   2.057   0.230   3.852
 5023WAT     H215589   2.060   0.308   3.722
 5024WAT      O15590   2.155   1.379   5.287
 5024WAT     H115591   2.101   1.452   5.255
 5024WAT     H215592   2.181   1.332   5.208
 5025WAT      O15593   2.441   1.503   5.313
 5025WAT     H115594   2.433   1.593   5.344
 5025WAT     H215595   2.351   1.471   5.310
 5026WAT      O15596   2.496   1.420   4.075
 5026WAT     H115597   2.585   1.453   4.077
 5026WAT     H215598   2.499   1.347   4.012
 5027WAT      O15599   1.860   0.957   3.898
 5027WAT     H115600   1.903   1.011   3.964
 5027WAT     H215601   1.908   0.874   3.899
 5028WAT      O15602   1.581   1.236   4.643
 5028WAT     H115603   1.614   1.149   4.620
 5028WAT     H215604   1.624   1.256   4.726
 5029WAT      O15605   2.041   1.069   4.409
 5029WAT     H115606   2.011   1.056   4.499
 5029WAT     H215607   2.030   0.983   4.368
 5030WAT      O15608   1.630   1.322   4.917
 5030WAT     H115609   1.586   1.340   5.000
 5030WAT     H215610   1.687   1.398   4.903
 5031WAT      O15611   3.194   1.273   5.346
 5031WAT     H115612   3.134   1.278   5.271
 5031WAT     H215613   3.207   1.179   5.359
 5032WAT      O15614   3.318   1.047   3.880
 5032WAT     H115615   3.235   1.054   3.927
 5032WAT     H215616   3.335   1.136   3.849
 5033WAT      O15617   3.263   0.721   4.130
 5033WAT     H115618   3.339   0.778   4.140
 5033WAT     H215619   3.265   0.664   4.207
 5034WAT      O15620   1.613   0.574   4.553
 5034WAT     H115621   1.548   0.547   4.489
 5034WAT     H215622   1.697   0.563   4.508
 5035WAT      O15623   3.364   0.807   4.614
 5035WAT     H115624   3.401   0.728   4.574
 5035WAT     H215625   3.428   0.876   4.596
 5036WAT      O15626   3.062   0.945   5.156
 5036WAT     H115627   2.981   0.988   5.182
 5036WAT     H215628   3.103   1.006   5.094
 5037WAT      O15629   3.268   0.751   3.846
 5037WAT     H115630   3.296   0.841   3.833
 5037WAT     H215631   3.250   0.744   3.939
 5038WAT      O15632   3.258   0.544   4.345
 5038WAT     H115633   3.220   0.468   4.302
 5038WAT     H215634   3.185   0.582   4.394
 5039WAT      O15635   1.717   0.612   5.007
 5039WAT     H115636   1.754   0.603   5.095
 5039WAT     H215637   1.660   0.536   4.997
 5040WAT      O15638   3.197   0.459   5.308
 5040WAT     H115639   3.174   0.436   5.218
 5040WAT     H215640   3.223   0.551   5.304
 5041WAT      O15641   1.672   0.303   5.398
 5041WAT     H115642   1.583   0.300   5.431
 5041WAT     H215643   1.726   0.323   5.474
 5042WAT      O15644   1.535   0.295   4.147
 5042WAT     H115645   1.444   0.321   4.130
 5042WAT     H215646   1.583   0.322   4.069
 5043WAT      O15647   3.186   0.367   4.675
 5043WAT     H115648   3.238   0.317   4.612
 5043WAT     H215649   3.244   0.380   4.749
 5044WAT      O15650   3.203   0.375   5.027
 5044WAT     H115651   3.108   0.372   5.039
 5044WAT     H215652   3.222   0.466   5.004
 5045WAT      O15653   1.789   0.200   3.938
 5045WAT     H115654   1.860   0.158   3.890
 5045WAT     H215655   1.717   0.207   3.875
 5046WAT      O15656   3.135   0.293   4.269
 5046WAT     H115657   3.184   0.269   4.347
 5046WAT     H215658   3.115   0.209   4.227
 5047WAT      O15659   3.068   1.420   4.508
 5047WAT     H115660   3.127   1.388   4.441
 5047WAT     H215661   3.094   1.373   4.587
 5048WAT      O15662   2.229   1.219   5.083
 5048WAT     H115663   2.204   1.246   4.995
 5048WAT     H215664   2.323   1.236   5.089
 5049WAT      O15665   3.355   1.421   5.163
 5049WAT     H115666   3.305   1.461   5.092
 5049WAT     H215667   3.294   1.358   5.203
 5050WAT      O15668   1.842   1.358   5.235
 5050WAT     H115669   1.783   1.345   5.309
 5050WAT     H215670   1.842   1.274   5.189
 5051WAT      O15671   3.123   1.485   4.891
 5051WAT     H115672   3.077   1.560   4.854
 5051WAT     H215673   3.060   1.413   4.885
 5052WAT      O15674   1.806   1.095   5.130
 5052WAT     H115675   1.733   1.033   5.123
 5052WAT     H215676   1.812   1.134   5.043
 5053WAT      O15677   2.166   1.316   4.809
 5053WAT     H115678   2.218   1.255   4.756
 5053WAT     H215679   2.231   1.366   4.858
 5054WAT      O15680   2.440   1.405   4.891
 5054WAT     H115681   2.469   1.380   4.804
 5054WAT     H215682   2.491   1.350   4.950
 5055WAT      O15683   1.634   1.426   4.451
 5055WAT     H115684   1.617   1.363   4.521
 5055WAT     H215685   1.547   1.447   4.416
 5056WAT      O15686   1.794   1.296   4.196
 5056WAT     H115687   1.742   1.334   4.125
 5056WAT     H215688   1.787   1.358   4.268
 5057WAT      O15689   3.270   1.452   4.328
 5057WAT     H115690   3.288   1.383   4.263
 5057WAT     H215691   3.200   1.504   4.289
 5058WAT      O15692   2.054   1.491   4.083
 5058WAT     H115693   2.128   1.462   4.028
 5058WAT     H215694   2.080   1.467   4.172
 5059WAT      O15695   1.971   1.102   4.084
 5059WAT     H115696   1.908   1.149   4.138
 5059WAT     H215697   1.982   1.018   4.127
 5060WAT      O15698   2.716   0.507   2.699
 5060WAT     H115699   2.708   0.416   2.672
 5060WAT     H215700   2.675   0.557   2.628
 5061WAT      O15701   2.529   0.685   2.887
 5061WAT     H115702   2.452   0.637   2.916
 5061WAT     H215703   2.594   0.617   2.869
 5062WAT      O15704   1.931   0.716   2.974
 5062WAT     H115705   1.848   0.691   3.014
 5062WAT     H215706   1.992   0.723   3.048
 5063WAT      O15707   2.931   1.126   2.765
 5063WAT     H115708   2.885   1.049   2.798
 5063WAT     H215709   3.013   1.128   2.815
 5064WAT      O15710   1.929   1.120   2.994
 5064WAT     H115711   1.959   1.031   2.976
 5064WAT     H215712   2.003   1.175   2.971
 5065WAT      O15713   1.772   0.212   2.353
 5065WAT     H115714   1.683   0.246   2.343
 5065WAT     H215715   1.800   0.192   2.264
 5066WAT      O15716   1.568   0.472   2.941
 5066WAT     H115717   1.625   0.396   2.941
 5066WAT     H215718   1.568   0.502   2.850
 5067WAT      O15719   2.554   1.354   2.727
 5067WAT     H115720   2.492   1.400   2.670
 5067WAT     H215721   2.639   1.370   2.687
 5068WAT      O15722   2.473   0.953   2.887
 5068WAT     H115723   2.466   0.859   2.871
 5068WAT     H215724   2.549   0.962   2.945
 5069WAT      O15725   1.754   0.263   2.981
 5069WAT     H115726   1.822   0.289   3.043
 5069WAT     H215727   1.723   0.179   3.014
 5070WAT      O15728   2.173   0.367   2.890
 5070WAT     H115729   2.224   0.417   2.954
 5070WAT     H215730   2.227   0.290   2.872
 5071WAT      O15731   3.384   0.184   3.260
 5071WAT     H115732   3.313   0.223   3.208
 5071WAT     H215733   3.410   0.254   3.320
 5072WAT      O15734   2.641   0.843   2.466
 5072WAT     H115735   2.579   0.889   2.410
 5072WAT     H215736   2.692   0.912   2.508
 5073WAT      O15737   2.127   0.795   3.134
 5073WAT     H115738   2.094   0.858   3.198
 5073WAT     H215739   2.145   0.848   3.056
 5074WAT      O15740   2.978   0.177   2.881
 5074WAT     H115741   2.908   0.206   2.939
 5074WAT     H215742   3.014   0.258   2.845
 5075WAT      O15743   2.048   0.992   3.315
 5075WAT     H115744   2.110   1.060   3.287
 5075WAT     H215745   1.962   1.033   3.306
 5076WAT      O15746   1.577   0.911   2.203
 5076WAT     H115747   1.540   0.960   2.130
 5076WAT     H215748   1.603   0.978   2.267
 5077WAT      O15749   3.140   1.139   3.107
 5077WAT     H115750   3.071   1.206   3.106
 5077WAT     H215751   3.194   1.158   3.030
 5078WAT      O15752   2.893   1.323   2.978
 5078WAT     H115753   2.895   1.283   2.892
 5078WAT     H215754   2.838   1.400   2.968
 5079WAT      O15755   3.023   0.995   2.487
 5079WAT     H115756   3.012   0.901   2.500
 5079WAT     H215757   3.023   1.031   2.576
 5080WAT      O15758   2.833   0.813   3.111
 5080WAT     H115759   2.875   0.792   3.028
 5080WAT     H215760   2.906   0.839   3.168
 5081WAT      O15761   2.577   0.558   2.423
 5081WAT     H115762   2.484   0.551   2.446
 5081WAT     H215763   2.592   0.652   2.411
 5082WAT      O15764   2.576   0.185   2.123
 5082WAT     H115765   2.482   0.201   2.131
 5082WAT     H215766   2.608   0.257   2.068
 5083WAT      O15767   3.228   0.653   3.120
 5083WAT     H115768   3.145   0.660   3.073
 5083WAT     H215769   3.287   0.712   3.074
 5084WAT      O15770   2.980   0.714   2.473
 5084WAT     H115771   2.918   0.680   2.409
 5084WAT     H215772   2.978   0.650   2.544
 5085WAT      O15773   2.924   0.332   3.215
 5085WAT     H115774   2.883   0.414   3.240
 5085WAT     H215775   2.851   0.273   3.196
 5086WAT      O15776   2.138   0.610   2.701
 5086WAT     H115777   2.097   0.539   2.652
 5086WAT     H215778   2.146   0.576   2.790
 5087WAT      O15779   2.184   0.979   2.918
 5087WAT     H115780   2.155   0.919   2.850
 5087WAT     H215781   2.279   0.983   2.906
 5088WAT      O15782   2.009   0.288   3.079
 5088WAT     H115783   2.064   0.299   3.002
 5088WAT     H215784   2.060   0.325   3.151
 5089WAT      O15785   2.993   1.336   3.284
 5089WAT     H115786   2.946   1.417   3.264
 5089WAT     H215787   2.925   1.271   3.299
 5090WAT      O15788   2.094   0.953   3.583
 5090WAT     H115789   2.004   0.975   3.607
 5090WAT     H215790   2.096   0.965   3.488
 5091WAT      O15791   2.798   0.638   2.174
 5091WAT     H115792   2.842   0.554   2.159
 5091WAT     H215793   2.869   0.701   2.183
 5092WAT      O15794   1.976   0.640   3.440
 5092WAT     H115795   1.962   0.727   3.477
 5092WAT     H215796   1.888   0.606   3.426
 5093WAT      O15797   2.609   1.132   2.571
 5093WAT     H115798   2.653   1.206   2.529
 5093WAT     H215799   2.603   1.156   2.663
 5094WAT      O15800   2.156   1.234   3.661
 5094WAT     H115801   2.153   1.275   3.574
 5094WAT     H215802   2.140   1.141   3.645
 5095WAT      O15803   1.808   0.500   2.451
 5095WAT     H115804   1.796   0.573   2.390
 5095WAT     H215805   1.777   0.423   2.403
 5096WAT      O15806   3.351   1.313   3.791
 5096WAT     H115807   3.399   1.360   3.859
 5096WAT     H215808   3.413   1.306   3.718
 5097WAT      O15809   1.572   0.817   3.032
 5097WAT     H115810   1.579   0.831   2.937
 5097WAT     H215811   1.633   0.746   3.051
 5098WAT      O15812   1.696   0.987   2.673
 5098WAT     H115813   1.655   1.001   2.587
 5098WAT     H215814   1.785   0.959   2.653
 5099WAT      O15815   3.292   1.032   3.507
 5099WAT     H115816   3.304   1.008   3.415
 5099WAT     H215817   3.296   0.949   3.554
 5100WAT      O15818   2.678   1.402   3.364
 5100WAT     H115819   2.729   1.393   3.444
 5100WAT     H215820   2.594   1.437   3.393
 5101WAT      O15821   2.875   1.431   2.306
 5101WAT     H115822   2.859   1.402   2.396
 5101WAT     H215823   2.859   1.353   2.253
 5102WAT      O15824   2.123   1.409   2.484
 5102WAT     H115825   2.106   1.317   2.463
 5102WAT     H215826   2.038   1.444   2.508
 5103WAT      O15827   2.846   1.181   2.162
 5103WAT     H115828   2.776   1.181   2.096
 5103WAT     H215829   2.920   1.139   2.119
 5104WAT      O15830   2.802   1.344   2.570
 5104WAT     H115831   2.848   1.266   2.601
 5104WAT     H215832   2.836   1.415   2.624
 5105WAT      O15833   1.577   0.921   3.286
 5105WAT     H115834   1.593   0.874   3.204
 5105WAT     H215835   1.624   0.870   3.352
 5106WAT      O15836   2.983   0.243   3.463
 5106WAT     H115837   2.898   0.213   3.495
 5106WAT     H215838   2.967   0.267   3.372
 5107WAT      O15839   2.693   0.393   3.673
 5107WAT     H115840   2.725   0.310   3.639
 5107WAT     H215841   2.771   0.445   3.688
 5108WAT      O15842   2.033   0.347   2.562
 5108WAT     H115843   2.011   0.325   2.653
 5108WAT     H215844   1.955   0.390   2.528
 5109WAT      O15845   2.756   0.347   2.422
 5109WAT     H115846   2.697   0.420   2.404
 5109WAT     H215847   2.811   0.341   2.344
 5110WAT      O15848   2.277   0.436   3.629
 5110WAT     H115849   2.268   0.342   3.614
 5110WAT     H215850   2.362   0.459   3.589
 5111WAT      O15851   1.539   0.264   1.969
 5111WAT     H115852   1.531   0.358   1.983
 5111WAT     H215853   1.504   0.250   1.881
 5112WAT      O15854   2.676   0.470   3.035
 5112WAT     H115855   2.602   0.521   3.070
 5112WAT     H215856   2.636   0.388   3.005
 5113WAT      O15857   2.326   0.238   2.174
 5113WAT     H115858   2.338   0.233   2.269
 5113WAT     H215859   2.287   0.324   2.159
 5114WAT      O15860   2.227   0.469   2.114
 5114WAT     H115861   2.170   0.424   2.051
 5114WAT     H215862   2.298   0.505   2.061
 5115WAT      O15863   1.735   0.859   3.502
 5115WAT     H115864   1.696   0.795   3.562
 5115WAT     H215865   1.766   0.929   3.559
 5116WAT      O15866   2.350   0.544   3.050
 5116WAT     H115867   2.386   0.496   3.124
 5116WAT     H215868   2.331   0.631   3.084
 5117WAT      O15869   2.128   0.448   3.282
 5117WAT     H115870   2.098   0.536   3.304
 5117WAT     H215871   2.224   0.454   3.285
 5118WAT      O15872   1.981   0.868   2.341
 5118WAT     H115873   1.904   0.814   2.325
 5118WAT     H215874   2.054   0.816   2.308
 5119WAT      O15875   3.057   0.768   2.921
 5119WAT     H115876   3.129   0.817   2.882
 5119WAT     H215877   3.037   0.700   2.856
 5120WAT      O15878   2.595   0.775   3.509
 5120WAT     H115879   2.589   0.683   3.484
 5120WAT     H215880   2.532   0.785   3.581
 5121WAT      O15881   2.875   0.344   2.165
 5121WAT     H115882   2.964   0.376   2.147
 5121WAT     H215883   2.872   0.257   2.125
 5122WAT      O15884   1.986   0.835   2.705
 5122WAT     H115885   2.037   0.755   2.700
 5122WAT     H215886   1.941   0.829   2.789
 5123WAT      O15887   2.474   0.962   2.232
 5123WAT     H115888   2.509   1.036   2.183
 5123WAT     H215889   2.392   0.993   2.269
 5124WAT      O15890   1.734   0.532   3.396
 5124WAT     H115891   1.698   0.598   3.455
 5124WAT     H215892   1.705   0.448   3.434
 5125WAT      O15893   2.054   0.577   3.685
 5125WAT     H115894   2.024   0.592   3.595
 5125WAT     H215895   2.131   0.522   3.676
 5126WAT      O15896   2.589   1.057   3.484
 5126WAT     H115897   2.590   0.964   3.463
 5126WAT     H215898   2.518   1.066   3.548
 5127WAT      O15899   3.102   0.476   2.111
 5127WAT     H115900   3.094   0.519   2.026
 5127WAT     H215901   3.174   0.522   2.155
 5128WAT      O15902   3.210   0.721   3.419
 5128WAT     H115903   3.137   0.781   3.399
 5128WAT     H215904   3.262   0.720   3.339
 5129WAT      O15905   3.205   1.161   2.384
 5129WAT     H115906   3.141   1.096   2.412
 5129WAT     H215907   3.166   1.202   2.307
 5130WAT      O15908   2.763   0.894   2.769
 5130WAT     H115909   2.798   0.834   2.703
 5130WAT     H215910   2.674   0.861   2.786
 5131WAT      O15911   2.371   0.970   2.510
 5131WAT     H115912   2.440   1.024   2.548
 5131WAT     H215913   2.293   1.024   2.513
 5132WAT      O15914   1.585   0.532   2.059
 5132WAT     H115915   1.672   0.560   2.087
 5132WAT     H215916   1.536   0.613   2.047
 5133WAT      O15917   2.302   0.670   2.471
 5133WAT     H115918   2.347   0.751   2.493
 5133WAT     H215919   2.266   0.638   2.554
 5134WAT      O15920   2.532   1.221   3.194
 5134WAT     H115921   2.596   1.242   3.262
 5134WAT     H215922   2.568   1.145   3.148
 5135WAT      O15923   2.659   1.022   3.066
 5135WAT     H115924   2.723   0.952   3.077
 5135WAT     H215925   2.712   1.100   3.048
 5136WAT      O15926   3.044   1.050   2.038
 5136WAT     H115927   3.021   0.978   2.097
 5136WAT     H215928   3.005   1.025   1.954
 5137WAT      O15929   2.837   1.102   3.386
 5137WAT     H115930   2.870   1.160   3.454
 5137WAT     H215931   2.745   1.089   3.409
 5138WAT      O15932   1.622   1.453   2.115
 5138WAT     H115933   1.658   1.513   2.050
 5138WAT     H215934   1.608   1.507   2.193
 5139WAT      O15935   3.002   0.842   2.204
 5139WAT     H115936   2.973   0.888   2.283
 5139WAT     H215937   3.081   0.796   2.231
 5140WAT      O15938   1.620   1.279   3.563
 5140WAT     H115939   1.631   1.185   3.549
 5140WAT     H215940   1.555   1.306   3.498
 5141WAT      O15941   2.419   1.107   3.703
 5141WAT     H115942   2.387   1.035   3.757
 5141WAT     H215943   2.352   1.174   3.710
 5142WAT      O15944   2.224   1.191   2.197
 5142WAT     H115945   2.223   1.264   2.136
 5142WAT     H215946   2.132   1.166   2.206
 5143WAT      O15947   1.784   0.713   2.272
 5143WAT     H115948   1.723   0.787   2.273
 5143WAT     H215949   1.831   0.722   2.189
 5144WAT      O15950   2.522   1.197   2.063
 5144WAT     H115951   2.532   1.177   1.970
 5144WAT     H215952   2.432   1.172   2.084
 5145WAT      O15953   2.274   0.253   2.462
 5145WAT     H115954   2.204   0.300   2.506
 5145WAT     H215955   2.303   0.187   2.525
 5146WAT      O15956   2.437   0.395   3.262
 5146WAT     H115957   2.487   0.443   3.328
 5146WAT     H215958   2.451   0.303   3.282
 5147WAT      O15959   2.386   1.449   2.533
 5147WAT     H115960   2.412   1.445   2.441
 5147WAT     H215961   2.292   1.437   2.532
 5148WAT      O15962   2.987   0.541   2.690
 5148WAT     H115963   2.893   0.543   2.708
 5148WAT     H215964   3.018   0.463   2.735
 5149WAT      O15965   1.985   0.709   2.046
 5149WAT     H115966   2.061   0.698   2.103
 5149WAT     H215967   1.992   0.640   1.981
 5150WAT      O15968   1.854   0.453   2.115
 5150WAT     H115969   1.862   0.358   2.126
 5150WAT     H215970   1.943   0.486   2.125
 5151WAT      O15971   3.187   1.258   2.858
 5151WAT     H115972   3.200   1.341   2.905
 5151WAT     H215973   3.274   1.237   2.823
 5152WAT      O15974   1.934   1.468   2.825
 5152WAT     H115975   2.008   1.413   2.852
 5152WAT     H215976   1.973   1.554   2.811
 5153WAT      O15977   1.623   1.074   2.413
 5153WAT     H115978   1.530   1.099   2.412
 5153WAT     H215979   1.669   1.157   2.400
 5154WAT      O15980   1.835   1.386   3.744
 5154WAT     H115981   1.915   1.418   3.785
 5154WAT     H215982   1.783   1.350   3.816
 5155WAT      O15983   2.245   1.385   2.007
 5155WAT     H115984   2.325   1.414   1.962
 5155WAT     H215985   2.193   1.342   1.940
 5156WAT      O15986   2.719   0.997   3.739
 5156WAT     H115987   2.658   0.999   3.665
 5156WAT     H215988   2.688   0.924   3.792
 5157WAT      O15989   2.862   1.370   3.600
 5157WAT     H115990   2.957   1.361   3.595
 5157WAT     H215991   2.847   1.436   3.667
 5158WAT      O15992   3.151   1.308   2.150
 5158WAT     H115993   3.122   1.266   2.068
 5158WAT     H215994   3.131   1.400   2.138
 5159WAT      O15995   1.607   0.635   3.638
 5159WAT     H115996   1.657   0.577   3.696
 5159WAT     H215997   1.533   0.663   3.692
 5160WAT      O15998   2.297   0.907   1.994
 5160WAT     H115999   2.287   0.845   2.066
 5160WAT     H216000   2.280   0.855   1.915
 5161WAT      O16001   2.312   0.775   3.592
 5161WAT     H116002   2.236   0.832   3.583
 5161WAT     H216003   2.330   0.746   3.502
 5162WAT      O16004   2.621   0.813   2.054
 5162WAT     H116005   2.566   0.858   2.119
 5162WAT     H216006   2.683   0.763   2.107
 5163WAT      O16007   3.027   0.949   3.647
 5163WAT     H116008   3.101   0.982   3.597
 5163WAT     H216009   2.950   0.965   3.592
 5164WAT      O16010   1.810   0.449   3.728
 5164WAT     H116011   1.814   0.419   3.819
 5164WAT     H216012   1.896   0.489   3.712
 5165WAT      O16013   2.188   0.709   2.244
 5165WAT     H116014   2.230   0.692   2.328
 5165WAT     H216015   2.200   0.628   2.194
 5166WAT      O16016   2.004   0.307   3.525
 5166WAT     H116017   1.951   0.258   3.462
 5166WAT     H216018   2.071   0.350   3.471
 5167WAT      O16019   2.439   0.611   1.969
 5167WAT     H116020   2.491   0.540   1.932
 5167WAT     H216021   2.504   0.675   1.999
 5168WAT      O16022   2.894   0.754   3.501
 5168WAT     H116023   2.935   0.769   3.586
 5168WAT     H216024   2.800   0.766   3.517
 5169WAT      O16025   2.941   0.488   3.701
 5169WAT     H116026   2.999   0.412   3.693
 5169WAT     H216027   2.959   0.541   3.624
 5170WAT      O16028   2.370   0.749   3.298
 5170WAT     H116029   2.412   0.833   3.281
 5170WAT     H216030   2.278   0.763   3.275
 5171WAT      O16031   2.604   0.522   3.436
 5171WAT     H116032   2.616   0.462   3.510
 5171WAT     H216033   2.690   0.526   3.394
 5172WAT      O16034   2.838   0.577   3.294
 5172WAT     H116035   2.785   0.630   3.234
 5172WAT     H216036   2.872   0.641   3.357
 5173WAT      O16037   2.078   0.316   1.938
 5173WAT     H116038   2.057   0.230   1.975
 5173WAT     H216039   2.060   0.308   1.845
 5174WAT      O16040   2.155   1.379   3.410
 5174WAT     H116041   2.101   1.452   3.378
 5174WAT     H216042   2.181   1.332   3.331
 5175WAT      O16043   2.441   1.503   3.435
 5175WAT     H116044   2.433   1.593   3.466
 5175WAT     H216045   2.351   1.471   3.433
 5176WAT      O16046   2.496   1.420   2.198
 5176WAT     H116047   2.585   1.453   2.200
 5176WAT     H216048   2.499   1.347   2.135
 5177WAT      O16049   1.860   0.957   2.021
 5177WAT     H116050   1.903   1.011   2.086
 5177WAT     H216051   1.908   0.874   2.022
 5178WAT      O16052   1.581   1.236   2.766
 5178WAT     H116053   1.614   1.149   2.743
 5178WAT     H216054   1.624   1.256   2.849
 5179WAT      O16055   2.041   1.069   2.532
 5179WAT     H116056   2.011   1.056   2.622
 5179WAT     H216057   2.030   0.983   2.491
 5180WAT      O16058   1.630   1.322   3.040
 5180WAT     H116059   1.586   1.340   3.123
 5180WAT     H216060   1.687   1.398   3.025
 5181WAT      O16061   3.194   1.273   3.468
 5181WAT     H116062   3.134   1.278   3.394
 5181WAT     H216063   3.207   1.179   3.481
 5182WAT      O16064   3.318   1.047   2.002
 5182WAT     H116065   3.235   1.054   2.049
 5182WAT     H216066   3.335   1.136   1.972
 5183WAT      O16067   3.263   0.721   2.252
 5183WAT     H116068   3.339   0.778   2.263
 5183WAT     H216069   3.265   0.664   2.329
 5184WAT      O16070   1.613   0.574   2.675
 5184WAT     H116071   1.548   0.547   2.611
 5184WAT     H216072   1.697   0.563   2.631
 5185WAT      O16073   3.364   0.807   2.737
 5185WAT     H116074   3.401   0.728   2.696
 5185WAT     H216075   3.428   0.876   2.719
 5186WAT      O16076   3.062   0.945   3.278
 5186WAT     H116077   2.981   0.988   3.304
 5186WAT     H216078   3.103   1.006   3.217
 5187WAT      O16079   3.268   0.751   1.968
 5187WAT     H116080   3.296   0.841   1.955
 5187WAT     H216081   3.250   0.744   2.062
 5188WAT      O16082   3.258   0.544   2.467
 5188WAT     H116083   3.220   0.468   2.424
 5188WAT     H216084   3.185   0.582   2.516
 5189WAT      O16085   1.717   0.612   3.130
 5189WAT     H116086   1.754   0.603   3.217
 5189WAT     H216087   1.660   0.536   3.120
 5190WAT      O16088   3.197   0.459   3.431
 5190WAT     H116089   3.174   0.436   3.341
 5190WAT     H216090   3.223   0.551   3.426
 5191WAT      O16091   1.672   0.303   3.520
 5191WAT     H116092   1.583   0.300   3.554
 5191WAT     H216093   1.726   0.323   3.597
 5192WAT      O16094   1.535   0.295   2.270
 5192WAT     H116095   1.444   0.321   2.252
 5192WAT     H216096   1.583   0.322   2.192
 5193WAT      O16097   3.186   0.367   2.797
 5193WAT     H116098   3.238   0.317   2.734
 5193WAT     H216099   3.244   0.380   2.872
 5194WAT      O16100   3.203   0.375   3.150
 5194WAT     H116101   3.108   0.372   3.161
 5194WAT     H216102   3.222   0.466   3.126
 5195WAT      O16103   1.789   0.200   2.061
 5195WAT     H116104   1.860   0.158   2.012
 5195WAT     H216105   1.717   0.207   1.998
 5196WAT      O16106   3.135   0.293   2.391
 5196WAT     H116107   3.184   0.269   2.470
 5196WAT     H216108   3.115   0.209   2.350
 5197WAT      O16109   3.068   1.420   2.631
 5197WAT     H116110   3.127   1.388   2.563
 5197WAT     H216111   3.094   1.373   2.710
 5198WAT      O16112   1.859   1.063   3.646
 5198WAT     H116113   1.854   1.026   3.734
 5198WAT     H216114   1.872   1.157   3.660
 5199WAT      O16115   2.229   1.219   3.206
 5199WAT     H116116   2.204   1.246   3.117
 5199WAT     H216117   2.323   1.236   3.211
 5200WAT      O16118   3.355   1.421   3.286
 5200WAT     H116119   3.305   1.461   3.214
 5200WAT     H216120   3.294   1.358   3.325
 5201WAT      O16121   1.842   1.358   3.358
 5201WAT     H116122   1.783   1.345   3.432
 5201WAT     H216123   1.842   1.274   3.311
 5202WAT      O16124   3.123   1.485   3.014
 5202WAT     H116125   3.077   1.560   2.976
 5202WAT     H216126   3.060   1.413   3.008
 5203WAT      O16127   1.806   1.095   3.253
 5203WAT     H116128   1.733   1.033   3.246
 5203WAT     H216129   1.812   1.134   3.166
 5204WAT      O16130   2.166   1.316   2.931
 5204WAT     H116131   2.218   1.255   2.879
 5204WAT     H216132   2.231   1.366   2.980
 5205WAT      O16133   2.440   1.405   3.014
 5205WAT     H116134   2.469   1.380   2.926
 5205WAT     H216135   2.491   1.350   3.073
 5206WAT      O16136   1.634   1.426   2.574
 5206WAT     H116137   1.617   1.363   2.644
 5206WAT     H216138   1.547   1.447   2.539
 5207WAT      O16139   1.794   1.296   2.318
 5207WAT     H116140   1.742   1.334   2.248
 5207WAT     H216141   1.787   1.358   2.390
 5208WAT      O16142   2.447   1.497   3.751
 5208WAT     H116143   2.539   1.474   3.755
 5208WAT     H216144   2.445   1.580   3.703
 5209WAT      O16145   3.270   1.452   2.450
 5209WAT     H116146   3.288   1.383   2.386
 5209WAT     H216147   3.200   1.504   2.411
 5210WAT      O16148   2.054   1.491   2.206
 5210WAT     H116149   2.128   1.462   2.151
 5210WAT     H216150   2.080   1.467   2.295
 5211WAT      O16151   1.971   1.102   2.206
 5211WAT     H116152   1.908   1.149   2.261
 5211WAT     H216153   1.982   1.018   2.250
 5212WAT      O16154   3.103   1.420   3.733
 5212WAT     H116155   3.183   1.371   3.712
 5212WAT     H216156   3.133   1.488   3.794
 5213WAT      O16157   2.716   0.507   0.821
 5213WAT     H116158   2.708   0.416   0.794
 5213WAT     H216159   2.675   0.557   0.751
 5214WAT      O16160   2.529   0.685   1.009
 5214WAT     H116161   2.452   0.637   1.038
 5214WAT     H216162   2.594   0.617   0.992
 5215WAT      O16163   1.931   0.716   1.097
 5215WAT     H116164   1.848   0.691   1.137
 5215WAT     H216165   1.992   0.723   1.171
 5216WAT      O16166   2.931   1.126   0.887
 5216WAT     H116167   2.885   1.049   0.920
 5216WAT     H216168   3.013   1.128   0.938
 5217WAT      O16169   1.929   1.120   1.117
 5217WAT     H116170   1.959   1.031   1.099
 5217WAT     H216171   2.003   1.175   1.094
 5218WAT      O16172   1.772   0.212   0.475
 5218WAT     H116173   1.683   0.246   0.465
 5218WAT     H216174   1.800   0.192   0.386
 5219WAT      O16175   1.568   0.472   1.064
 5219WAT     H116176   1.625   0.396   1.064
 5219WAT     H216177   1.568   0.502   0.973
 5220WAT      O16178   2.554   1.354   0.849
 5220WAT     H116179   2.492   1.400   0.792
 5220WAT     H216180   2.639   1.370   0.809
 5221WAT      O16181   2.473   0.953   1.010
 5221WAT     H116182   2.466   0.859   0.994
 5221WAT     H216183   2.549   0.962   1.067
 5222WAT      O16184   1.754   0.263   1.103
 5222WAT     H116185   1.822   0.289   1.165
 5222WAT     H216186   1.723   0.179   1.137
 5223WAT      O16187   2.173   0.367   1.012
 5223WAT     H116188   2.224   0.417   1.076
 5223WAT     H216189   2.227   0.290   0.995
 5224WAT      O16190   3.384   0.184   1.382
 5224WAT     H116191   3.313   0.223   1.331
 5224WAT     H216192   3.410   0.254   1.443
 5225WAT      O16193   2.641   0.843   0.589
 5225WAT     H116194   2.579   0.889   0.532
 5225WAT     H216195   2.692   0.912   0.630
 5226WAT      O16196   2.127   0.795   1.256
 5226WAT     H116197   2.094   0.858   1.321
 5226WAT     H216198   2.145   0.848   1.179
 5227WAT      O16199   2.978   0.177   1.003
 5227WAT     H116200   2.908   0.206   1.061
 5227WAT     H216201   3.014   0.258   0.967
 5228WAT      O16202   2.048   0.992   1.438
 5228WAT     H116203   2.110   1.060   1.410
 5228WAT     H216204   1.962   1.033   1.429
 5229WAT      O16205   1.577   0.911   0.326
 5229WAT     H116206   1.540   0.960   0.253
 5229WAT     H216207   1.603   0.978   0.389
 5230WAT      O16208   3.140   1.139   1.230
 5230WAT     H116209   3.071   1.206   1.229
 5230WAT     H216210   3.194   1.158   1.153
 5231WAT      O16211   2.893   1.323   1.101
 5231WAT     H116212   2.895   1.283   1.014
 5231WAT     H216213   2.838   1.400   1.091
 5232WAT      O16214   3.023   0.995   0.610
 5232WAT     H116215   3.012   0.901   0.622
 5232WAT     H216216   3.023   1.031   0.699
 5233WAT      O16217   2.833   0.813   1.234
 5233WAT     H116218   2.875   0.792   1.150
 5233WAT     H216219   2.906   0.839   1.291
 5234WAT      O16220   2.577   0.558   0.546
 5234WAT     H116221   2.484   0.551   0.568
 5234WAT     H216222   2.592   0.652   0.534
 5235WAT      O16223   2.576   0.185   0.245
 5235WAT     H116224   2.482   0.201   0.254
 5235WAT     H216225   2.608   0.257   0.191
 5236WAT      O16226   3.228   0.653   1.243
 5236WAT     H116227   3.145   0.660   1.195
 5236WAT     H216228   3.287   0.712   1.196
 5237WAT      O16229   2.980   0.714   0.596
 5237WAT     H116230   2.918   0.680   0.531
 5237WAT     H216231   2.978   0.650   0.667
 5238WAT      O16232   2.924   0.332   1.338
 5238WAT     H116233   2.883   0.414   1.363
 5238WAT     H216234   2.851   0.273   1.318
 5239WAT      O16235   2.138   0.610   0.824
 5239WAT     H116236   2.097   0.539   0.774
 5239WAT     H216237   2.146   0.576   0.913
 5240WAT      O16238   2.184   0.979   1.040
 5240WAT     H116239   2.155   0.919   0.972
 5240WAT     H216240   2.279   0.983   1.029
 5241WAT      O16241   2.009   0.288   1.202
 5241WAT     H116242   2.064   0.299   1.124
 5241WAT     H216243   2.060   0.325   1.273
 5242WAT      O16244   2.993   1.336   1.406
 5242WAT     H116245   2.946   1.417   1.387
 5242WAT     H216246   2.925   1.271   1.422
 5243WAT      O16247   2.094   0.953   1.705
 5243WAT     H116248   2.004   0.975   1.730
 5243WAT     H216249   2.096   0.965   1.610
 5244WAT      O16250   2.798   0.638   0.297
 5244WAT     H116251   2.842   0.554   0.282
 5244WAT     H216252   2.869   0.701   0.305
 5245WAT      O16253   1.976   0.640   1.563
 5245WAT     H116254   1.962   0.727   1.600
 5245WAT     H216255   1.888   0.606   1.548
 5246WAT      O16256   2.609   1.132   0.693
 5246WAT     H116257   2.653   1.206   0.652
 5246WAT     H216258   2.603   1.156   0.786
 5247WAT      O16259   2.156   1.234   1.784
 5247WAT     H116260   2.153   1.275   1.697
 5247WAT     H216261   2.140   1.141   1.767
 5248WAT      O16262   1.808   0.500   0.574
 5248WAT     H116263   1.796   0.573   0.513
 5248WAT     H216264   1.777   0.423   0.526
 5249WAT      O16265   3.351   1.313   1.913
 5249WAT     H116266   3.399   1.360   1.981
 5249WAT     H216267   3.413   1.306   1.841
 5250WAT      O16268   1.572   0.817   1.154
 5250WAT     H116269   1.579   0.831   1.060
 5250WAT     H216270   1.633   0.746   1.174
 5251WAT      O16271   1.696   0.987   0.796
 5251WAT     H116272   1.655   1.001   0.710
 5251WAT     H216273   1.785   0.959   0.775
 5252WAT      O16274   3.292   1.032   1.629
 5252WAT     H116275   3.304   1.008   1.537
 5252WAT     H216276   3.296   0.949   1.676
 5253WAT      O16277   2.678   1.402   1.486
 5253WAT     H116278   2.729   1.393   1.566
 5253WAT     H216279   2.594   1.437   1.515
 5254WAT      O16280   2.875   1.431   0.429
 5254WAT     H116281   2.859   1.402   0.519
 5254WAT     H216282   2.859   1.353   0.375
 5255WAT      O16283   2.123   1.409   0.607
 5255WAT     H116284   2.106   1.317   0.585
 5255WAT     H216285   2.038   1.444   0.631
 5256WAT      O16286   2.846   1.181   0.285
 5256WAT     H116287   2.776   1.181   0.219
 5256WAT     H216288   2.920   1.139   0.242
 5257WAT      O16289   2.802   1.344   0.692
 5257WAT     H116290   2.848   1.266   0.724
 5257WAT     H216291   2.836   1.415   0.747
 5258WAT      O16292   1.577   0.921   1.408
 5258WAT     H116293   1.593   0.874   1.327
 5258WAT     H216294   1.624   0.870   1.475
 5259WAT      O16295   2.983   0.243   1.585
 5259WAT     H116296   2.898   0.213   1.617
 5259WAT     H216297   2.967   0.267   1.494
 5260WAT      O16298   2.693   0.393   1.795
 5260WAT     H116299   2.725   0.310   1.761
 5260WAT     H216300   2.771   0.445   1.810
 5261WAT      O16301   2.033   0.347   0.685
 5261WAT     H116302   2.011   0.325   0.775
 5261WAT     H216303   1.955   0.390   0.650
 5262WAT      O16304   2.756   0.347   0.545
 5262WAT     H116305   2.697   0.420   0.526
 5262WAT     H216306   2.811   0.341   0.466
 5263WAT      O16307   2.277   0.436   1.751
 5263WAT     H116308   2.268   0.342   1.736
 5263WAT     H216309   2.362   0.459   1.712
 5264WAT      O16310   2.676   0.470   1.157
 5264WAT     H116311   2.602   0.521   1.192
 5264WAT     H216312   2.636   0.388   1.127
 5265WAT      O16313   2.326   0.238   0.297
 5265WAT     H116314   2.338   0.233   0.392
 5265WAT     H216315   2.287   0.324   0.281
 5266WAT      O16316   2.227   0.469   0.237
 5266WAT     H116317   2.170   0.424   0.174
 5266WAT     H216318   2.298   0.505   0.183
 5267WAT      O16319   1.735   0.859   1.624
 5267WAT     H116320   1.696   0.795   1.684
 5267WAT     H216321   1.766   0.929   1.681
 5268WAT      O16322   2.350   0.544   1.172
 5268WAT     H116323   2.386   0.496   1.247
 5268WAT     H216324   2.331   0.631   1.207
 5269WAT      O16325   2.128   0.448   1.404
 5269WAT     H116326   2.098   0.536   1.427
 5269WAT     H216327   2.224   0.454   1.408
 5270WAT      O16328   1.981   0.868   0.464
 5270WAT     H116329   1.904   0.814   0.448
 5270WAT     H216330   2.054   0.816   0.430
 5271WAT      O16331   3.057   0.768   1.043
 5271WAT     H116332   3.129   0.817   1.004
 5271WAT     H216333   3.037   0.700   0.979
 5272WAT      O16334   2.595   0.775   1.632
 5272WAT     H116335   2.589   0.683   1.606
 5272WAT     H216336   2.532   0.785   1.703
 5273WAT      O16337   2.875   0.344   0.287
 5273WAT     H116338   2.964   0.376   0.270
 5273WAT     H216339   2.872   0.257   0.248
 5274WAT      O16340   1.986   0.835   0.828
 5274WAT     H116341   2.037   0.755   0.822
 5274WAT     H216342   1.941   0.829   0.912
 5275WAT      O16343   2.474   0.962   0.355
 5275WAT     H116344   2.509   1.036   0.305
 5275WAT     H216345   2.392   0.993   0.391
 5276WAT      O16346   1.734   0.532   1.519
 5276WAT     H116347   1.698   0.598   1.578
 5276WAT     H216348   1.705   0.448   1.556
 5277WAT      O16349   2.054   0.577   1.807
 5277WAT     H116350   2.024   0.592   1.718
 5277WAT     H216351   2.131   0.522   1.798
 5278WAT      O16352   2.589   1.057   1.607
 5278WAT     H116353   2.590   0.964   1.585
 5278WAT     H216354   2.518   1.066   1.671
 5279WAT      O16355   3.210   0.721   1.542
 5279WAT     H116356   3.137   0.781   1.522
 5279WAT     H216357   3.262   0.720   1.462
 5280WAT      O16358   3.205   1.161   0.507
 5280WAT     H116359   3.141   1.096   0.534
 5280WAT     H216360   3.166   1.202   0.429
 5281WAT      O16361   2.763   0.894   0.891
 5281WAT     H116362   2.798   0.834   0.825
 5281WAT     H216363   2.674   0.861   0.909
 5282WAT      O16364   2.371   0.970   0.632
 5282WAT     H116365   2.440   1.024   0.670
 5282WAT     H216366   2.293   1.024   0.636
 5283WAT      O16367   1.585   0.532   0.181
 5283WAT     H116368   1.672   0.560   0.210
 5283WAT     H216369   1.536   0.613   0.170
 5284WAT      O16370   2.302   0.670   0.593
 5284WAT     H116371   2.347   0.751   0.616
 5284WAT     H216372   2.266   0.638   0.677
 5285WAT      O16373   2.532   1.221   1.316
 5285WAT     H116374   2.596   1.242   1.384
 5285WAT     H216375   2.568   1.145   1.271
 5286WAT      O16376   2.659   1.022   1.188
 5286WAT     H116377   2.723   0.952   1.199
 5286WAT     H216378   2.712   1.100   1.170
 5287WAT      O16379   2.837   1.102   1.508
 5287WAT     H116380   2.870   1.160   1.576
 5287WAT     H216381   2.745   1.089   1.531
 5288WAT      O16382   1.622   1.453   0.238
 5288WAT     H116383   1.658   1.513   0.173
 5288WAT     H216384   1.608   1.507   0.315
 5289WAT      O16385   3.002   0.842   0.327
 5289WAT     H116386   2.973   0.888   0.405
 5289WAT     H216387   3.081   0.796   0.354
 5290WAT      O16388   1.620   1.279   1.685
 5290WAT     H116389   1.631   1.185   1.671
 5290WAT     H216390   1.555   1.306   1.621
 5291WAT      O16391   2.419   1.107   1.825
 5291WAT     H116392   2.387   1.035   1.880
 5291WAT     H216393   2.352   1.174   1.833
 5292WAT      O16394   2.224   1.191   0.320
 5292WAT     H116395   2.223   1.264   0.258
 5292WAT     H216396   2.132   1.166   0.329
 5293WAT      O16397   1.784   0.713   0.394
 5293WAT     H116398   1.723   0.787   0.395
 5293WAT     H216399   1.831   0.722   0.312
 5294WAT      O16400   2.274   0.253   0.584
 5294WAT     H116401   2.204   0.300   0.628
 5294WAT     H216402   2.303   0.187   0.648
 5295WAT      O16403   2.437   0.395   1.384
 5295WAT     H116404   2.487   0.443   1.451
 5295WAT     H216405   2.451   0.303   1.405
 5296WAT      O16406   2.386   1.449   0.655
 5296WAT     H116407   2.412   1.445   0.563
 5296WAT     H216408   2.292   1.437   0.655
 5297WAT      O16409   2.987   0.541   0.813
 5297WAT     H116410   2.893   0.543   0.830
 5297WAT     H216411   3.018   0.463   0.858
 5298WAT      O16412   1.854   0.453   0.237
 5298WAT     H116413   1.862   0.358   0.249
 5298WAT     H216414   1.943   0.486   0.248
 5299WAT      O16415   3.187   1.258   0.981
 5299WAT     H116416   3.200   1.341   1.028
 5299WAT     H216417   3.274   1.237   0.946
 5300WAT      O16418   1.934   1.468   0.948
 5300WAT     H116419   2.008   1.413   0.975
 5300WAT     H216420   1.973   1.554   0.934
 5301WAT      O16421   1.623   1.074   0.535
 5301WAT     H116422   1.530   1.099   0.534
 5301WAT     H216423   1.669   1.157   0.523
 5302WAT      O16424   1.835   1.386   1.867
 5302WAT     H116425   1.915   1.418   1.908
 5302WAT     H216426   1.783   1.350   1.939
 5303WAT      O16427   2.719   0.997   1.861
 5303WAT     H116428   2.658   0.999   1.787
 5303WAT     H216429   2.688   0.924   1.915
 5304WAT      O16430   2.862   1.370   1.722
 5304WAT     H116431   2.957   1.361   1.717
 5304WAT     H216432   2.847   1.436   1.790
 5305WAT      O16433   3.151   1.308   0.272
 5305WAT     H116434   3.122   1.266   0.191
 5305WAT     H216435   3.131   1.400   0.260
 5306WAT      O16436   1.607   0.635   1.761
 5306WAT     H116437   1.657   0.577   1.818
 5306WAT     H216438   1.533   0.663   1.815
 5307WAT      O16439   2.312   0.775   1.714
 5307WAT     H116440   2.236   0.832   1.706
 5307WAT     H216441   2.330   0.746   1.625
 5308WAT      O16442   2.621   0.813   0.177
 5308WAT     H116443   2.566   0.858   0.241
 5308WAT     H216444   2.683   0.763   0.229
 5309WAT      O16445   3.027   0.949   1.770
 5309WAT     H116446   3.101   0.982   1.720
 5309WAT     H216447   2.950   0.965   1.715
 5310WAT      O16448   1.810   0.449   1.850
 5310WAT     H116449   1.814   0.419   1.941
 5310WAT     H216450   1.896   0.489   1.835
 5311WAT      O16451   2.188   0.709   0.366
 5311WAT     H116452   2.230   0.692   0.451
 5311WAT     H216453   2.200   0.628   0.317
 5312WAT      O16454   2.004   0.307   1.647
 5312WAT     H116455   1.951   0.258   1.584
 5312WAT     H216456   2.071   0.350   1.594
 5313WAT      O16457   2.894   0.754   1.624
 5313WAT     H116458   2.935   0.769   1.709
 5313WAT     H216459   2.800   0.766   1.640
 5314WAT      O16460   2.941   0.488   1.824
 5314WAT     H116461   2.999   0.412   1.815
 5314WAT     H216462   2.959   0.541   1.746
 5315WAT      O16463   2.370   0.749   1.421
 5315WAT     H116464   2.412   0.833   1.403
 5315WAT     H216465   2.278   0.763   1.398
 5316WAT      O16466   2.604   0.522   1.559
 5316WAT     H116467   2.616   0.462   1.633
 5316WAT     H216468   2.690   0.526   1.517
 5317WAT      O16469   2.838   0.577   1.417
 5317WAT     H116470   2.785   0.630   1.356
 5317WAT     H216471   2.872   0.641   1.480
 5318WAT      O16472   2.155   1.379   1.532
 5318WAT     H116473   2.101   1.452   1.500
 5318WAT     H216474   2.181   1.332   1.453
 5319WAT      O16475   2.441   1.503   1.558
 5319WAT     H116476   2.433   1.593   1.589
 5319WAT     H216477   2.351   1.471   1.555
 5320WAT      O16478   2.496   1.420   0.320
 5320WAT     H116479   2.585   1.453   0.322
 5320WAT     H216480   2.499   1.347   0.258
 5321WAT      O16481   1.581   1.236   0.888
 5321WAT     H116482   1.614   1.149   0.865
 5321WAT     H216483   1.624   1.256   0.971
 5322WAT      O16484   2.041   1.069   0.654
 5322WAT     H116485   2.011   1.056   0.744
 5322WAT     H216486   2.030   0.983   0.614
 5323WAT      O16487   1.630   1.322   1.162
 5323WAT     H116488   1.586   1.340   1.245
 5323WAT     H216489   1.687   1.398   1.148
 5324WAT      O16490   3.194   1.273   1.591
 5324WAT     H116491   3.134   1.278   1.517
 5324WAT     H216492   3.207   1.179   1.604
 5325WAT      O16493   3.263   0.721   0.375
 5325WAT     H116494   3.339   0.778   0.386
 5325WAT     H216495   3.265   0.664   0.452
 5326WAT      O16496   1.613   0.574   0.798
 5326WAT     H116497   1.548   0.547   0.734
 5326WAT     H216498   1.697   0.563   0.753
 5327WAT      O16499   3.364   0.807   0.859
 5327WAT     H116500   3.401   0.728   0.819
 5327WAT     H216501   3.428   0.876   0.842
 5328WAT      O16502   3.062   0.945   1.401
 5328WAT     H116503   2.981   0.988   1.427
 5328WAT     H216504   3.103   1.006   1.339
 5329WAT      O16505   3.258   0.544   0.590
 5329WAT     H116506   3.220   0.468   0.547
 5329WAT     H216507   3.185   0.582   0.639
 5330WAT      O16508   1.717   0.612   1.252
 5330WAT     H116509   1.754   0.603   1.340
 5330WAT     H216510   1.660   0.536   1.242
 5331WAT      O16511   3.197   0.459   1.553
 5331WAT     H116512   3.174   0.436   1.463
 5331WAT     H216513   3.223   0.551   1.549
 5332WAT      O16514   1.672   0.303   1.643
 5332WAT     H116515   1.583   0.300   1.677
 5332WAT     H216516   1.726   0.323   1.719
 5333WAT      O16517   1.535   0.295   0.392
 5333WAT     H116518   1.444   0.321   0.375
 5333WAT     H216519   1.583   0.322   0.314
 5334WAT      O16520   3.186   0.367   0.920
 5334WAT     H116521   3.238   0.317   0.857
 5334WAT     H216522   3.244   0.380   0.995
 5335WAT      O16523   3.203   0.375   1.272
 5335WAT     H116524   3.108   0.372   1.284
 5335WAT     H216525   3.222   0.466   1.249
 5336WAT      O16526   3.135   0.293   0.514
 5336WAT     H116527   3.184   0.269   0.592
 5336WAT     H216528   3.115   0.209   0.472
 5337WAT      O16529   3.068   1.420   0.753
 5337WAT     H116530   3.127   1.388   0.686
 5337WAT     H216531   3.094   1.373   0.833
 5338WAT      O16532   1.859   1.063   1.768
 5338WAT     H116533   1.854   1.026   1.856
 5338WAT     H216534   1.872   1.157   1.782
 5339WAT      O16535   2.229   1.219   1.328
 5339WAT     H116536   2.204   1.246   1.240
 5339WAT     H216537   2.323   1.236   1.334
 5340WAT      O16538   3.355   1.421   1.408
 5340WAT     H116539   3.305   1.461   1.337
 5340WAT     H216540   3.294   1.358   1.448
 5341WAT      O16541   1.842   1.358   1.480
 5341WAT     H116542   1.783   1.345   1.554
 5341WAT     H216543   1.842   1.274   1.434
 5342WAT      O16544   3.123   1.485   1.136
 5342WAT     H116545   3.077   1.560   1.099
 5342WAT     H216546   3.060   1.413   1.131
 5343WAT      O16547   1.806   1.095   1.375
 5343WAT     H116548   1.733   1.033   1.369
 5343WAT     H216549   1.812   1.134   1.288
 5344WAT      O16550   2.166   1.316   1.054
 5344WAT     H116551   2.218   1.255   1.001
 5344WAT     H216552   2.231   1.366   1.103
 5345WAT      O16553   2.440   1.405   1.137
 5345WAT     H116554   2.469   1.380   1.049
 5345WAT     H216555   2.491   1.350   1.196
 5346WAT      O16556   1.634   1.426   0.696
 5346WAT     H116557   1.617   1.363   0.766
 5346WAT     H216558   1.547   1.447   0.661
 5347WAT      O16559   1.794   1.296   0.441
 5347WAT     H116560   1.742   1.334   0.370
 5347WAT     H216561   1.787   1.358   0.513
 5348WAT      O16562   2.447   1.497   1.873
 5348WAT     H116563   2.539   1.474   1.878
 5348WAT     H216564   2.445   1.580   1.825
 5349WAT      O16565   3.270   1.452   0.573
 5349WAT     H116566   3.288   1.383   0.509
 5349WAT     H216567   3.200   1.504   0.534
 5350WAT      O16568   2.054   1.491   0.328
 5350WAT     H116569   2.128   1.462   0.274
 5350WAT     H216570   2.080   1.467   0.417
 5351WAT      O16571   1.971   1.102   0.329
 5351WAT     H116572   1.908   1.149   0.384
 5351WAT     H216573   1.982   1.018   0.372
 5352WAT      O16574   3.103   1.420   1.856
 5352WAT     H116575   3.183   1.371   1.835
 5352WAT     H216576   3.133   1.488   1.916
 5353WAT      O16577   0.839   6.140   4.576
 5353WAT     H116578   0.831   6.048   4.549
 5353WAT     H216579   0.797   6.189   4.505
 5354WAT      O16580   0.652   6.317   4.764
 5354WAT     H116581   0.574   6.269   4.793
 5354WAT     H216582   0.717   6.249   4.747
 5355WAT      O16583   0.596   6.585   4.765
 5355WAT     H116584   0.589   6.491   4.749
 5355WAT     H216585   0.672   6.594   4.822
 5356WAT      O16586   0.699   5.866   4.788
 5356WAT     H116587   0.737   5.778   4.776
 5356WAT     H216588   0.689   5.899   4.698
 5357WAT      O16589   1.077   5.615   4.481
 5357WAT     H116590   1.159   5.566   4.485
 5357WAT     H216591   1.080   5.674   4.556
 5358WAT      O16592   0.296   6.000   4.767
 5358WAT     H116593   0.347   6.050   4.831
 5358WAT     H216594   0.349   5.922   4.749
 5359WAT      O16595   1.506   5.817   5.137
 5359WAT     H116596   1.436   5.856   5.085
 5359WAT     H216597   1.533   5.886   5.197
 5360WAT      O16598   0.763   6.475   4.344
 5360WAT     H116599   0.701   6.521   4.287
 5360WAT     H216600   0.814   6.544   4.385
 5361WAT      O16601   0.249   6.428   5.011
 5361WAT     H116602   0.216   6.490   5.076
 5361WAT     H216603   0.267   6.480   4.933
 5362WAT      O16604   1.101   5.809   4.758
 5362WAT     H116605   1.030   5.838   4.816
 5362WAT     H216606   1.137   5.890   4.722
 5363WAT      O16607   1.408   5.754   4.797
 5363WAT     H116608   1.313   5.757   4.810
 5363WAT     H216609   1.440   5.835   4.836
 5364WAT      O16610   0.461   5.384   4.627
 5364WAT     H116611   0.492   5.328   4.555
 5364WAT     H216612   0.368   5.397   4.609
 5365WAT      O16613   0.956   6.446   4.989
 5365WAT     H116614   0.998   6.424   4.905
 5365WAT     H216615   1.028   6.471   5.046
 5366WAT      O16616   0.700   6.190   4.300
 5366WAT     H116617   0.607   6.184   4.323
 5366WAT     H216618   0.715   6.284   4.289
 5367WAT      O16619   0.698   5.817   4.000
 5367WAT     H116620   0.604   5.833   4.009
 5367WAT     H216621   0.730   5.889   3.945
 5368WAT      O16622   1.350   6.285   4.998
 5368WAT     H116623   1.268   6.292   4.950
 5368WAT     H216624   1.410   6.344   4.951
 5369WAT      O16625   1.103   6.346   4.351
 5369WAT     H116626   1.041   6.313   4.286
 5369WAT     H216627   1.101   6.282   4.422
 5370WAT      O16628   1.047   5.964   5.092
 5370WAT     H116629   1.006   6.047   5.118
 5370WAT     H216630   0.974   5.906   5.073
 5371WAT      O16631   0.260   6.243   4.579
 5371WAT     H116632   0.220   6.172   4.529
 5371WAT     H216633   0.269   6.208   4.667
 5372WAT      O16634   0.307   6.611   4.795
 5372WAT     H116635   0.277   6.551   4.727
 5372WAT     H216636   0.402   6.615   4.784
 5373WAT      O16637   0.920   6.270   4.051
 5373WAT     H116638   0.964   6.186   4.037
 5373WAT     H216639   0.992   6.334   4.060
 5374WAT      O16640   1.278   5.396   3.883
 5374WAT     H116641   1.247   5.405   3.973
 5374WAT     H216642   1.355   5.453   3.878
 5375WAT      O16643   1.399   5.869   5.481
 5375WAT     H116644   1.338   5.920   5.428
 5375WAT     H216645   1.367   5.779   5.475
 5376WAT      O16646   0.606   5.753   5.227
 5376WAT     H116647   0.559   5.774   5.308
 5376WAT     H216648   0.565   5.672   5.197
 5377WAT      O16649   1.106   5.875   5.340
 5377WAT     H116650   1.021   5.845   5.372
 5377WAT     H216651   1.090   5.900   5.249
 5378WAT      O16652   0.815   6.025   5.550
 5378WAT     H116653   0.848   5.942   5.516
 5378WAT     H216654   0.894   6.078   5.565
 5379WAT      O16655   0.488   5.429   4.155
 5379WAT     H116656   0.426   5.428   4.227
 5379WAT     H216657   0.480   5.342   4.115
 5380WAT      O16658   0.381   5.521   4.853
 5380WAT     H116659   0.410   5.612   4.845
 5380WAT     H216660   0.436   5.472   4.791
 5381WAT      O16661   0.879   5.980   4.300
 5381WAT     H116662   0.819   6.052   4.281
 5381WAT     H216663   0.934   5.973   4.221
 5382WAT      O16664   0.400   6.069   5.506
 5382WAT     H116665   0.390   5.975   5.491
 5382WAT     H216666   0.484   6.091   5.467
 5383WAT      O16667   0.740   5.843   4.503
 5383WAT     H116668   0.779   5.875   4.421
 5383WAT     H216669   0.776   5.755   4.514
 5384WAT      O16670   0.798   6.102   4.912
 5384WAT     H116671   0.725   6.153   4.947
 5384WAT     H216672   0.758   6.021   4.882
 5385WAT      O16673   0.442   5.770   4.753
 5385WAT     H116674   0.442   5.726   4.668
 5385WAT     H216675   0.531   5.802   4.763
 5386WAT      O16676   0.448   5.870   4.052
 5386WAT     H116677   0.460   5.866   4.147
 5386WAT     H216678   0.410   5.956   4.036
 5387WAT      O16679   0.844   5.648   4.853
 5387WAT     H116680   0.846   5.693   4.938
 5387WAT     H216681   0.820   5.558   4.875
 5388WAT      O16682   0.349   6.101   3.992
 5388WAT     H116683   0.293   6.056   3.929
 5388WAT     H216684   0.420   6.137   3.938
 5389WAT      O16685   1.187   5.389   5.437
 5389WAT     H116686   1.220   5.316   5.490
 5389WAT     H216687   1.191   5.357   5.347
 5390WAT      O16688   0.472   6.176   4.927
 5390WAT     H116689   0.509   6.128   5.002
 5390WAT     H216690   0.453   6.263   4.961
 5391WAT      O16691   0.251   6.080   5.159
 5391WAT     H116692   0.221   6.168   5.182
 5391WAT     H216693   0.347   6.086   5.163
 5392WAT      O16694   1.180   6.400   4.798
 5392WAT     H116695   1.252   6.450   4.759
 5392WAT     H216696   1.160   6.332   4.734
 5393WAT      O16697   0.726   5.540   4.212
 5393WAT     H116698   0.645   5.490   4.205
 5393WAT     H216699   0.706   5.624   4.171
 5394WAT      O16700   0.718   6.407   5.387
 5394WAT     H116701   0.711   6.315   5.361
 5394WAT     H216702   0.655   6.417   5.458
 5395WAT      O16703   0.997   5.977   4.042
 5395WAT     H116704   1.086   6.008   4.025
 5395WAT     H216705   0.994   5.889   4.003
 5396WAT      O16706   0.177   6.210   5.562
 5396WAT     H116707   0.147   6.224   5.473
 5396WAT     H216708   0.254   6.154   5.553
 5397WAT      O16709   1.224   6.108   3.989
 5397WAT     H116710   1.216   6.151   3.904
 5397WAT     H216711   1.296   6.154   4.032
 5398WAT      O16712   1.332   6.354   5.297
 5398WAT     H116713   1.260   6.413   5.277
 5398WAT     H216714   1.385   6.353   5.217
 5399WAT      O16715   0.885   6.526   4.646
 5399WAT     H116716   0.920   6.466   4.580
 5399WAT     H216717   0.797   6.494   4.663
 5400WAT      O16718   0.424   6.303   4.348
 5400WAT     H116719   0.470   6.384   4.371
 5400WAT     H216720   0.389   6.271   4.431
 5401WAT      O16721   1.124   6.474   4.082
 5401WAT     H116722   1.096   6.520   4.160
 5401WAT     H216723   1.204   6.428   4.108
 5402WAT      O16724   0.864   5.762   5.117
 5402WAT     H116725   0.900   5.680   5.149
 5402WAT     H216726   0.778   5.768   5.158
 5403WAT      O16727   1.200   5.658   4.197
 5403WAT     H116728   1.137   5.668   4.126
 5403WAT     H216729   1.151   5.680   4.276
 5404WAT      O16730   0.397   5.886   4.339
 5404WAT     H116731   0.326   5.932   4.383
 5404WAT     H216732   0.425   5.820   4.403
 5405WAT      O16733   0.560   6.027   5.139
 5405WAT     H116734   0.609   6.075   5.206
 5405WAT     H216735   0.574   5.935   5.160
 5406WAT      O16736   0.800   5.558   4.483
 5406WAT     H116737   0.788   5.560   4.388
 5406WAT     H216738   0.895   5.563   4.495
 5407WAT      O16739   0.217   5.716   4.077
 5407WAT     H116740   0.302   5.760   4.070
 5407WAT     H216741   0.181   5.748   4.159
 5408WAT      O16742   1.280   5.649   5.223
 5408WAT     H116743   1.230   5.723   5.257
 5408WAT     H216744   1.362   5.688   5.192
 5409WAT      O16745   1.109   6.173   4.568
 5409WAT     H116746   1.015   6.175   4.585
 5409WAT     H216747   1.141   6.095   4.612
 5410WAT      O16748   0.420   6.539   3.871
 5410WAT     H116749   0.409   6.478   3.944
 5410WAT     H216750   0.403   6.487   3.793
 5411WAT      O16751   0.435   6.408   5.469
 5411WAT     H116752   0.358   6.465   5.461
 5411WAT     H216753   0.453   6.379   5.380
 5412WAT      O16754   0.744   6.445   3.932
 5412WAT     H116755   0.689   6.490   3.996
 5412WAT     H216756   0.806   6.395   3.984
 5413WAT      O16757   1.149   6.581   5.525
 5413WAT     H116758   1.223   6.615   5.475
 5413WAT     H216759   1.073   6.598   5.470
 5414WAT      O16760   0.310   6.341   4.121
 5414WAT     H116761   0.353   6.325   4.206
 5414WAT     H216762   0.323   6.260   4.072
 5415WAT      O16763   0.562   6.244   3.846
 5415WAT     H116764   0.614   6.172   3.810
 5415WAT     H216765   0.626   6.308   3.876
 5416WAT      O16766   1.017   6.386   5.378
 5416WAT     H116767   1.058   6.401   5.463
 5416WAT     H216768   0.923   6.399   5.395
 5417WAT      O16769   0.452   5.492   5.113
 5417WAT     H116770   0.407   5.494   5.029
 5417WAT     H216771   0.389   5.452   5.173
 5418WAT      O16772   0.493   6.381   5.175
 5418WAT     H116773   0.535   6.466   5.158
 5418WAT     H216774   0.401   6.395   5.153
 5419WAT      O16775   0.726   6.154   5.314
 5419WAT     H116776   0.738   6.095   5.388
 5419WAT     H216777   0.812   6.158   5.272
 5420WAT      O16778   0.960   6.210   5.171
 5420WAT     H116779   0.908   6.262   5.111
 5420WAT     H216780   0.995   6.273   5.235
 5421WAT      O16781   0.200   5.949   3.816
 5421WAT     H116782   0.180   5.862   3.852
 5421WAT     H216783   0.183   5.940   3.722
 5422WAT      O16784   0.403   5.809   5.440
 5422WAT     H116785   0.462   5.778   5.508
 5422WAT     H216786   0.321   5.761   5.455
 5423WAT      O16787   0.885   5.770   5.463
 5423WAT     H116788   0.816   5.704   5.456
 5423WAT     H216789   0.957   5.726   5.507
 5424WAT      O16790   0.948   5.430   4.069
 5424WAT     H116791   0.976   5.345   4.104
 5424WAT     H216792   0.871   5.453   4.120
 5425WAT      O16793   0.402   5.553   3.913
 5425WAT     H116794   0.367   5.485   3.855
 5425WAT     H216795   0.422   5.507   3.995
 5426WAT      O16796   1.386   6.354   4.130
 5426WAT     H116797   1.462   6.410   4.140
 5426WAT     H216798   1.387   6.297   4.207
 5427WAT      O16799   1.486   6.439   4.614
 5427WAT     H116800   1.523   6.361   4.574
 5427WAT     H216801   1.550   6.508   4.596
 5428WAT      O16802   1.185   6.577   5.156
 5428WAT     H116803   1.103   6.620   5.182
 5428WAT     H216804   1.225   6.639   5.094
 5429WAT      O16805   1.391   6.383   3.846
 5429WAT     H116806   1.418   6.474   3.833
 5429WAT     H216807   1.372   6.376   3.939
 5430WAT      O16808   1.031   5.685   3.975
 5430WAT     H116809   1.073   5.667   3.891
 5430WAT     H216810   1.000   5.600   4.006
 5431WAT      O16811   1.381   6.177   4.345
 5431WAT     H116812   1.343   6.100   4.302
 5431WAT     H216813   1.308   6.215   4.394
 5432WAT      O16814   1.320   6.091   5.308
 5432WAT     H116815   1.296   6.068   5.218
 5432WAT     H216816   1.346   6.183   5.304
 5433WAT      O16817   1.308   5.999   4.675
 5433WAT     H116818   1.360   5.950   4.612
 5433WAT     H216819   1.367   6.013   4.749
 5434WAT      O16820   1.326   6.008   5.027
 5434WAT     H116821   1.231   6.004   5.039
 5434WAT     H216822   1.344   6.099   5.004
 5435WAT      O16823   1.257   5.925   4.269
 5435WAT     H116824   1.307   5.902   4.347
 5435WAT     H216825   1.237   5.841   4.227
 5436WAT      O16826   1.400   5.788   4.522
 5436WAT     H116827   1.389   5.773   4.616
 5436WAT     H216828   1.476   5.736   4.498
 5437WAT      O16829   1.235   5.382   5.168
 5437WAT     H116830   1.298   5.444   5.205
 5437WAT     H216831   1.249   5.386   5.074
 5438WAT      O16832   1.489   5.572   3.846
 5438WAT     H116833   1.581   5.558   3.825
 5438WAT     H216834   1.487   5.579   3.942
 5439WAT      O16835   1.496   5.649   4.109
 5439WAT     H116836   1.417   5.642   4.162
 5439WAT     H216837   1.517   5.742   4.108
 5440WAT      O16838   0.572   5.498   5.459
 5440WAT     H116839   0.566   5.557   5.534
 5440WAT     H216840   0.666   5.487   5.444
 5441WAT      O16841   0.835   5.463   5.423
 5441WAT     H116842   0.897   5.495   5.357
 5441WAT     H216843   0.890   5.415   5.485
 5442WAT      O16844   0.910   5.320   5.055
 5442WAT     H116845   0.822   5.353   5.035
 5442WAT     H216846   0.899   5.272   5.138
 5443WAT      O16847   1.000   5.540   5.194
 5443WAT     H116848   0.967   5.459   5.156
 5443WAT     H216849   1.095   5.536   5.182
 5444WAT      O16850   0.684   5.411   4.949
 5444WAT     H116851   0.606   5.459   4.977
 5444WAT     H216852   0.655   5.321   4.938
 5445WAT      O16853   1.139   5.482   4.754
 5445WAT     H116854   1.184   5.476   4.669
 5445WAT     H216855   1.113   5.573   4.761
 5446WAT      O16856   1.326   5.445   4.555
 5446WAT     H116857   1.320   5.350   4.540
 5446WAT     H216858   1.404   5.456   4.609
 5447WAT      O16859   0.473   5.653   4.501
 5447WAT     H116860   0.392   5.616   4.466
 5447WAT     H216861   0.523   5.578   4.531
 5448WAT      O16862   0.923   5.320   4.624
 5448WAT     H116863   0.983   5.377   4.672
 5448WAT     H216864   0.849   5.376   4.602
 5449WAT      O16865   1.237   5.360   4.152
 5449WAT     H116866   1.257   5.450   4.178
 5449WAT     H216867   1.159   5.337   4.201
 5450WAT      O16868   0.275   5.468   4.361
 5450WAT     H116869   0.212   5.398   4.378
 5450WAT     H216870   0.221   5.544   4.339
 5451WAT      O16871   0.839   6.140   2.699
 5451WAT     H116872   0.831   6.048   2.672
 5451WAT     H216873   0.797   6.189   2.628
 5452WAT      O16874   0.652   6.317   2.887
 5452WAT     H116875   0.574   6.269   2.916
 5452WAT     H216876   0.717   6.249   2.869
 5453WAT      O16877   0.596   6.585   2.887
 5453WAT     H116878   0.589   6.491   2.871
 5453WAT     H216879   0.672   6.594   2.945
 5454WAT      O16880   0.699   5.866   2.910
 5454WAT     H116881   0.737   5.778   2.899
 5454WAT     H216882   0.689   5.899   2.821
 5455WAT      O16883   1.077   5.615   2.603
 5455WAT     H116884   1.159   5.566   2.608
 5455WAT     H216885   1.080   5.674   2.679
 5456WAT      O16886   0.296   6.000   2.890
 5456WAT     H116887   0.347   6.050   2.954
 5456WAT     H216888   0.349   5.922   2.872
 5457WAT      O16889   1.506   5.817   3.260
 5457WAT     H116890   1.436   5.856   3.208
 5457WAT     H216891   1.533   5.886   3.320
 5458WAT      O16892   0.763   6.475   2.466
 5458WAT     H116893   0.701   6.521   2.410
 5458WAT     H216894   0.814   6.544   2.508
 5459WAT      O16895   0.249   6.428   3.134
 5459WAT     H116896   0.216   6.490   3.198
 5459WAT     H216897   0.267   6.480   3.056
 5460WAT      O16898   1.101   5.809   2.881
 5460WAT     H116899   1.030   5.838   2.939
 5460WAT     H216900   1.137   5.890   2.845
 5461WAT      O16901   1.408   5.754   2.920
 5461WAT     H116902   1.313   5.757   2.933
 5461WAT     H216903   1.440   5.835   2.958
 5462WAT      O16904   0.461   5.384   2.749
 5462WAT     H116905   0.492   5.328   2.678
 5462WAT     H216906   0.368   5.397   2.731
 5463WAT      O16907   0.956   6.446   3.111
 5463WAT     H116908   0.998   6.424   3.028
 5463WAT     H216909   1.028   6.471   3.168
 5464WAT      O16910   0.700   6.190   2.423
 5464WAT     H116911   0.607   6.184   2.446
 5464WAT     H216912   0.715   6.284   2.411
 5465WAT      O16913   0.698   5.817   2.123
 5465WAT     H116914   0.604   5.833   2.131
 5465WAT     H216915   0.730   5.889   2.068
 5466WAT      O16916   1.350   6.285   3.120
 5466WAT     H116917   1.268   6.292   3.073
 5466WAT     H216918   1.410   6.344   3.074
 5467WAT      O16919   1.103   6.346   2.473
 5467WAT     H116920   1.041   6.313   2.409
 5467WAT     H216921   1.101   6.282   2.544
 5468WAT      O16922   1.047   5.964   3.215
 5468WAT     H116923   1.006   6.047   3.240
 5468WAT     H216924   0.974   5.906   3.196
 5469WAT      O16925   0.260   6.243   2.701
 5469WAT     H116926   0.220   6.172   2.652
 5469WAT     H216927   0.269   6.208   2.790
 5470WAT      O16928   0.307   6.611   2.918
 5470WAT     H116929   0.277   6.551   2.850
 5470WAT     H216930   0.402   6.615   2.906
 5471WAT      O16931   0.920   6.270   2.174
 5471WAT     H116932   0.964   6.186   2.159
 5471WAT     H216933   0.992   6.334   2.183
 5472WAT      O16934   1.278   5.396   2.005
 5472WAT     H116935   1.247   5.405   2.095
 5472WAT     H216936   1.355   5.453   2.000
 5473WAT      O16937   1.399   5.869   3.603
 5473WAT     H116938   1.338   5.920   3.550
 5473WAT     H216939   1.367   5.779   3.597
 5474WAT      O16940   0.606   5.753   3.350
 5474WAT     H116941   0.559   5.774   3.431
 5474WAT     H216942   0.565   5.672   3.320
 5475WAT      O16943   1.106   5.875   3.463
 5475WAT     H116944   1.021   5.845   3.495
 5475WAT     H216945   1.090   5.900   3.372
 5476WAT      O16946   0.815   6.025   3.673
 5476WAT     H116947   0.848   5.942   3.639
 5476WAT     H216948   0.894   6.078   3.688
 5477WAT      O16949   0.488   5.429   2.278
 5477WAT     H116950   0.426   5.428   2.350
 5477WAT     H216951   0.480   5.342   2.238
 5478WAT      O16952   0.381   5.521   2.975
 5478WAT     H116953   0.410   5.612   2.967
 5478WAT     H216954   0.436   5.472   2.914
 5479WAT      O16955   0.879   5.980   2.422
 5479WAT     H116956   0.819   6.052   2.404
 5479WAT     H216957   0.934   5.973   2.344
 5480WAT      O16958   0.400   6.069   3.629
 5480WAT     H116959   0.390   5.975   3.614
 5480WAT     H216960   0.484   6.091   3.589
 5481WAT      O16961   0.740   5.843   2.625
 5481WAT     H116962   0.779   5.875   2.544
 5481WAT     H216963   0.776   5.755   2.637
 5482WAT      O16964   0.571   5.718   3.751
 5482WAT     H116965   0.502   5.699   3.815
 5482WAT     H216966   0.645   5.747   3.804
 5483WAT      O16967   0.798   6.102   3.035
 5483WAT     H116968   0.725   6.153   3.070
 5483WAT     H216969   0.758   6.021   3.005
 5484WAT      O16970   0.442   5.770   2.875
 5484WAT     H116971   0.442   5.726   2.790
 5484WAT     H216972   0.531   5.802   2.886
 5485WAT      O16973   0.448   5.870   2.174
 5485WAT     H116974   0.460   5.866   2.269
 5485WAT     H216975   0.410   5.956   2.159
 5486WAT      O16976   0.844   5.648   2.976
 5486WAT     H116977   0.846   5.693   3.060
 5486WAT     H216978   0.820   5.558   2.997
 5487WAT      O16979   0.349   6.101   2.114
 5487WAT     H116980   0.293   6.056   2.051
 5487WAT     H216981   0.420   6.137   2.061
 5488WAT      O16982   1.187   5.389   3.560
 5488WAT     H116983   1.220   5.316   3.612
 5488WAT     H216984   1.191   5.357   3.470
 5489WAT      O16985   0.472   6.176   3.050
 5489WAT     H116986   0.509   6.128   3.124
 5489WAT     H216987   0.453   6.263   3.084
 5490WAT      O16988   0.251   6.080   3.282
 5490WAT     H116989   0.221   6.168   3.304
 5490WAT     H216990   0.347   6.086   3.285
 5491WAT      O16991   1.180   6.400   2.921
 5491WAT     H116992   1.252   6.450   2.882
 5491WAT     H216993   1.160   6.332   2.856
 5492WAT      O16994   0.726   5.540   2.335
 5492WAT     H116995   0.645   5.490   2.327
 5492WAT     H216996   0.706   5.624   2.293
 5493WAT      O16997   0.718   6.407   3.509
 5493WAT     H116998   0.711   6.315   3.484
 5493WAT     H216999   0.655   6.417   3.581
 5494WAT      O17000   0.997   5.977   2.165
 5494WAT     H117001   1.086   6.008   2.147
 5494WAT     H217002   0.994   5.889   2.125
 5495WAT      O17003   0.177   6.210   3.685
 5495WAT     H117004   0.147   6.224   3.595
 5495WAT     H217005   0.254   6.154   3.676
 5496WAT      O17006   1.224   6.108   2.111
 5496WAT     H117007   1.216   6.151   2.026
 5496WAT     H217008   1.296   6.154   2.155
 5497WAT      O17009   1.332   6.354   3.419
 5497WAT     H117010   1.260   6.413   3.399
 5497WAT     H217011   1.385   6.353   3.339
 5498WAT      O17012   0.885   6.526   2.769
 5498WAT     H117013   0.920   6.466   2.703
 5498WAT     H217014   0.797   6.494   2.786
 5499WAT      O17015   0.424   6.303   2.471
 5499WAT     H117016   0.470   6.384   2.493
 5499WAT     H217017   0.389   6.271   2.554
 5500WAT      O17018   1.124   6.474   2.204
 5500WAT     H117019   1.096   6.520   2.283
 5500WAT     H217020   1.204   6.428   2.231
 5501WAT      O17021   0.864   5.762   3.239
 5501WAT     H117022   0.900   5.680   3.272
 5501WAT     H217023   0.778   5.768   3.281
 5502WAT      O17024   1.200   5.658   2.320
 5502WAT     H117025   1.137   5.668   2.249
 5502WAT     H217026   1.151   5.680   2.399
 5503WAT      O17027   0.397   5.886   2.462
 5503WAT     H117028   0.326   5.932   2.506
 5503WAT     H217029   0.425   5.820   2.525
 5504WAT      O17030   0.560   6.027   3.262
 5504WAT     H117031   0.609   6.075   3.328
 5504WAT     H217032   0.574   5.935   3.282
 5505WAT      O17033   0.800   5.558   2.606
 5505WAT     H117034   0.788   5.560   2.511
 5505WAT     H217035   0.895   5.563   2.618
 5506WAT      O17036   0.217   5.716   2.199
 5506WAT     H117037   0.302   5.760   2.193
 5506WAT     H217038   0.181   5.748   2.282
 5507WAT      O17039   1.280   5.649   3.346
 5507WAT     H117040   1.230   5.723   3.380
 5507WAT     H217041   1.362   5.688   3.314
 5508WAT      O17042   1.109   6.173   2.690
 5508WAT     H117043   1.015   6.175   2.708
 5508WAT     H217044   1.141   6.095   2.735
 5509WAT      O17045   0.841   6.629   3.739
 5509WAT     H117046   0.781   6.631   3.665
 5509WAT     H217047   0.811   6.556   3.792
 5510WAT      O17048   0.420   6.539   1.994
 5510WAT     H117049   0.409   6.478   2.066
 5510WAT     H217050   0.403   6.487   1.915
 5511WAT      O17051   0.435   6.408   3.592
 5511WAT     H117052   0.358   6.465   3.583
 5511WAT     H217053   0.453   6.379   3.502
 5512WAT      O17054   0.744   6.445   2.054
 5512WAT     H117055   0.689   6.490   2.119
 5512WAT     H217056   0.806   6.395   2.107
 5513WAT      O17057   1.149   6.581   3.647
 5513WAT     H117058   1.223   6.615   3.597
 5513WAT     H217059   1.073   6.598   3.592
 5514WAT      O17060   0.310   6.341   2.244
 5514WAT     H117061   0.353   6.325   2.328
 5514WAT     H217062   0.323   6.260   2.194
 5515WAT      O17063   0.562   6.244   1.969
 5515WAT     H117064   0.614   6.172   1.932
 5515WAT     H217065   0.626   6.308   1.999
 5516WAT      O17066   1.017   6.386   3.501
 5516WAT     H117067   1.058   6.401   3.586
 5516WAT     H217068   0.923   6.399   3.517
 5517WAT      O17069   1.064   6.120   3.701
 5517WAT     H117070   1.122   6.044   3.693
 5517WAT     H217071   1.081   6.173   3.624
 5518WAT      O17072   0.452   5.492   3.236
 5518WAT     H117073   0.407   5.494   3.151
 5518WAT     H217074   0.389   5.452   3.296
 5519WAT      O17075   0.493   6.381   3.298
 5519WAT     H117076   0.535   6.466   3.281
 5519WAT     H217077   0.401   6.395   3.275
 5520WAT      O17078   0.726   6.154   3.436
 5520WAT     H117079   0.738   6.095   3.510
 5520WAT     H217080   0.812   6.158   3.394
 5521WAT      O17081   0.960   6.210   3.294
 5521WAT     H117082   0.908   6.262   3.234
 5521WAT     H217083   0.995   6.273   3.357
 5522WAT      O17084   0.200   5.949   1.938
 5522WAT     H117085   0.180   5.862   1.975
 5522WAT     H217086   0.183   5.940   1.845
 5523WAT      O17087   0.403   5.809   3.562
 5523WAT     H117088   0.462   5.778   3.631
 5523WAT     H217089   0.321   5.761   3.578
 5524WAT      O17090   0.885   5.770   3.585
 5524WAT     H117091   0.816   5.704   3.579
 5524WAT     H217092   0.957   5.726   3.630
 5525WAT      O17093   0.948   5.430   2.191
 5525WAT     H117094   0.976   5.345   2.227
 5525WAT     H217095   0.871   5.453   2.243
 5526WAT      O17096   0.402   5.553   2.036
 5526WAT     H117097   0.367   5.485   1.978
 5526WAT     H217098   0.422   5.507   2.117
 5527WAT      O17099   1.386   6.354   2.252
 5527WAT     H117100   1.462   6.410   2.263
 5527WAT     H217101   1.387   6.297   2.329
 5528WAT      O17102   1.486   6.439   2.737
 5528WAT     H117103   1.523   6.361   2.696
 5528WAT     H217104   1.550   6.508   2.719
 5529WAT      O17105   1.185   6.577   3.278
 5529WAT     H117106   1.103   6.620   3.304
 5529WAT     H217107   1.225   6.639   3.217
 5530WAT      O17108   1.391   6.383   1.968
 5530WAT     H117109   1.418   6.474   1.955
 5530WAT     H217110   1.372   6.376   2.062
 5531WAT      O17111   1.031   5.685   2.098
 5531WAT     H117112   1.073   5.667   2.014
 5531WAT     H217113   1.000   5.600   2.129
 5532WAT      O17114   1.381   6.177   2.467
 5532WAT     H117115   1.343   6.100   2.424
 5532WAT     H217116   1.308   6.215   2.516
 5533WAT      O17117   1.320   6.091   3.431
 5533WAT     H117118   1.296   6.068   3.341
 5533WAT     H217119   1.346   6.183   3.426
 5534WAT      O17120   1.163   5.614   3.709
 5534WAT     H117121   1.251   5.615   3.747
 5534WAT     H217122   1.165   5.540   3.648
 5535WAT      O17123   1.308   5.999   2.797
 5535WAT     H117124   1.360   5.950   2.734
 5535WAT     H217125   1.367   6.013   2.872
 5536WAT      O17126   1.326   6.008   3.150
 5536WAT     H117127   1.231   6.004   3.161
 5536WAT     H217128   1.344   6.099   3.126
 5537WAT      O17129   1.257   5.925   2.391
 5537WAT     H117130   1.307   5.902   2.470
 5537WAT     H217131   1.237   5.841   2.350
 5538WAT      O17132   1.400   5.788   2.645
 5538WAT     H117133   1.389   5.773   2.739
 5538WAT     H217134   1.476   5.736   2.621
 5539WAT      O17135   1.235   5.382   3.291
 5539WAT     H117136   1.298   5.444   3.327
 5539WAT     H217137   1.249   5.386   3.196
 5540WAT      O17138   1.489   5.572   1.969
 5540WAT     H117139   1.581   5.558   1.948
 5540WAT     H217140   1.487   5.579   2.064
 5541WAT      O17141   1.496   5.649   2.231
 5541WAT     H117142   1.417   5.642   2.284
 5541WAT     H217143   1.517   5.742   2.230
 5542WAT      O17144   0.572   5.498   3.581
 5542WAT     H117145   0.566   5.557   3.656
 5542WAT     H217146   0.666   5.487   3.567
 5543WAT      O17147   0.835   5.463   3.545
 5543WAT     H117148   0.897   5.495   3.479
 5543WAT     H217149   0.890   5.415   3.607
 5544WAT      O17150   0.910   5.320   3.178
 5544WAT     H117151   0.822   5.353   3.158
 5544WAT     H217152   0.899   5.272   3.261
 5545WAT      O17153   1.000   5.540   3.316
 5545WAT     H117154   0.967   5.459   3.278
 5545WAT     H217155   1.095   5.536   3.304
 5546WAT      O17156   0.684   5.411   3.072
 5546WAT     H117157   0.606   5.459   3.100
 5546WAT     H217158   0.655   5.321   3.061
 5547WAT      O17159   1.139   5.482   2.876
 5547WAT     H117160   1.184   5.476   2.792
 5547WAT     H217161   1.113   5.573   2.884
 5548WAT      O17162   1.326   5.445   2.678
 5548WAT     H117163   1.320   5.350   2.663
 5548WAT     H217164   1.404   5.456   2.732
 5549WAT      O17165   0.473   5.653   2.623
 5549WAT     H117166   0.392   5.616   2.589
 5549WAT     H217167   0.523   5.578   2.653
 5550WAT      O17168   0.923   5.320   2.747
 5550WAT     H117169   0.983   5.377   2.794
 5550WAT     H217170   0.849   5.376   2.725
 5551WAT      O17171   1.237   5.360   2.274
 5551WAT     H117172   1.257   5.450   2.301
 5551WAT     H217173   1.159   5.337   2.324
 5552WAT      O17174   0.275   5.468   2.484
 5552WAT     H117175   0.212   5.398   2.500
 5552WAT     H217176   0.221   5.544   2.462
 5553WAT      O17177   0.288   5.396   3.727
 5553WAT     H117178   0.260   5.446   3.651
 5553WAT     H217179   0.326   5.316   3.690
 5554WAT      O17180   0.948   5.338   3.785
 5554WAT     H117181   0.937   5.370   3.874
 5554WAT     H217182   1.030   5.378   3.755
 5555WAT      O17183   0.839   6.140   0.821
 5555WAT     H117184   0.831   6.048   0.794
 5555WAT     H217185   0.797   6.189   0.751
 5556WAT      O17186   0.652   6.317   1.009
 5556WAT     H117187   0.574   6.269   1.038
 5556WAT     H217188   0.717   6.249   0.992
 5557WAT      O17189   0.596   6.585   1.010
 5557WAT     H117190   0.589   6.491   0.994
 5557WAT     H217191   0.672   6.594   1.067
 5558WAT      O17192   0.699   5.866   1.033
 5558WAT     H117193   0.737   5.778   1.021
 5558WAT     H217194   0.689   5.899   0.944
 5559WAT      O17195   1.077   5.615   0.726
 5559WAT     H117196   1.159   5.566   0.730
 5559WAT     H217197   1.080   5.674   0.801
 5560WAT      O17198   0.296   6.000   1.012
 5560WAT     H117199   0.347   6.050   1.076
 5560WAT     H217200   0.349   5.922   0.995
 5561WAT      O17201   1.506   5.817   1.382
 5561WAT     H117202   1.436   5.856   1.331
 5561WAT     H217203   1.533   5.886   1.443
 5562WAT      O17204   0.763   6.475   0.589
 5562WAT     H117205   0.701   6.521   0.532
 5562WAT     H217206   0.814   6.544   0.630
 5563WAT      O17207   0.249   6.428   1.256
 5563WAT     H117208   0.216   6.490   1.321
 5563WAT     H217209   0.267   6.480   1.179
 5564WAT      O17210   1.101   5.809   1.003
 5564WAT     H117211   1.030   5.838   1.061
 5564WAT     H217212   1.137   5.890   0.967
 5565WAT      O17213   1.408   5.754   1.042
 5565WAT     H117214   1.313   5.757   1.056
 5565WAT     H217215   1.440   5.835   1.081
 5566WAT      O17216   0.461   5.384   0.872
 5566WAT     H117217   0.492   5.328   0.800
 5566WAT     H217218   0.368   5.397   0.854
 5567WAT      O17219   0.956   6.446   1.234
 5567WAT     H117220   0.998   6.424   1.150
 5567WAT     H217221   1.028   6.471   1.291
 5568WAT      O17222   0.700   6.190   0.546
 5568WAT     H117223   0.607   6.184   0.568
 5568WAT     H217224   0.715   6.284   0.534
 5569WAT      O17225   0.698   5.817   0.245
 5569WAT     H117226   0.604   5.833   0.254
 5569WAT     H217227   0.730   5.889   0.191
 5570WAT      O17228   1.350   6.285   1.243
 5570WAT     H117229   1.268   6.292   1.195
 5570WAT     H217230   1.410   6.344   1.196
 5571WAT      O17231   1.103   6.346   0.596
 5571WAT     H117232   1.041   6.313   0.531
 5571WAT     H217233   1.101   6.282   0.667
 5572WAT      O17234   1.047   5.964   1.338
 5572WAT     H117235   1.006   6.047   1.363
 5572WAT     H217236   0.974   5.906   1.318
 5573WAT      O17237   0.260   6.243   0.824
 5573WAT     H117238   0.220   6.172   0.774
 5573WAT     H217239   0.269   6.208   0.913
 5574WAT      O17240   0.307   6.611   1.040
 5574WAT     H117241   0.277   6.551   0.972
 5574WAT     H217242   0.402   6.615   1.029
 5575WAT      O17243   0.920   6.270   0.297
 5575WAT     H117244   0.964   6.186   0.282
 5575WAT     H217245   0.992   6.334   0.305
 5576WAT      O17246   1.399   5.869   1.726
 5576WAT     H117247   1.338   5.920   1.673
 5576WAT     H217248   1.367   5.779   1.720
 5577WAT      O17249   0.606   5.753   1.472
 5577WAT     H117250   0.559   5.774   1.554
 5577WAT     H217251   0.565   5.672   1.442
 5578WAT      O17252   1.106   5.875   1.585
 5578WAT     H117253   1.021   5.845   1.617
 5578WAT     H217254   1.090   5.900   1.494
 5579WAT      O17255   0.815   6.025   1.795
 5579WAT     H117256   0.848   5.942   1.761
 5579WAT     H217257   0.894   6.078   1.810
 5580WAT      O17258   0.488   5.429   0.400
 5580WAT     H117259   0.426   5.428   0.473
 5580WAT     H217260   0.480   5.342   0.360
 5581WAT      O17261   0.381   5.521   1.098
 5581WAT     H117262   0.410   5.612   1.090
 5581WAT     H217263   0.436   5.472   1.037
 5582WAT      O17264   0.879   5.980   0.545
 5582WAT     H117265   0.819   6.052   0.526
 5582WAT     H217266   0.934   5.973   0.466
 5583WAT      O17267   0.400   6.069   1.751
 5583WAT     H117268   0.390   5.975   1.736
 5583WAT     H217269   0.484   6.091   1.712
 5584WAT      O17270   0.740   5.843   0.748
 5584WAT     H117271   0.779   5.875   0.666
 5584WAT     H217272   0.776   5.755   0.759
 5585WAT      O17273   0.571   5.718   1.874
 5585WAT     H117274   0.502   5.699   1.937
 5585WAT     H217275   0.645   5.747   1.927
 5586WAT      O17276   0.798   6.102   1.157
 5586WAT     H117277   0.725   6.153   1.192
 5586WAT     H217278   0.758   6.021   1.127
 5587WAT      O17279   0.442   5.770   0.998
 5587WAT     H117280   0.442   5.726   0.913
 5587WAT     H217281   0.531   5.802   1.009
 5588WAT      O17282   0.448   5.870   0.297
 5588WAT     H117283   0.460   5.866   0.392
 5588WAT     H217284   0.410   5.956   0.281
 5589WAT      O17285   0.844   5.648   1.098
 5589WAT     H117286   0.846   5.693   1.183
 5589WAT     H217287   0.820   5.558   1.120
 5590WAT      O17288   0.349   6.101   0.237
 5590WAT     H117289   0.293   6.056   0.174
 5590WAT     H217290   0.420   6.137   0.183
 5591WAT      O17291   1.187   5.389   1.682
 5591WAT     H117292   1.220   5.316   1.735
 5591WAT     H217293   1.191   5.357   1.592
 5592WAT      O17294   0.472   6.176   1.172
 5592WAT     H117295   0.509   6.128   1.247
 5592WAT     H217296   0.453   6.263   1.207
 5593WAT      O17297   0.251   6.080   1.404
 5593WAT     H117298   0.221   6.168   1.427
 5593WAT     H217299   0.347   6.086   1.408
 5594WAT      O17300   1.180   6.400   1.043
 5594WAT     H117301   1.252   6.450   1.004
 5594WAT     H217302   1.160   6.332   0.979
 5595WAT      O17303   0.726   5.540   0.458
 5595WAT     H117304   0.645   5.490   0.450
 5595WAT     H217305   0.706   5.624   0.416
 5596WAT      O17306   0.718   6.407   1.632
 5596WAT     H117307   0.711   6.315   1.606
 5596WAT     H217308   0.655   6.417   1.703
 5597WAT      O17309   0.997   5.977   0.287
 5597WAT     H117310   1.086   6.008   0.270
 5597WAT     H217311   0.994   5.889   0.248
 5598WAT      O17312   0.177   6.210   1.807
 5598WAT     H117313   0.147   6.224   1.718
 5598WAT     H217314   0.254   6.154   1.798
 5599WAT      O17315   1.332   6.354   1.542
 5599WAT     H117316   1.260   6.413   1.522
 5599WAT     H217317   1.385   6.353   1.462
 5600WAT      O17318   0.885   6.526   0.891
 5600WAT     H117319   0.920   6.466   0.825
 5600WAT     H217320   0.797   6.494   0.909
 5601WAT      O17321   0.424   6.303   0.593
 5601WAT     H117322   0.470   6.384   0.616
 5601WAT     H217323   0.389   6.271   0.677
 5602WAT      O17324   1.124   6.474   0.327
 5602WAT     H117325   1.096   6.520   0.405
 5602WAT     H217326   1.204   6.428   0.354
 5603WAT      O17327   0.864   5.762   1.362
 5603WAT     H117328   0.900   5.680   1.395
 5603WAT     H217329   0.778   5.768   1.403
 5604WAT      O17330   1.200   5.658   0.443
 5604WAT     H117331   1.137   5.668   0.371
 5604WAT     H217332   1.151   5.680   0.522
 5605WAT      O17333   0.397   5.886   0.584
 5605WAT     H117334   0.326   5.932   0.628
 5605WAT     H217335   0.425   5.820   0.648
 5606WAT      O17336   0.560   6.027   1.384
 5606WAT     H117337   0.609   6.075   1.451
 5606WAT     H217338   0.574   5.935   1.405
 5607WAT      O17339   0.800   5.558   0.728
 5607WAT     H117340   0.788   5.560   0.633
 5607WAT     H217341   0.895   5.563   0.740
 5608WAT      O17342   0.217   5.716   0.322
 5608WAT     H117343   0.302   5.760   0.315
 5608WAT     H217344   0.181   5.748   0.404
 5609WAT      O17345   1.280   5.649   1.468
 5609WAT     H117346   1.230   5.723   1.502
 5609WAT     H217347   1.362   5.688   1.437
 5610WAT      O17348   1.109   6.173   0.813
 5610WAT     H117349   1.015   6.175   0.830
 5610WAT     H217350   1.141   6.095   0.858
 5611WAT      O17351   0.841   6.629   1.861
 5611WAT     H117352   0.781   6.631   1.787
 5611WAT     H217353   0.811   6.556   1.915
 5612WAT      O17354   0.435   6.408   1.714
 5612WAT     H117355   0.358   6.465   1.706
 5612WAT     H217356   0.453   6.379   1.625
 5613WAT      O17357   0.744   6.445   0.177
 5613WAT     H117358   0.689   6.490   0.241
 5613WAT     H217359   0.806   6.395   0.229
 5614WAT      O17360   1.149   6.581   1.770
 5614WAT     H117361   1.223   6.615   1.720
 5614WAT     H217362   1.073   6.598   1.715
 5615WAT      O17363   0.310   6.341   0.366
 5615WAT     H117364   0.353   6.325   0.451
 5615WAT     H217365   0.323   6.260   0.317
 5616WAT      O17366   1.017   6.386   1.624
 5616WAT     H117367   1.058   6.401   1.709
 5616WAT     H217368   0.923   6.399   1.640
 5617WAT      O17369   1.064   6.120   1.824
 5617WAT     H117370   1.122   6.044   1.815
 5617WAT     H217371   1.081   6.173   1.746
 5618WAT      O17372   0.452   5.492   1.358
 5618WAT     H117373   0.407   5.494   1.274
 5618WAT     H217374   0.389   5.452   1.418
 5619WAT      O17375   0.493   6.381   1.421
 5619WAT     H117376   0.535   6.466   1.403
 5619WAT     H217377   0.401   6.395   1.398
 5620WAT      O17378   0.726   6.154   1.559
 5620WAT     H117379   0.738   6.095   1.633
 5620WAT     H217380   0.812   6.158   1.517
 5621WAT      O17381   0.960   6.210   1.417
 5621WAT     H117382   0.908   6.262   1.356
 5621WAT     H217383   0.995   6.273   1.480
 5622WAT      O17384   0.403   5.809   1.685
 5622WAT     H117385   0.462   5.778   1.753
 5622WAT     H217386   0.321   5.761   1.700
 5623WAT      O17387   0.885   5.770   1.708
 5623WAT     H117388   0.816   5.704   1.702
 5623WAT     H217389   0.957   5.726   1.753
 5624WAT      O17390   0.948   5.430   0.314
 5624WAT     H117391   0.976   5.345   0.350
 5624WAT     H217392   0.871   5.453   0.365
 5625WAT      O17393   1.386   6.354   0.375
 5625WAT     H117394   1.462   6.410   0.386
 5625WAT     H217395   1.387   6.297   0.452
 5626WAT      O17396   1.486   6.439   0.859
 5626WAT     H117397   1.523   6.361   0.819
 5626WAT     H217398   1.550   6.508   0.842
 5627WAT      O17399   1.185   6.577   1.401
 5627WAT     H117400   1.103   6.620   1.427
 5627WAT     H217401   1.225   6.639   1.339
 5628WAT      O17402   1.381   6.177   0.590
 5628WAT     H117403   1.343   6.100   0.547
 5628WAT     H217404   1.308   6.215   0.639
 5629WAT      O17405   1.320   6.091   1.553
 5629WAT     H117406   1.296   6.068   1.463
 5629WAT     H217407   1.346   6.183   1.549
 5630WAT      O17408   1.163   5.614   1.831
 5630WAT     H117409   1.251   5.615   1.870
 5630WAT     H217410   1.165   5.540   1.770
 5631WAT      O17411   1.308   5.999   0.920
 5631WAT     H117412   1.360   5.950   0.857
 5631WAT     H217413   1.367   6.013   0.995
 5632WAT      O17414   1.326   6.008   1.272
 5632WAT     H117415   1.231   6.004   1.284
 5632WAT     H217416   1.344   6.099   1.249
 5633WAT      O17417   1.257   5.925   0.514
 5633WAT     H117418   1.307   5.902   0.592
 5633WAT     H217419   1.237   5.841   0.472
 5634WAT      O17420   1.400   5.788   0.767
 5634WAT     H117421   1.389   5.773   0.861
 5634WAT     H217422   1.476   5.736   0.743
 5635WAT      O17423   1.235   5.382   1.413
 5635WAT     H117424   1.298   5.444   1.450
 5635WAT     H217425   1.249   5.386   1.319
 5636WAT      O17426   1.496   5.649   0.354
 5636WAT     H117427   1.417   5.642   0.407
 5636WAT     H217428   1.517   5.742   0.353
 5637WAT      O17429   0.572   5.498   1.704
 5637WAT     H117430   0.566   5.557   1.779
 5637WAT     H217431   0.666   5.487   1.689
 5638WAT      O17432   0.835   5.463   1.668
 5638WAT     H117433   0.897   5.495   1.602
 5638WAT     H217434   0.890   5.415   1.730
 5639WAT      O17435   0.910   5.320   1.301
 5639WAT     H117436   0.822   5.353   1.280
 5639WAT     H217437   0.899   5.272   1.383
 5640WAT      O17438   1.000   5.540   1.439
 5640WAT     H117439   0.967   5.459   1.401
 5640WAT     H217440   1.095   5.536   1.427
 5641WAT      O17441   0.684   5.411   1.194
 5641WAT     H117442   0.606   5.459   1.222
 5641WAT     H217443   0.655   5.321   1.184
 5642WAT      O17444   1.139   5.482   0.999
 5642WAT     H117445   1.184   5.476   0.914
 5642WAT     H217446   1.113   5.573   1.006
 5643WAT      O17447   1.326   5.445   0.800
 5643WAT     H117448   1.320   5.350   0.785
 5643WAT     H217449   1.404   5.456   0.855
 5644WAT      O17450   0.473   5.653   0.746
 5644WAT     H117451   0.392   5.616   0.712
 5644WAT     H217452   0.523   5.578   0.776
 5645WAT      O17453   0.923   5.320   0.869
 5645WAT     H117454   0.983   5.377   0.917
 5645WAT     H217455   0.849   5.376   0.847
 5646WAT      O17456   1.237   5.360   0.397
 5646WAT     H117457   1.257   5.450   0.424
 5646WAT     H217458   1.159   5.337   0.446
 5647WAT      O17459   0.275   5.468   0.606
 5647WAT     H117460   0.212   5.398   0.623
 5647WAT     H217461   0.221   5.544   0.584
 5648WAT      O17462   0.288   5.396   1.850
 5648WAT     H117463   0.260   5.446   1.773
 5648WAT     H217464   0.326   5.316   1.813
 5649WAT      O17465   0.948   5.338   1.907
 5649WAT     H117466   0.937   5.370   1.997
 5649WAT     H217467   1.030   5.378   1.878
 5650WAT      O17468   0.839   4.262   4.576
 5650WAT     H117469   0.831   4.171   4.549
 5650WAT     H217470   0.797   4.312   4.505
 5651WAT      O17471   0.652   4.440   4.764
 5651WAT     H117472   0.574   4.392   4.793
 5651WAT     H217473   0.717   4.372   4.747
 5652WAT      O17474   1.054   4.881   4.642
 5652WAT     H117475   1.008   4.803   4.675
 5652WAT     H217476   1.135   4.883   4.693
 5653WAT      O17477   0.676   5.109   4.604
 5653WAT     H117478   0.615   5.155   4.547
 5653WAT     H217479   0.762   5.125   4.564
 5654WAT      O17480   0.596   4.707   4.765
 5654WAT     H117481   0.589   4.613   4.749
 5654WAT     H217482   0.672   4.717   4.822
 5655WAT      O17483   0.699   3.988   4.788
 5655WAT     H117484   0.737   3.901   4.776
 5655WAT     H217485   0.689   4.022   4.698
 5656WAT      O17486   1.077   3.738   4.481
 5656WAT     H117487   1.159   3.689   4.485
 5656WAT     H217488   1.080   3.797   4.556
 5657WAT      O17489   0.296   4.122   4.767
 5657WAT     H117490   0.347   4.172   4.831
 5657WAT     H217491   0.349   4.045   4.749
 5658WAT      O17492   1.506   3.939   5.137
 5658WAT     H117493   1.436   3.978   5.085
 5658WAT     H217494   1.533   4.009   5.197
 5659WAT      O17495   0.763   4.597   4.344
 5659WAT     H117496   0.701   4.644   4.287
 5659WAT     H217497   0.814   4.667   4.385
 5660WAT      O17498   0.249   4.550   5.011
 5660WAT     H117499   0.216   4.613   5.076
 5660WAT     H217500   0.267   4.603   4.933
 5661WAT      O17501   1.101   3.932   4.758
 5661WAT     H117502   1.030   3.961   4.816
 5661WAT     H217503   1.137   4.013   4.722
 5662WAT      O17504   1.262   4.893   4.984
 5662WAT     H117505   1.194   4.960   4.984
 5662WAT     H217506   1.316   4.913   4.908
 5663WAT      O17507   1.408   3.876   4.797
 5663WAT     H117508   1.313   3.880   4.810
 5663WAT     H217509   1.440   3.958   4.836
 5664WAT      O17510   0.461   3.506   4.627
 5664WAT     H117511   0.492   3.451   4.555
 5664WAT     H217512   0.368   3.520   4.609
 5665WAT      O17513   1.016   5.078   4.856
 5665WAT     H117514   1.017   5.038   4.769
 5665WAT     H217515   0.961   5.155   4.845
 5666WAT      O17516   1.145   4.750   4.365
 5666WAT     H117517   1.134   4.656   4.377
 5666WAT     H217518   1.145   4.786   4.453
 5667WAT      O17519   0.956   4.568   4.989
 5667WAT     H117520   0.998   4.547   4.905
 5667WAT     H217521   1.028   4.594   5.046
 5668WAT      O17522   0.700   4.313   4.300
 5668WAT     H117523   0.607   4.306   4.323
 5668WAT     H217524   0.715   4.407   4.289
 5669WAT      O17525   0.698   3.940   4.000
 5669WAT     H117526   0.604   3.956   4.009
 5669WAT     H217527   0.730   4.012   3.945
 5670WAT      O17528   1.350   4.408   4.998
 5670WAT     H117529   1.268   4.415   4.950
 5670WAT     H217530   1.410   4.467   4.951
 5671WAT      O17531   1.103   4.469   4.351
 5671WAT     H117532   1.041   4.435   4.286
 5671WAT     H217533   1.101   4.405   4.422
 5672WAT      O17534   1.047   4.087   5.092
 5672WAT     H117535   1.006   4.169   5.118
 5672WAT     H217536   0.974   4.028   5.073
 5673WAT      O17537   0.260   4.365   4.579
 5673WAT     H117538   0.220   4.294   4.529
 5673WAT     H217539   0.269   4.331   4.667
 5674WAT      O17540   0.307   4.734   4.795
 5674WAT     H117541   0.277   4.673   4.727
 5674WAT     H217542   0.402   4.738   4.784
 5675WAT      O17543   1.116   5.091   5.161
 5675WAT     H117544   1.068   5.172   5.142
 5675WAT     H217545   1.048   5.026   5.176
 5676WAT      O17546   0.920   4.393   4.051
 5676WAT     H117547   0.964   4.309   4.037
 5676WAT     H217548   0.992   4.456   4.060
 5677WAT      O17549   0.731   4.887   4.448
 5677WAT     H117550   0.775   4.961   4.407
 5677WAT     H217551   0.725   4.911   4.541
 5678WAT      O17552   0.279   4.989   5.538
 5678WAT     H117553   0.276   5.030   5.452
 5678WAT     H217554   0.262   4.896   5.522
 5679WAT      O17555   1.278   3.518   3.883
 5679WAT     H117556   1.247   3.527   3.973
 5679WAT     H217557   1.355   3.576   3.878
 5680WAT      O17558   1.414   4.787   5.384
 5680WAT     H117559   1.427   4.763   5.292
 5680WAT     H217560   1.418   4.703   5.431
 5681WAT      O17561   0.800   5.157   5.241
 5681WAT     H117562   0.852   5.148   5.321
 5681WAT     H217563   0.716   5.191   5.270
 5682WAT      O17564   0.998   5.185   4.184
 5682WAT     H117565   0.982   5.156   4.274
 5682WAT     H217566   0.981   5.108   4.130
 5683WAT      O17567   0.246   5.163   4.362
 5683WAT     H117568   0.228   5.072   4.340
 5683WAT     H217569   0.160   5.199   4.386
 5684WAT      O17570   0.968   4.936   4.040
 5684WAT     H117571   0.899   4.936   3.974
 5684WAT     H217572   1.042   4.894   3.997
 5685WAT      O17573   0.925   5.099   4.447
 5685WAT     H117574   0.970   5.021   4.479
 5685WAT     H217575   0.959   5.170   4.502
 5686WAT      O17576   1.399   3.992   5.481
 5686WAT     H117577   1.338   4.043   5.428
 5686WAT     H217578   1.367   3.902   5.475
 5687WAT      O17579   0.606   3.876   5.227
 5687WAT     H117580   0.559   3.897   5.308
 5687WAT     H217581   0.565   3.794   5.197
 5688WAT      O17582   1.106   3.998   5.340
 5688WAT     H117583   1.021   3.968   5.372
 5688WAT     H217584   1.090   4.022   5.249
 5689WAT      O17585   0.815   4.148   5.550
 5689WAT     H117586   0.848   4.065   5.516
 5689WAT     H217587   0.894   4.200   5.565
 5690WAT      O17588   0.488   3.551   4.155
 5690WAT     H117589   0.426   3.551   4.227
 5690WAT     H217590   0.480   3.465   4.115
 5691WAT      O17591   0.381   3.644   4.853
 5691WAT     H117592   0.410   3.734   4.845
 5691WAT     H217593   0.436   3.595   4.791
 5692WAT      O17594   0.879   4.102   4.300
 5692WAT     H117595   0.819   4.174   4.281
 5692WAT     H217596   0.934   4.096   4.221
 5693WAT      O17597   0.400   4.191   5.506
 5693WAT     H117598   0.390   4.097   5.491
 5693WAT     H217599   0.484   4.213   5.467
 5694WAT      O17600   0.740   3.966   4.503
 5694WAT     H117601   0.779   3.997   4.421
 5694WAT     H217602   0.776   3.878   4.514
 5695WAT      O17603   0.798   4.225   4.912
 5695WAT     H117604   0.725   4.276   4.947
 5695WAT     H217605   0.758   4.143   4.882
 5696WAT      O17606   0.442   3.892   4.753
 5696WAT     H117607   0.442   3.848   4.668
 5696WAT     H217608   0.531   3.925   4.763
 5697WAT      O17609   0.448   3.992   4.052
 5697WAT     H117610   0.460   3.988   4.147
 5697WAT     H217611   0.410   4.079   4.036
 5698WAT      O17612   0.844   3.770   4.853
 5698WAT     H117613   0.846   3.815   4.938
 5698WAT     H217614   0.820   3.680   4.875
 5699WAT      O17615   0.349   4.223   3.992
 5699WAT     H117616   0.293   4.179   3.929
 5699WAT     H217617   0.420   4.259   3.938
 5700WAT      O17618   1.187   3.511   5.437
 5700WAT     H117619   1.220   3.438   5.490
 5700WAT     H217620   1.191   3.480   5.347
 5701WAT      O17621   0.472   4.298   4.927
 5701WAT     H117622   0.509   4.251   5.002
 5701WAT     H217623   0.453   4.386   4.961
 5702WAT      O17624   0.251   4.202   5.159
 5702WAT     H117625   0.221   4.290   5.182
 5702WAT     H217626   0.347   4.208   5.163
 5703WAT      O17627   1.180   4.523   4.798
 5703WAT     H117628   1.252   4.572   4.759
 5703WAT     H217629   1.160   4.455   4.734
 5704WAT      O17630   0.726   3.662   4.212
 5704WAT     H117631   0.645   3.612   4.205
 5704WAT     H217632   0.706   3.746   4.171
 5705WAT      O17633   0.718   4.530   5.387
 5705WAT     H117634   0.711   4.438   5.361
 5705WAT     H217635   0.655   4.540   5.458
 5706WAT      O17636   0.997   4.099   4.042
 5706WAT     H117637   1.086   4.130   4.025
 5706WAT     H217638   0.994   4.012   4.003
 5707WAT      O17639   0.597   4.717   4.110
 5707WAT     H117640   0.631   4.791   4.060
 5707WAT     H217641   0.514   4.748   4.146
 5708WAT      O17642   0.177   4.332   5.562
 5708WAT     H117643   0.147   4.347   5.473
 5708WAT     H217644   0.254   4.276   5.553
 5709WAT      O17645   0.711   4.812   5.362
 5709WAT     H117646   0.713   4.719   5.340
 5709WAT     H217647   0.640   4.821   5.426
 5710WAT      O17648   1.224   4.230   3.989
 5710WAT     H117649   1.216   4.274   3.904
 5710WAT     H217650   1.296   4.276   4.032
 5711WAT      O17651   1.332   4.476   5.297
 5711WAT     H117652   1.260   4.535   5.277
 5711WAT     H217653   1.385   4.475   5.217
 5712WAT      O17654   1.327   4.916   4.262
 5712WAT     H117655   1.263   4.850   4.289
 5712WAT     H217656   1.289   4.956   4.184
 5713WAT      O17657   0.885   4.649   4.646
 5713WAT     H117658   0.920   4.589   4.580
 5713WAT     H217659   0.797   4.616   4.663
 5714WAT      O17660   0.494   4.725   4.387
 5714WAT     H117661   0.563   4.779   4.425
 5714WAT     H217662   0.415   4.779   4.391
 5715WAT      O17663   0.424   4.425   4.348
 5715WAT     H117664   0.470   4.506   4.371
 5715WAT     H217665   0.389   4.393   4.431
 5716WAT      O17666   0.654   4.976   5.071
 5716WAT     H117667   0.719   4.997   5.139
 5716WAT     H217668   0.691   4.900   5.026
 5717WAT      O17669   0.782   4.777   4.943
 5717WAT     H117670   0.846   4.706   4.954
 5717WAT     H217671   0.834   4.855   4.925
 5718WAT      O17672   1.166   4.805   3.915
 5718WAT     H117673   1.144   4.733   3.975
 5718WAT     H217674   1.127   4.780   3.832
 5719WAT      O17675   0.959   4.856   5.263
 5719WAT     H117676   0.993   4.915   5.331
 5719WAT     H217677   0.867   4.843   5.286
 5720WAT      O17678   1.124   4.597   4.082
 5720WAT     H117679   1.096   4.643   4.160
 5720WAT     H217680   1.204   4.551   4.108
 5721WAT      O17681   0.346   4.946   4.075
 5721WAT     H117682   0.345   5.019   4.013
 5721WAT     H217683   0.254   4.921   4.084
 5722WAT      O17684   0.864   3.885   5.117
 5722WAT     H117685   0.900   3.803   5.149
 5722WAT     H217686   0.778   3.891   5.158
 5723WAT      O17687   1.200   3.780   4.197
 5723WAT     H117688   1.137   3.791   4.126
 5723WAT     H217689   1.151   3.802   4.276
 5724WAT      O17690   0.645   4.952   3.941
 5724WAT     H117691   0.655   4.932   3.848
 5724WAT     H217692   0.555   4.927   3.961
 5725WAT      O17693   0.397   4.008   4.339
 5725WAT     H117694   0.326   4.055   4.383
 5725WAT     H217695   0.425   3.942   4.403
 5726WAT      O17696   0.560   4.150   5.139
 5726WAT     H117697   0.609   4.198   5.206
 5726WAT     H217698   0.574   4.058   5.160
 5727WAT      O17699   0.800   3.681   4.483
 5727WAT     H117700   0.788   3.682   4.388
 5727WAT     H217701   0.895   3.685   4.495
 5728WAT      O17702   0.509   5.204   4.410
 5728WAT     H117703   0.534   5.200   4.318
 5728WAT     H217704   0.414   5.191   4.410
 5729WAT      O17705   0.217   3.839   4.077
 5729WAT     H117706   0.302   3.883   4.070
 5729WAT     H217707   0.181   3.870   4.159
 5730WAT      O17708   1.280   3.772   5.223
 5730WAT     H117709   1.230   3.846   5.257
 5730WAT     H217710   1.362   3.811   5.192
 5731WAT      O17711   1.109   4.296   4.568
 5731WAT     H117712   1.015   4.298   4.585
 5731WAT     H217713   1.141   4.217   4.612
 5732WAT      O17714   1.310   5.013   4.735
 5732WAT     H117715   1.322   5.095   4.783
 5732WAT     H217716   1.396   4.992   4.701
 5733WAT      O17717   0.368   5.140   3.885
 5733WAT     H117718   0.447   5.169   3.840
 5733WAT     H217719   0.316   5.097   3.817
 5734WAT      O17720   0.984   5.125   5.477
 5734WAT     H117721   1.079   5.116   5.472
 5734WAT     H217722   0.969   5.191   5.545
 5735WAT      O17723   1.273   5.062   4.027
 5735WAT     H117724   1.245   5.021   3.946
 5735WAT     H217725   1.253   5.155   4.015
 5736WAT      O17726   0.420   4.662   3.871
 5736WAT     H117727   0.409   4.600   3.944
 5736WAT     H217728   0.403   4.609   3.793
 5737WAT      O17729   0.435   4.530   5.469
 5737WAT     H117730   0.358   4.587   5.461
 5737WAT     H217731   0.453   4.501   5.380
 5738WAT      O17732   0.744   4.568   3.932
 5738WAT     H117733   0.689   4.613   3.996
 5738WAT     H217734   0.806   4.517   3.984
 5739WAT      O17735   1.149   4.703   5.525
 5739WAT     H117736   1.223   4.737   5.475
 5739WAT     H217737   1.073   4.720   5.470
 5740WAT      O17738   0.310   4.464   4.121
 5740WAT     H117739   0.353   4.447   4.206
 5740WAT     H217740   0.323   4.383   4.072
 5741WAT      O17741   0.562   4.366   3.846
 5741WAT     H117742   0.614   4.295   3.810
 5741WAT     H217743   0.626   4.430   3.876
 5742WAT      O17744   1.017   4.509   5.378
 5742WAT     H117745   1.058   4.524   5.463
 5742WAT     H217746   0.923   4.521   5.395
 5743WAT      O17747   0.452   3.614   5.113
 5743WAT     H117748   0.407   3.616   5.029
 5743WAT     H217749   0.389   3.574   5.173
 5744WAT      O17750   0.493   4.504   5.175
 5744WAT     H117751   0.535   4.588   5.158
 5744WAT     H217752   0.401   4.517   5.153
 5745WAT      O17753   0.726   4.277   5.314
 5745WAT     H117754   0.738   4.217   5.388
 5745WAT     H217755   0.812   4.281   5.272
 5746WAT      O17756   0.960   4.332   5.171
 5746WAT     H117757   0.908   4.385   5.111
 5746WAT     H217758   0.995   4.396   5.235
 5747WAT      O17759   0.200   4.071   3.816
 5747WAT     H117760   0.180   3.985   3.852
 5747WAT     H217761   0.183   4.063   3.722
 5748WAT      O17762   0.278   5.134   5.287
 5748WAT     H117763   0.224   5.207   5.255
 5748WAT     H217764   0.303   5.087   5.208
 5749WAT      O17765   0.403   3.931   5.440
 5749WAT     H117766   0.462   3.900   5.508
 5749WAT     H217767   0.321   3.884   5.455
 5750WAT      O17768   0.885   3.893   5.463
 5750WAT     H117769   0.816   3.827   5.456
 5750WAT     H217770   0.957   3.848   5.507
 5751WAT      O17771   0.948   3.552   4.069
 5751WAT     H117772   0.976   3.468   4.104
 5751WAT     H217773   0.871   3.576   4.120
 5752WAT      O17774   0.563   5.258   5.313
 5752WAT     H117775   0.556   5.348   5.344
 5752WAT     H217776   0.473   5.226   5.310
 5753WAT      O17777   0.402   3.676   3.913
 5753WAT     H117778   0.367   3.608   3.855
 5753WAT     H217779   0.422   3.629   3.995
 5754WAT      O17780   0.618   5.174   4.075
 5754WAT     H117781   0.708   5.208   4.077
 5754WAT     H217782   0.621   5.102   4.012
 5755WAT      O17783   1.316   5.027   5.346
 5755WAT     H117784   1.256   5.033   5.271
 5755WAT     H217785   1.329   4.933   5.359
 5756WAT      O17786   1.440   4.802   3.880
 5756WAT     H117787   1.357   4.808   3.927
 5756WAT     H217788   1.458   4.891   3.849
 5757WAT      O17789   1.386   4.476   4.130
 5757WAT     H117790   1.462   4.533   4.140
 5757WAT     H217791   1.387   4.419   4.207
 5758WAT      O17792   1.486   4.562   4.614
 5758WAT     H117793   1.523   4.483   4.574
 5758WAT     H217794   1.550   4.630   4.596
 5759WAT      O17795   1.185   4.700   5.156
 5759WAT     H117796   1.103   4.743   5.182
 5759WAT     H217797   1.225   4.761   5.094
 5760WAT      O17798   1.391   4.505   3.846
 5760WAT     H117799   1.418   4.596   3.833
 5760WAT     H217800   1.372   4.499   3.939
 5761WAT      O17801   1.031   3.808   3.975
 5761WAT     H117802   1.073   3.789   3.891
 5761WAT     H217803   1.000   3.723   4.006
 5762WAT      O17804   1.381   4.299   4.345
 5762WAT     H117805   1.343   4.222   4.302
 5762WAT     H217806   1.308   4.337   4.394
 5763WAT      O17807   1.320   4.214   5.308
 5763WAT     H117808   1.296   4.191   5.218
 5763WAT     H217809   1.346   4.306   5.304
 5764WAT      O17810   1.308   4.122   4.675
 5764WAT     H117811   1.360   4.072   4.612
 5764WAT     H217812   1.367   4.135   4.749
 5765WAT      O17813   1.326   4.130   5.027
 5765WAT     H117814   1.231   4.127   5.039
 5765WAT     H217815   1.344   4.221   5.004
 5766WAT      O17816   1.257   4.047   4.269
 5766WAT     H117817   1.307   4.024   4.347
 5766WAT     H217818   1.237   3.964   4.227
 5767WAT      O17819   1.400   3.911   4.522
 5767WAT     H117820   1.389   3.896   4.616
 5767WAT     H217821   1.476   3.858   4.498
 5768WAT      O17822   1.235   3.505   5.168
 5768WAT     H117823   1.298   3.566   5.205
 5768WAT     H217824   1.249   3.509   5.074
 5769WAT      O17825   1.489   3.694   3.846
 5769WAT     H117826   1.581   3.681   3.825
 5769WAT     H217827   1.487   3.702   3.942
 5770WAT      O17828   1.496   3.771   4.109
 5770WAT     H117829   1.417   3.765   4.162
 5770WAT     H217830   1.517   3.865   4.108
 5771WAT      O17831   1.190   5.175   4.508
 5771WAT     H117832   1.250   5.143   4.441
 5771WAT     H217833   1.216   5.128   4.587
 5772WAT      O17834   0.351   4.974   5.083
 5772WAT     H117835   0.327   5.001   4.995
 5772WAT     H217836   0.445   4.991   5.089
 5773WAT      O17837   0.572   3.620   5.459
 5773WAT     H117838   0.566   3.679   5.534
 5773WAT     H217839   0.666   3.609   5.444
 5774WAT      O17840   0.835   3.586   5.423
 5774WAT     H117841   0.897   3.618   5.357
 5774WAT     H217842   0.890   3.537   5.485
 5775WAT      O17843   1.477   5.176   5.163
 5775WAT     H117844   1.428   5.216   5.092
 5775WAT     H217845   1.416   5.113   5.203
 5776WAT      O17846   0.910   3.442   5.055
 5776WAT     H117847   0.822   3.476   5.035
 5776WAT     H217848   0.899   3.395   5.138
 5777WAT      O17849   1.000   3.663   5.194
 5777WAT     H117850   0.967   3.581   5.156
 5777WAT     H217851   1.095   3.659   5.182
 5778WAT      O17852   1.246   5.240   4.891
 5778WAT     H117853   1.200   5.315   4.854
 5778WAT     H217854   1.183   5.168   4.885
 5779WAT      O17855   0.289   5.071   4.809
 5779WAT     H117856   0.340   5.010   4.756
 5779WAT     H217857   0.354   5.121   4.858
 5780WAT      O17858   0.562   5.160   4.891
 5780WAT     H117859   0.591   5.135   4.804
 5780WAT     H217860   0.614   5.105   4.950
 5781WAT      O17861   0.684   3.534   4.949
 5781WAT     H117862   0.606   3.581   4.977
 5781WAT     H217863   0.655   3.444   4.938
 5782WAT      O17864   1.139   3.604   4.754
 5782WAT     H117865   1.184   3.599   4.669
 5782WAT     H217866   1.113   3.696   4.761
 5783WAT      O17867   1.326   3.567   4.555
 5783WAT     H117868   1.320   3.473   4.540
 5783WAT     H217869   1.404   3.578   4.609
 5784WAT      O17870   0.473   3.776   4.501
 5784WAT     H117871   0.392   3.738   4.466
 5784WAT     H217872   0.523   3.700   4.531
 5785WAT      O17873   0.923   3.442   4.624
 5785WAT     H117874   0.983   3.499   4.672
 5785WAT     H217875   0.849   3.499   4.602
 5786WAT      O17876   1.237   3.482   4.152
 5786WAT     H117877   1.257   3.572   4.178
 5786WAT     H217878   1.159   3.459   4.201
 5787WAT      O17879   0.275   3.591   4.361
 5787WAT     H117880   0.212   3.521   4.378
 5787WAT     H217881   0.221   3.667   4.339
 5788WAT      O17882   1.393   5.206   4.328
 5788WAT     H117883   1.410   5.138   4.263
 5788WAT     H217884   1.323   5.259   4.289
 5789WAT      O17885   0.177   5.245   4.083
 5789WAT     H117886   0.250   5.217   4.028
 5789WAT     H217887   0.203   5.222   4.172
 5790WAT      O17888   0.839   4.262   2.699
 5790WAT     H117889   0.831   4.171   2.672
 5790WAT     H217890   0.797   4.312   2.628
 5791WAT      O17891   0.652   4.440   2.887
 5791WAT     H117892   0.574   4.392   2.916
 5791WAT     H217893   0.717   4.372   2.869
 5792WAT      O17894   1.054   4.881   2.765
 5792WAT     H117895   1.008   4.803   2.798
 5792WAT     H217896   1.135   4.883   2.815
 5793WAT      O17897   0.676   5.109   2.727
 5793WAT     H117898   0.615   5.155   2.670
 5793WAT     H217899   0.762   5.125   2.687
 5794WAT      O17900   0.596   4.707   2.887
 5794WAT     H117901   0.589   4.613   2.871
 5794WAT     H217902   0.672   4.717   2.945
 5795WAT      O17903   0.699   3.988   2.910
 5795WAT     H117904   0.737   3.901   2.899
 5795WAT     H217905   0.689   4.022   2.821
 5796WAT      O17906   1.077   3.738   2.603
 5796WAT     H117907   1.159   3.689   2.608
 5796WAT     H217908   1.080   3.797   2.679
 5797WAT      O17909   0.296   4.122   2.890
 5797WAT     H117910   0.347   4.172   2.954
 5797WAT     H217911   0.349   4.045   2.872
 5798WAT      O17912   1.506   3.939   3.260
 5798WAT     H117913   1.436   3.978   3.208
 5798WAT     H217914   1.533   4.009   3.320
 5799WAT      O17915   0.763   4.597   2.466
 5799WAT     H117916   0.701   4.644   2.410
 5799WAT     H217917   0.814   4.667   2.508
 5800WAT      O17918   0.249   4.550   3.134
 5800WAT     H117919   0.216   4.613   3.198
 5800WAT     H217920   0.267   4.603   3.056
 5801WAT      O17921   1.101   3.932   2.881
 5801WAT     H117922   1.030   3.961   2.939
 5801WAT     H217923   1.137   4.013   2.845
 5802WAT      O17924   1.262   4.893   3.107
 5802WAT     H117925   1.194   4.960   3.106
 5802WAT     H217926   1.316   4.913   3.030
 5803WAT      O17927   1.408   3.876   2.920
 5803WAT     H117928   1.313   3.880   2.933
 5803WAT     H217929   1.440   3.958   2.958
 5804WAT      O17930   0.461   3.506   2.749
 5804WAT     H117931   0.492   3.451   2.678
 5804WAT     H217932   0.368   3.520   2.731
 5805WAT      O17933   1.016   5.078   2.978
 5805WAT     H117934   1.017   5.038   2.892
 5805WAT     H217935   0.961   5.155   2.968
 5806WAT      O17936   1.145   4.750   2.487
 5806WAT     H117937   1.134   4.656   2.500
 5806WAT     H217938   1.145   4.786   2.576
 5807WAT      O17939   0.956   4.568   3.111
 5807WAT     H117940   0.998   4.547   3.028
 5807WAT     H217941   1.028   4.594   3.168
 5808WAT      O17942   0.700   4.313   2.423
 5808WAT     H117943   0.607   4.306   2.446
 5808WAT     H217944   0.715   4.407   2.411
 5809WAT      O17945   0.698   3.940   2.123
 5809WAT     H117946   0.604   3.956   2.131
 5809WAT     H217947   0.730   4.012   2.068
 5810WAT      O17948   1.350   4.408   3.120
 5810WAT     H117949   1.268   4.415   3.073
 5810WAT     H217950   1.410   4.467   3.074
 5811WAT      O17951   1.103   4.469   2.473
 5811WAT     H117952   1.041   4.435   2.409
 5811WAT     H217953   1.101   4.405   2.544
 5812WAT      O17954   1.047   4.087   3.215
 5812WAT     H117955   1.006   4.169   3.240
 5812WAT     H217956   0.974   4.028   3.196
 5813WAT      O17957   0.260   4.365   2.701
 5813WAT     H117958   0.220   4.294   2.652
 5813WAT     H217959   0.269   4.331   2.790
 5814WAT      O17960   0.307   4.734   2.918
 5814WAT     H117961   0.277   4.673   2.850
 5814WAT     H217962   0.402   4.738   2.906
 5815WAT      O17963   1.116   5.091   3.284
 5815WAT     H117964   1.068   5.172   3.264
 5815WAT     H217965   1.048   5.026   3.299
 5816WAT      O17966   0.920   4.393   2.174
 5816WAT     H117967   0.964   4.309   2.159
 5816WAT     H217968   0.992   4.456   2.183
 5817WAT      O17969   0.731   4.887   2.571
 5817WAT     H117970   0.775   4.961   2.529
 5817WAT     H217971   0.725   4.911   2.663
 5818WAT      O17972   0.279   4.989   3.661
 5818WAT     H117973   0.276   5.030   3.574
 5818WAT     H217974   0.262   4.896   3.645
 5819WAT      O17975   1.278   3.518   2.005
 5819WAT     H117976   1.247   3.527   2.095
 5819WAT     H217977   1.355   3.576   2.000
 5820WAT      O17978   1.474   5.067   3.791
 5820WAT     H117979   1.521   5.115   3.859
 5820WAT     H217980   1.536   5.061   3.718
 5821WAT      O17981   1.414   4.787   3.507
 5821WAT     H117982   1.427   4.763   3.415
 5821WAT     H217983   1.418   4.703   3.554
 5822WAT      O17984   0.800   5.157   3.364
 5822WAT     H117985   0.852   5.148   3.444
 5822WAT     H217986   0.716   5.191   3.393
 5823WAT      O17987   0.998   5.185   2.306
 5823WAT     H117988   0.982   5.156   2.396
 5823WAT     H217989   0.981   5.108   2.253
 5824WAT      O17990   0.246   5.163   2.484
 5824WAT     H117991   0.228   5.072   2.463
 5824WAT     H217992   0.160   5.199   2.508
 5825WAT      O17993   0.968   4.936   2.162
 5825WAT     H117994   0.899   4.936   2.096
 5825WAT     H217995   1.042   4.894   2.119
 5826WAT      O17996   0.925   5.099   2.570
 5826WAT     H117997   0.970   5.021   2.601
 5826WAT     H217998   0.959   5.170   2.624
 5827WAT      O17999   1.399   3.992   3.603
 5827WAT     H118000   1.338   4.043   3.550
 5827WAT     H218001   1.367   3.902   3.597
 5828WAT      O18002   0.606   3.876   3.350
 5828WAT     H118003   0.559   3.897   3.431
 5828WAT     H218004   0.565   3.794   3.320
 5829WAT      O18005   1.106   3.998   3.463
 5829WAT     H118006   1.021   3.968   3.495
 5829WAT     H218007   1.090   4.022   3.372
 5830WAT      O18008   0.815   4.148   3.673
 5830WAT     H118009   0.848   4.065   3.639
 5830WAT     H218010   0.894   4.200   3.688
 5831WAT      O18011   0.488   3.551   2.278
 5831WAT     H118012   0.426   3.551   2.350
 5831WAT     H218013   0.480   3.465   2.238
 5832WAT      O18014   0.381   3.644   2.975
 5832WAT     H118015   0.410   3.734   2.967
 5832WAT     H218016   0.436   3.595   2.914
 5833WAT      O18017   0.879   4.102   2.422
 5833WAT     H118018   0.819   4.174   2.404
 5833WAT     H218019   0.934   4.096   2.344
 5834WAT      O18020   0.400   4.191   3.629
 5834WAT     H118021   0.390   4.097   3.614
 5834WAT     H218022   0.484   4.213   3.589
 5835WAT      O18023   0.740   3.966   2.625
 5835WAT     H118024   0.779   3.997   2.544
 5835WAT     H218025   0.776   3.878   2.637
 5836WAT      O18026   0.571   3.841   3.751
 5836WAT     H118027   0.502   3.822   3.815
 5836WAT     H218028   0.645   3.869   3.804
 5837WAT      O18029   0.798   4.225   3.035
 5837WAT     H118030   0.725   4.276   3.070
 5837WAT     H218031   0.758   4.143   3.005
 5838WAT      O18032   0.442   3.892   2.875
 5838WAT     H118033   0.442   3.848   2.790
 5838WAT     H218034   0.531   3.925   2.886
 5839WAT      O18035   0.448   3.992   2.174
 5839WAT     H118036   0.460   3.988   2.269
 5839WAT     H218037   0.410   4.079   2.159
 5840WAT      O18038   0.844   3.770   2.976
 5840WAT     H118039   0.846   3.815   3.060
 5840WAT     H218040   0.820   3.680   2.997
 5841WAT      O18041   0.349   4.223   2.114
 5841WAT     H118042   0.293   4.179   2.051
 5841WAT     H218043   0.420   4.259   2.061
 5842WAT      O18044   1.187   3.511   3.560
 5842WAT     H118045   1.220   3.438   3.612
 5842WAT     H218046   1.191   3.480   3.470
 5843WAT      O18047   0.472   4.298   3.050
 5843WAT     H118048   0.509   4.251   3.124
 5843WAT     H218049   0.453   4.386   3.084
 5844WAT      O18050   0.251   4.202   3.282
 5844WAT     H118051   0.221   4.290   3.304
 5844WAT     H218052   0.347   4.208   3.285
 5845WAT      O18053   1.180   4.523   2.921
 5845WAT     H118054   1.252   4.572   2.882
 5845WAT     H218055   1.160   4.455   2.856
 5846WAT      O18056   0.726   3.662   2.335
 5846WAT     H118057   0.645   3.612   2.327
 5846WAT     H218058   0.706   3.746   2.293
 5847WAT      O18059   0.718   4.530   3.509
 5847WAT     H118060   0.711   4.438   3.484
 5847WAT     H218061   0.655   4.540   3.581
 5848WAT      O18062   0.997   4.099   2.165
 5848WAT     H118063   1.086   4.130   2.147
 5848WAT     H218064   0.994   4.012   2.125
 5849WAT      O18065   0.597   4.717   2.232
 5849WAT     H118066   0.631   4.791   2.183
 5849WAT     H218067   0.514   4.748   2.269
 5850WAT      O18068   0.177   4.332   3.685
 5850WAT     H118069   0.147   4.347   3.595
 5850WAT     H218070   0.254   4.276   3.676
 5851WAT      O18071   0.711   4.812   3.484
 5851WAT     H118072   0.713   4.719   3.463
 5851WAT     H218073   0.640   4.821   3.548
 5852WAT      O18074   1.224   4.230   2.111
 5852WAT     H118075   1.216   4.274   2.026
 5852WAT     H218076   1.296   4.276   2.155
 5853WAT      O18077   1.332   4.476   3.419
 5853WAT     H118078   1.260   4.535   3.399
 5853WAT     H218079   1.385   4.475   3.339
 5854WAT      O18080   1.327   4.916   2.384
 5854WAT     H118081   1.263   4.850   2.412
 5854WAT     H218082   1.289   4.956   2.307
 5855WAT      O18083   0.885   4.649   2.769
 5855WAT     H118084   0.920   4.589   2.703
 5855WAT     H218085   0.797   4.616   2.786
 5856WAT      O18086   0.494   4.725   2.510
 5856WAT     H118087   0.563   4.779   2.548
 5856WAT     H218088   0.415   4.779   2.513
 5857WAT      O18089   0.424   4.425   2.471
 5857WAT     H118090   0.470   4.506   2.493
 5857WAT     H218091   0.389   4.393   2.554
 5858WAT      O18092   0.654   4.976   3.194
 5858WAT     H118093   0.719   4.997   3.262
 5858WAT     H218094   0.691   4.900   3.148
 5859WAT      O18095   0.782   4.777   3.066
 5859WAT     H118096   0.846   4.706   3.077
 5859WAT     H218097   0.834   4.855   3.048
 5860WAT      O18098   1.166   4.805   2.038
 5860WAT     H118099   1.144   4.733   2.097
 5860WAT     H218100   1.127   4.780   1.954
 5861WAT      O18101   0.959   4.856   3.386
 5861WAT     H118102   0.993   4.915   3.454
 5861WAT     H218103   0.867   4.843   3.409
 5862WAT      O18104   1.124   4.597   2.204
 5862WAT     H118105   1.096   4.643   2.283
 5862WAT     H218106   1.204   4.551   2.231
 5863WAT      O18107   0.542   4.861   3.703
 5863WAT     H118108   0.510   4.789   3.757
 5863WAT     H218109   0.475   4.929   3.710
 5864WAT      O18110   0.346   4.946   2.197
 5864WAT     H118111   0.345   5.019   2.136
 5864WAT     H218112   0.254   4.921   2.206
 5865WAT      O18113   0.864   3.885   3.239
 5865WAT     H118114   0.900   3.803   3.272
 5865WAT     H218115   0.778   3.891   3.281
 5866WAT      O18116   1.200   3.780   2.320
 5866WAT     H118117   1.137   3.791   2.249
 5866WAT     H218118   1.151   3.802   2.399
 5867WAT      O18119   0.645   4.952   2.063
 5867WAT     H118120   0.655   4.932   1.970
 5867WAT     H218121   0.555   4.927   2.084
 5868WAT      O18122   0.397   4.008   2.462
 5868WAT     H118123   0.326   4.055   2.506
 5868WAT     H218124   0.425   3.942   2.525
 5869WAT      O18125   0.560   4.150   3.262
 5869WAT     H118126   0.609   4.198   3.328
 5869WAT     H218127   0.574   4.058   3.282
 5870WAT      O18128   0.800   3.681   2.606
 5870WAT     H118129   0.788   3.682   2.511
 5870WAT     H218130   0.895   3.685   2.618
 5871WAT      O18131   0.509   5.204   2.533
 5871WAT     H118132   0.534   5.200   2.441
 5871WAT     H218133   0.414   5.191   2.532
 5872WAT      O18134   0.217   3.839   2.199
 5872WAT     H118135   0.302   3.883   2.193
 5872WAT     H218136   0.181   3.870   2.282
 5873WAT      O18137   1.280   3.772   3.346
 5873WAT     H118138   1.230   3.846   3.380
 5873WAT     H218139   1.362   3.811   3.314
 5874WAT      O18140   1.109   4.296   2.690
 5874WAT     H118141   1.015   4.298   2.708
 5874WAT     H218142   1.141   4.217   2.735
 5875WAT      O18143   1.310   5.013   2.858
 5875WAT     H118144   1.322   5.095   2.905
 5875WAT     H218145   1.396   4.992   2.823
 5876WAT      O18146   0.368   5.140   2.007
 5876WAT     H118147   0.447   5.169   1.962
 5876WAT     H218148   0.316   5.097   1.940
 5877WAT      O18149   0.841   4.752   3.739
 5877WAT     H118150   0.781   4.754   3.665
 5877WAT     H218151   0.811   4.679   3.792
 5878WAT      O18152   0.984   5.125   3.600
 5878WAT     H118153   1.079   5.116   3.595
 5878WAT     H218154   0.969   5.191   3.667
 5879WAT      O18155   1.273   5.062   2.150
 5879WAT     H118156   1.245   5.021   2.068
 5879WAT     H218157   1.253   5.155   2.138
 5880WAT      O18158   0.420   4.662   1.994
 5880WAT     H118159   0.409   4.600   2.066
 5880WAT     H218160   0.403   4.609   1.915
 5881WAT      O18161   0.435   4.530   3.592
 5881WAT     H118162   0.358   4.587   3.583
 5881WAT     H218163   0.453   4.501   3.502
 5882WAT      O18164   0.744   4.568   2.054
 5882WAT     H118165   0.689   4.613   2.119
 5882WAT     H218166   0.806   4.517   2.107
 5883WAT      O18167   1.149   4.703   3.647
 5883WAT     H118168   1.223   4.737   3.597
 5883WAT     H218169   1.073   4.720   3.592
 5884WAT      O18170   0.310   4.464   2.244
 5884WAT     H118171   0.353   4.447   2.328
 5884WAT     H218172   0.323   4.383   2.194
 5885WAT      O18173   0.562   4.366   1.969
 5885WAT     H118174   0.614   4.295   1.932
 5885WAT     H218175   0.626   4.430   1.999
 5886WAT      O18176   1.017   4.509   3.501
 5886WAT     H118177   1.058   4.524   3.586
 5886WAT     H218178   0.923   4.521   3.517
 5887WAT      O18179   1.064   4.243   3.701
 5887WAT     H118180   1.122   4.167   3.693
 5887WAT     H218181   1.081   4.296   3.624
 5888WAT      O18182   0.452   3.614   3.236
 5888WAT     H118183   0.407   3.616   3.151
 5888WAT     H218184   0.389   3.574   3.296
 5889WAT      O18185   0.493   4.504   3.298
 5889WAT     H118186   0.535   4.588   3.281
 5889WAT     H218187   0.401   4.517   3.275
 5890WAT      O18188   0.726   4.277   3.436
 5890WAT     H118189   0.738   4.217   3.510
 5890WAT     H218190   0.812   4.281   3.394
 5891WAT      O18191   0.960   4.332   3.294
 5891WAT     H118192   0.908   4.385   3.234
 5891WAT     H218193   0.995   4.396   3.357
 5892WAT      O18194   0.200   4.071   1.938
 5892WAT     H118195   0.180   3.985   1.975
 5892WAT     H218196   0.183   4.063   1.845
 5893WAT      O18197   0.278   5.134   3.410
 5893WAT     H118198   0.224   5.207   3.378
 5893WAT     H218199   0.303   5.087   3.331
 5894WAT      O18200   0.403   3.931   3.562
 5894WAT     H118201   0.462   3.900   3.631
 5894WAT     H218202   0.321   3.884   3.578
 5895WAT      O18203   0.885   3.893   3.585
 5895WAT     H118204   0.816   3.827   3.579
 5895WAT     H218205   0.957   3.848   3.630
 5896WAT      O18206   0.948   3.552   2.191
 5896WAT     H118207   0.976   3.468   2.227
 5896WAT     H218208   0.871   3.576   2.243
 5897WAT      O18209   0.563   5.258   3.435
 5897WAT     H118210   0.556   5.348   3.466
 5897WAT     H218211   0.473   5.226   3.433
 5898WAT      O18212   0.402   3.676   2.036
 5898WAT     H118213   0.367   3.608   1.978
 5898WAT     H218214   0.422   3.629   2.117
 5899WAT      O18215   0.618   5.174   2.198
 5899WAT     H118216   0.708   5.208   2.200
 5899WAT     H218217   0.621   5.102   2.135
 5900WAT      O18218   1.316   5.027   3.468
 5900WAT     H118219   1.256   5.033   3.394
 5900WAT     H218220   1.329   4.933   3.481
 5901WAT      O18221   1.440   4.802   2.002
 5901WAT     H118222   1.357   4.808   2.049
 5901WAT     H218223   1.458   4.891   1.972
 5902WAT      O18224   1.386   4.476   2.252
 5902WAT     H118225   1.462   4.533   2.263
 5902WAT     H218226   1.387   4.419   2.329
 5903WAT      O18227   1.486   4.562   2.737
 5903WAT     H118228   1.523   4.483   2.696
 5903WAT     H218229   1.550   4.630   2.719
 5904WAT      O18230   1.185   4.700   3.278
 5904WAT     H118231   1.103   4.743   3.304
 5904WAT     H218232   1.225   4.761   3.217
 5905WAT      O18233   1.391   4.505   1.968
 5905WAT     H118234   1.418   4.596   1.955
 5905WAT     H218235   1.372   4.499   2.062
 5906WAT      O18236   1.031   3.808   2.098
 5906WAT     H118237   1.073   3.789   2.014
 5906WAT     H218238   1.000   3.723   2.129
 5907WAT      O18239   1.381   4.299   2.467
 5907WAT     H118240   1.343   4.222   2.424
 5907WAT     H218241   1.308   4.337   2.516
 5908WAT      O18242   1.320   4.214   3.431
 5908WAT     H118243   1.296   4.191   3.341
 5908WAT     H218244   1.346   4.306   3.426
 5909WAT      O18245   1.163   3.736   3.709
 5909WAT     H118246   1.251   3.737   3.747
 5909WAT     H218247   1.165   3.663   3.648
 5910WAT      O18248   1.308   4.122   2.797
 5910WAT     H118249   1.360   4.072   2.734
 5910WAT     H218250   1.367   4.135   2.872
 5911WAT      O18251   1.326   4.130   3.150
 5911WAT     H118252   1.231   4.127   3.161
 5911WAT     H218253   1.344   4.221   3.126
 5912WAT      O18254   1.257   4.047   2.391
 5912WAT     H118255   1.307   4.024   2.470
 5912WAT     H218256   1.237   3.964   2.350
 5913WAT      O18257   1.400   3.911   2.645
 5913WAT     H118258   1.389   3.896   2.739
 5913WAT     H218259   1.476   3.858   2.621
 5914WAT      O18260   1.235   3.505   3.291
 5914WAT     H118261   1.298   3.566   3.327
 5914WAT     H218262   1.249   3.509   3.196
 5915WAT      O18263   1.489   3.694   1.969
 5915WAT     H118264   1.581   3.681   1.948
 5915WAT     H218265   1.487   3.702   2.064
 5916WAT      O18266   1.496   3.771   2.231
 5916WAT     H118267   1.417   3.765   2.284
 5916WAT     H218268   1.517   3.865   2.230
 5917WAT      O18269   1.190   5.175   2.631
 5917WAT     H118270   1.250   5.143   2.563
 5917WAT     H218271   1.216   5.128   2.710
 5918WAT      O18272   0.351   4.974   3.206
 5918WAT     H118273   0.327   5.001   3.117
 5918WAT     H218274   0.445   4.991   3.211
 5919WAT      O18275   0.572   3.620   3.581
 5919WAT     H118276   0.566   3.679   3.656
 5919WAT     H218277   0.666   3.609   3.567
 5920WAT      O18278   0.835   3.586   3.545
 5920WAT     H118279   0.897   3.618   3.479
 5920WAT     H218280   0.890   3.537   3.607
 5921WAT      O18281   1.477   5.176   3.286
 5921WAT     H118282   1.428   5.216   3.214
 5921WAT     H218283   1.416   5.113   3.325
 5922WAT      O18284   0.910   3.442   3.178
 5922WAT     H118285   0.822   3.476   3.158
 5922WAT     H218286   0.899   3.395   3.261
 5923WAT      O18287   1.000   3.663   3.316
 5923WAT     H118288   0.967   3.581   3.278
 5923WAT     H218289   1.095   3.659   3.304
 5924WAT      O18290   1.246   5.240   3.014
 5924WAT     H118291   1.200   5.315   2.976
 5924WAT     H218292   1.183   5.168   3.008
 5925WAT      O18293   0.289   5.071   2.931
 5925WAT     H118294   0.340   5.010   2.879
 5925WAT     H218295   0.354   5.121   2.980
 5926WAT      O18296   0.562   5.160   3.014
 5926WAT     H118297   0.591   5.135   2.926
 5926WAT     H218298   0.614   5.105   3.073
 5927WAT      O18299   0.684   3.534   3.072
 5927WAT     H118300   0.606   3.581   3.100
 5927WAT     H218301   0.655   3.444   3.061
 5928WAT      O18302   1.139   3.604   2.876
 5928WAT     H118303   1.184   3.599   2.792
 5928WAT     H218304   1.113   3.696   2.884
 5929WAT      O18305   1.326   3.567   2.678
 5929WAT     H118306   1.320   3.473   2.663
 5929WAT     H218307   1.404   3.578   2.732
 5930WAT      O18308   0.473   3.776   2.623
 5930WAT     H118309   0.392   3.738   2.589
 5930WAT     H218310   0.523   3.700   2.653
 5931WAT      O18311   0.923   3.442   2.747
 5931WAT     H118312   0.983   3.499   2.794
 5931WAT     H218313   0.849   3.499   2.725
 5932WAT      O18314   1.237   3.482   2.274
 5932WAT     H118315   1.257   3.572   2.301
 5932WAT     H218316   1.159   3.459   2.324
 5933WAT      O18317   0.275   3.591   2.484
 5933WAT     H118318   0.212   3.521   2.500
 5933WAT     H218319   0.221   3.667   2.462
 5934WAT      O18320   0.569   5.252   3.751
 5934WAT     H118321   0.662   5.229   3.755
 5934WAT     H218322   0.568   5.335   3.703
 5935WAT      O18323   1.393   5.206   2.450
 5935WAT     H118324   1.410   5.138   2.386
 5935WAT     H218325   1.323   5.259   2.411
 5936WAT      O18326   0.288   3.519   3.727
 5936WAT     H118327   0.260   3.569   3.651
 5936WAT     H218328   0.326   3.439   3.690
 5937WAT      O18329   0.177   5.245   2.206
 5937WAT     H118330   0.250   5.217   2.151
 5937WAT     H218331   0.203   5.222   2.295
 5938WAT      O18332   0.948   3.460   3.785
 5938WAT     H118333   0.937   3.492   3.874
 5938WAT     H218334   1.030   3.500   3.755
 5939WAT      O18335   1.226   5.175   3.733
 5939WAT     H118336   1.305   5.125   3.712
 5939WAT     H218337   1.255   5.243   3.794
 5940WAT      O18338   0.839   4.262   0.821
 5940WAT     H118339   0.831   4.171   0.794
 5940WAT     H218340   0.797   4.312   0.751
 5941WAT      O18341   0.652   4.440   1.009
 5941WAT     H118342   0.574   4.392   1.038
 5941WAT     H218343   0.717   4.372   0.992
 5942WAT      O18344   1.054   4.881   0.887
 5942WAT     H118345   1.008   4.803   0.920
 5942WAT     H218346   1.135   4.883   0.938
 5943WAT      O18347   0.676   5.109   0.849
 5943WAT     H118348   0.615   5.155   0.792
 5943WAT     H218349   0.762   5.125   0.809
 5944WAT      O18350   0.596   4.707   1.010
 5944WAT     H118351   0.589   4.613   0.994
 5944WAT     H218352   0.672   4.717   1.067
 5945WAT      O18353   0.699   3.988   1.033
 5945WAT     H118354   0.737   3.901   1.021
 5945WAT     H218355   0.689   4.022   0.944
 5946WAT      O18356   1.077   3.738   0.726
 5946WAT     H118357   1.159   3.689   0.730
 5946WAT     H218358   1.080   3.797   0.801
 5947WAT      O18359   0.296   4.122   1.012
 5947WAT     H118360   0.347   4.172   1.076
 5947WAT     H218361   0.349   4.045   0.995
 5948WAT      O18362   1.506   3.939   1.382
 5948WAT     H118363   1.436   3.978   1.331
 5948WAT     H218364   1.533   4.009   1.443
 5949WAT      O18365   0.763   4.597   0.589
 5949WAT     H118366   0.701   4.644   0.532
 5949WAT     H218367   0.814   4.667   0.630
 5950WAT      O18368   0.249   4.550   1.256
 5950WAT     H118369   0.216   4.613   1.321
 5950WAT     H218370   0.267   4.603   1.179
 5951WAT      O18371   1.101   3.932   1.003
 5951WAT     H118372   1.030   3.961   1.061
 5951WAT     H218373   1.137   4.013   0.967
 5952WAT      O18374   1.262   4.893   1.230
 5952WAT     H118375   1.194   4.960   1.229
 5952WAT     H218376   1.316   4.913   1.153
 5953WAT      O18377   1.408   3.876   1.042
 5953WAT     H118378   1.313   3.880   1.056
 5953WAT     H218379   1.440   3.958   1.081
 5954WAT      O18380   0.461   3.506   0.872
 5954WAT     H118381   0.492   3.451   0.800
 5954WAT     H218382   0.368   3.520   0.854
 5955WAT      O18383   1.016   5.078   1.101
 5955WAT     H118384   1.017   5.038   1.014
 5955WAT     H218385   0.961   5.155   1.091
 5956WAT      O18386   1.145   4.750   0.610
 5956WAT     H118387   1.134   4.656   0.622
 5956WAT     H218388   1.145   4.786   0.699
 5957WAT      O18389   0.956   4.568   1.234
 5957WAT     H118390   0.998   4.547   1.150
 5957WAT     H218391   1.028   4.594   1.291
 5958WAT      O18392   0.700   4.313   0.546
 5958WAT     H118393   0.607   4.306   0.568
 5958WAT     H218394   0.715   4.407   0.534
 5959WAT      O18395   0.698   3.940   0.245
 5959WAT     H118396   0.604   3.956   0.254
 5959WAT     H218397   0.730   4.012   0.191
 5960WAT      O18398   1.350   4.408   1.243
 5960WAT     H118399   1.268   4.415   1.195
 5960WAT     H218400   1.410   4.467   1.196
 5961WAT      O18401   1.103   4.469   0.596
 5961WAT     H118402   1.041   4.435   0.531
 5961WAT     H218403   1.101   4.405   0.667
 5962WAT      O18404   1.047   4.087   1.338
 5962WAT     H118405   1.006   4.169   1.363
 5962WAT     H218406   0.974   4.028   1.318
 5963WAT      O18407   0.260   4.365   0.824
 5963WAT     H118408   0.220   4.294   0.774
 5963WAT     H218409   0.269   4.331   0.913
 5964WAT      O18410   0.307   4.734   1.040
 5964WAT     H118411   0.277   4.673   0.972
 5964WAT     H218412   0.402   4.738   1.029
 5965WAT      O18413   1.116   5.091   1.406
 5965WAT     H118414   1.068   5.172   1.387
 5965WAT     H218415   1.048   5.026   1.422
 5966WAT      O18416   0.920   4.393   0.297
 5966WAT     H118417   0.964   4.309   0.282
 5966WAT     H218418   0.992   4.456   0.305
 5967WAT      O18419   0.731   4.887   0.693
 5967WAT     H118420   0.775   4.961   0.652
 5967WAT     H218421   0.725   4.911   0.786
 5968WAT      O18422   0.279   4.989   1.784
 5968WAT     H118423   0.276   5.030   1.697
 5968WAT     H218424   0.262   4.896   1.767
 5969WAT      O18425   1.474   5.067   1.913
 5969WAT     H118426   1.521   5.115   1.981
 5969WAT     H218427   1.536   5.061   1.841
 5970WAT      O18428   1.414   4.787   1.629
 5970WAT     H118429   1.427   4.763   1.537
 5970WAT     H218430   1.418   4.703   1.676
 5971WAT      O18431   0.800   5.157   1.486
 5971WAT     H118432   0.852   5.148   1.566
 5971WAT     H218433   0.716   5.191   1.515
 5972WAT      O18434   0.998   5.185   0.429
 5972WAT     H118435   0.982   5.156   0.519
 5972WAT     H218436   0.981   5.108   0.375
 5973WAT      O18437   0.246   5.163   0.607
 5973WAT     H118438   0.228   5.072   0.585
 5973WAT     H218439   0.160   5.199   0.631
 5974WAT      O18440   0.968   4.936   0.285
 5974WAT     H118441   0.899   4.936   0.219
 5974WAT     H218442   1.042   4.894   0.242
 5975WAT      O18443   0.925   5.099   0.692
 5975WAT     H118444   0.970   5.021   0.724
 5975WAT     H218445   0.959   5.170   0.747
 5976WAT      O18446   1.399   3.992   1.726
 5976WAT     H118447   1.338   4.043   1.673
 5976WAT     H218448   1.367   3.902   1.720
 5977WAT      O18449   0.606   3.876   1.472
 5977WAT     H118450   0.559   3.897   1.554
 5977WAT     H218451   0.565   3.794   1.442
 5978WAT      O18452   1.106   3.998   1.585
 5978WAT     H118453   1.021   3.968   1.617
 5978WAT     H218454   1.090   4.022   1.494
 5979WAT      O18455   0.815   4.148   1.795
 5979WAT     H118456   0.848   4.065   1.761
 5979WAT     H218457   0.894   4.200   1.810
 5980WAT      O18458   0.488   3.551   0.400
 5980WAT     H118459   0.426   3.551   0.473
 5980WAT     H218460   0.480   3.465   0.360
 5981WAT      O18461   0.381   3.644   1.098
 5981WAT     H118462   0.410   3.734   1.090
 5981WAT     H218463   0.436   3.595   1.037
 5982WAT      O18464   0.879   4.102   0.545
 5982WAT     H118465   0.819   4.174   0.526
 5982WAT     H218466   0.934   4.096   0.466
 5983WAT      O18467   0.400   4.191   1.751
 5983WAT     H118468   0.390   4.097   1.736
 5983WAT     H218469   0.484   4.213   1.712
 5984WAT      O18470   0.740   3.966   0.748
 5984WAT     H118471   0.779   3.997   0.666
 5984WAT     H218472   0.776   3.878   0.759
 5985WAT      O18473   0.571   3.841   1.874
 5985WAT     H118474   0.502   3.822   1.937
 5985WAT     H218475   0.645   3.869   1.927
 5986WAT      O18476   0.798   4.225   1.157
 5986WAT     H118477   0.725   4.276   1.192
 5986WAT     H218478   0.758   4.143   1.127
 5987WAT      O18479   0.442   3.892   0.998
 5987WAT     H118480   0.442   3.848   0.913
 5987WAT     H218481   0.531   3.925   1.009
 5988WAT      O18482   0.448   3.992   0.297
 5988WAT     H118483   0.460   3.988   0.392
 5988WAT     H218484   0.410   4.079   0.281
 5989WAT      O18485   0.844   3.770   1.098
 5989WAT     H118486   0.846   3.815   1.183
 5989WAT     H218487   0.820   3.680   1.120
 5990WAT      O18488   0.349   4.223   0.237
 5990WAT     H118489   0.293   4.179   0.174
 5990WAT     H218490   0.420   4.259   0.183
 5991WAT      O18491   1.187   3.511   1.682
 5991WAT     H118492   1.220   3.438   1.735
 5991WAT     H218493   1.191   3.480   1.592
 5992WAT      O18494   0.472   4.298   1.172
 5992WAT     H118495   0.509   4.251   1.247
 5992WAT     H218496   0.453   4.386   1.207
 5993WAT      O18497   0.251   4.202   1.404
 5993WAT     H118498   0.221   4.290   1.427
 5993WAT     H218499   0.347   4.208   1.408
 5994WAT      O18500   1.180   4.523   1.043
 5994WAT     H118501   1.252   4.572   1.004
 5994WAT     H218502   1.160   4.455   0.979
 5995WAT      O18503   0.726   3.662   0.458
 5995WAT     H118504   0.645   3.612   0.450
 5995WAT     H218505   0.706   3.746   0.416
 5996WAT      O18506   0.718   4.530   1.632
 5996WAT     H118507   0.711   4.438   1.606
 5996WAT     H218508   0.655   4.540   1.703
 5997WAT      O18509   0.997   4.099   0.287
 5997WAT     H118510   1.086   4.130   0.270
 5997WAT     H218511   0.994   4.012   0.248
 5998WAT      O18512   0.597   4.717   0.355
 5998WAT     H118513   0.631   4.791   0.305
 5998WAT     H218514   0.514   4.748   0.391
 5999WAT      O18515   0.177   4.332   1.807
 5999WAT     H118516   0.147   4.347   1.718
 5999WAT     H218517   0.254   4.276   1.798
 6000WAT      O18518   0.711   4.812   1.607
 6000WAT     H118519   0.713   4.719   1.585
 6000WAT     H218520   0.640   4.821   1.671
 6001WAT      O18521   1.332   4.476   1.542
 6001WAT     H118522   1.260   4.535   1.522
 6001WAT     H218523   1.385   4.475   1.462
 6002WAT      O18524   1.327   4.916   0.507
 6002WAT     H118525   1.263   4.850   0.534
 6002WAT     H218526   1.289   4.956   0.429
 6003WAT      O18527   0.885   4.649   0.891
 6003WAT     H118528   0.920   4.589   0.825
 6003WAT     H218529   0.797   4.616   0.909
 6004WAT      O18530   0.494   4.725   0.632
 6004WAT     H118531   0.563   4.779   0.670
 6004WAT     H218532   0.415   4.779   0.636
 6005WAT      O18533   0.424   4.425   0.593
 6005WAT     H118534   0.470   4.506   0.616
 6005WAT     H218535   0.389   4.393   0.677
 6006WAT      O18536   0.654   4.976   1.316
 6006WAT     H118537   0.719   4.997   1.384
 6006WAT     H218538   0.691   4.900   1.271
 6007WAT      O18539   0.782   4.777   1.188
 6007WAT     H118540   0.846   4.706   1.199
 6007WAT     H218541   0.834   4.855   1.170
 6008WAT      O18542   0.959   4.856   1.508
 6008WAT     H118543   0.993   4.915   1.576
 6008WAT     H218544   0.867   4.843   1.531
 6009WAT      O18545   1.124   4.597   0.327
 6009WAT     H118546   1.096   4.643   0.405
 6009WAT     H218547   1.204   4.551   0.354
 6010WAT      O18548   0.542   4.861   1.825
 6010WAT     H118549   0.510   4.789   1.880
 6010WAT     H218550   0.475   4.929   1.833
 6011WAT      O18551   0.346   4.946   0.320
 6011WAT     H118552   0.345   5.019   0.258
 6011WAT     H218553   0.254   4.921   0.329
 6012WAT      O18554   0.864   3.885   1.362
 6012WAT     H118555   0.900   3.803   1.395
 6012WAT     H218556   0.778   3.891   1.403
 6013WAT      O18557   1.200   3.780   0.443
 6013WAT     H118558   1.137   3.791   0.371
 6013WAT     H218559   1.151   3.802   0.522
 6014WAT      O18560   0.397   4.008   0.584
 6014WAT     H118561   0.326   4.055   0.628
 6014WAT     H218562   0.425   3.942   0.648
 6015WAT      O18563   0.560   4.150   1.384
 6015WAT     H118564   0.609   4.198   1.451
 6015WAT     H218565   0.574   4.058   1.405
 6016WAT      O18566   0.800   3.681   0.728
 6016WAT     H118567   0.788   3.682   0.633
 6016WAT     H218568   0.895   3.685   0.740
 6017WAT      O18569   0.509   5.204   0.655
 6017WAT     H118570   0.534   5.200   0.563
 6017WAT     H218571   0.414   5.191   0.655
 6018WAT      O18572   0.217   3.839   0.322
 6018WAT     H118573   0.302   3.883   0.315
 6018WAT     H218574   0.181   3.870   0.404
 6019WAT      O18575   1.280   3.772   1.468
 6019WAT     H118576   1.230   3.846   1.502
 6019WAT     H218577   1.362   3.811   1.437
 6020WAT      O18578   1.109   4.296   0.813
 6020WAT     H118579   1.015   4.298   0.830
 6020WAT     H218580   1.141   4.217   0.858
 6021WAT      O18581   1.310   5.013   0.981
 6021WAT     H118582   1.322   5.095   1.028
 6021WAT     H218583   1.396   4.992   0.946
 6022WAT      O18584   0.841   4.752   1.861
 6022WAT     H118585   0.781   4.754   1.787
 6022WAT     H218586   0.811   4.679   1.915
 6023WAT      O18587   0.984   5.125   1.722
 6023WAT     H118588   1.079   5.116   1.717
 6023WAT     H218589   0.969   5.191   1.790
 6024WAT      O18590   1.273   5.062   0.272
 6024WAT     H118591   1.245   5.021   0.191
 6024WAT     H218592   1.253   5.155   0.260
 6025WAT      O18593   0.435   4.530   1.714
 6025WAT     H118594   0.358   4.587   1.706
 6025WAT     H218595   0.453   4.501   1.625
 6026WAT      O18596   0.744   4.568   0.177
 6026WAT     H118597   0.689   4.613   0.241
 6026WAT     H218598   0.806   4.517   0.229
 6027WAT      O18599   1.149   4.703   1.770
 6027WAT     H118600   1.223   4.737   1.720
 6027WAT     H218601   1.073   4.720   1.715
 6028WAT      O18602   0.310   4.464   0.366
 6028WAT     H118603   0.353   4.447   0.451
 6028WAT     H218604   0.323   4.383   0.317
 6029WAT      O18605   1.017   4.509   1.624
 6029WAT     H118606   1.058   4.524   1.709
 6029WAT     H218607   0.923   4.521   1.640
 6030WAT      O18608   1.064   4.243   1.824
 6030WAT     H118609   1.122   4.167   1.815
 6030WAT     H218610   1.081   4.296   1.746
 6031WAT      O18611   0.452   3.614   1.358
 6031WAT     H118612   0.407   3.616   1.274
 6031WAT     H218613   0.389   3.574   1.418
 6032WAT      O18614   0.493   4.504   1.421
 6032WAT     H118615   0.535   4.588   1.403
 6032WAT     H218616   0.401   4.517   1.398
 6033WAT      O18617   0.726   4.277   1.559
 6033WAT     H118618   0.738   4.217   1.633
 6033WAT     H218619   0.812   4.281   1.517
 6034WAT      O18620   0.960   4.332   1.417
 6034WAT     H118621   0.908   4.385   1.356
 6034WAT     H218622   0.995   4.396   1.480
 6035WAT      O18623   0.278   5.134   1.532
 6035WAT     H118624   0.224   5.207   1.500
 6035WAT     H218625   0.303   5.087   1.453
 6036WAT      O18626   0.403   3.931   1.685
 6036WAT     H118627   0.462   3.900   1.753
 6036WAT     H218628   0.321   3.884   1.700
 6037WAT      O18629   0.885   3.893   1.708
 6037WAT     H118630   0.816   3.827   1.702
 6037WAT     H218631   0.957   3.848   1.753
 6038WAT      O18632   0.948   3.552   0.314
 6038WAT     H118633   0.976   3.468   0.350
 6038WAT     H218634   0.871   3.576   0.365
 6039WAT      O18635   0.563   5.258   1.558
 6039WAT     H118636   0.556   5.348   1.589
 6039WAT     H218637   0.473   5.226   1.555
 6040WAT      O18638   0.618   5.174   0.320
 6040WAT     H118639   0.708   5.208   0.322
 6040WAT     H218640   0.621   5.102   0.258
 6041WAT      O18641   1.316   5.027   1.591
 6041WAT     H118642   1.256   5.033   1.517
 6041WAT     H218643   1.329   4.933   1.604
 6042WAT      O18644   1.386   4.476   0.375
 6042WAT     H118645   1.462   4.533   0.386
 6042WAT     H218646   1.387   4.419   0.452
 6043WAT      O18647   1.486   4.562   0.859
 6043WAT     H118648   1.523   4.483   0.819
 6043WAT     H218649   1.550   4.630   0.842
 6044WAT      O18650   1.185   4.700   1.401
 6044WAT     H118651   1.103   4.743   1.427
 6044WAT     H218652   1.225   4.761   1.339
 6045WAT      O18653   1.381   4.299   0.590
 6045WAT     H118654   1.343   4.222   0.547
 6045WAT     H218655   1.308   4.337   0.639
 6046WAT      O18656   1.320   4.214   1.553
 6046WAT     H118657   1.296   4.191   1.463
 6046WAT     H218658   1.346   4.306   1.549
 6047WAT      O18659   1.163   3.736   1.831
 6047WAT     H118660   1.251   3.737   1.870
 6047WAT     H218661   1.165   3.663   1.770
 6048WAT      O18662   1.308   4.122   0.920
 6048WAT     H118663   1.360   4.072   0.857
 6048WAT     H218664   1.367   4.135   0.995
 6049WAT      O18665   1.326   4.130   1.272
 6049WAT     H118666   1.231   4.127   1.284
 6049WAT     H218667   1.344   4.221   1.249
 6050WAT      O18668   1.257   4.047   0.514
 6050WAT     H118669   1.307   4.024   0.592
 6050WAT     H218670   1.237   3.964   0.472
 6051WAT      O18671   1.400   3.911   0.767
 6051WAT     H118672   1.389   3.896   0.861
 6051WAT     H218673   1.476   3.858   0.743
 6052WAT      O18674   1.235   3.505   1.413
 6052WAT     H118675   1.298   3.566   1.450
 6052WAT     H218676   1.249   3.509   1.319
 6053WAT      O18677   1.496   3.771   0.354
 6053WAT     H118678   1.417   3.765   0.407
 6053WAT     H218679   1.517   3.865   0.353
 6054WAT      O18680   1.190   5.175   0.753
 6054WAT     H118681   1.250   5.143   0.686
 6054WAT     H218682   1.216   5.128   0.833
 6055WAT      O18683   0.351   4.974   1.328
 6055WAT     H118684   0.327   5.001   1.240
 6055WAT     H218685   0.445   4.991   1.334
 6056WAT      O18686   0.572   3.620   1.704
 6056WAT     H118687   0.566   3.679   1.779
 6056WAT     H218688   0.666   3.609   1.689
 6057WAT      O18689   0.835   3.586   1.668
 6057WAT     H118690   0.897   3.618   1.602
 6057WAT     H218691   0.890   3.537   1.730
 6058WAT      O18692   1.477   5.176   1.408
 6058WAT     H118693   1.428   5.216   1.337
 6058WAT     H218694   1.416   5.113   1.448
 6059WAT      O18695   0.910   3.442   1.301
 6059WAT     H118696   0.822   3.476   1.280
 6059WAT     H218697   0.899   3.395   1.383
 6060WAT      O18698   1.000   3.663   1.439
 6060WAT     H118699   0.967   3.581   1.401
 6060WAT     H218700   1.095   3.659   1.427
 6061WAT      O18701   1.246   5.240   1.136
 6061WAT     H118702   1.200   5.315   1.099
 6061WAT     H218703   1.183   5.168   1.131
 6062WAT      O18704   0.289   5.071   1.054
 6062WAT     H118705   0.340   5.010   1.001
 6062WAT     H218706   0.354   5.121   1.103
 6063WAT      O18707   0.562   5.160   1.137
 6063WAT     H118708   0.591   5.135   1.049
 6063WAT     H218709   0.614   5.105   1.196
 6064WAT      O18710   0.684   3.534   1.194
 6064WAT     H118711   0.606   3.581   1.222
 6064WAT     H218712   0.655   3.444   1.184
 6065WAT      O18713   1.139   3.604   0.999
 6065WAT     H118714   1.184   3.599   0.914
 6065WAT     H218715   1.113   3.696   1.006
 6066WAT      O18716   1.326   3.567   0.800
 6066WAT     H118717   1.320   3.473   0.785
 6066WAT     H218718   1.404   3.578   0.855
 6067WAT      O18719   0.473   3.776   0.746
 6067WAT     H118720   0.392   3.738   0.712
 6067WAT     H218721   0.523   3.700   0.776
 6068WAT      O18722   0.923   3.442   0.869
 6068WAT     H118723   0.983   3.499   0.917
 6068WAT     H218724   0.849   3.499   0.847
 6069WAT      O18725   1.237   3.482   0.397
 6069WAT     H118726   1.257   3.572   0.424
 6069WAT     H218727   1.159   3.459   0.446
 6070WAT      O18728   0.275   3.591   0.606
 6070WAT     H118729   0.212   3.521   0.623
 6070WAT     H218730   0.221   3.667   0.584
 6071WAT      O18731   0.569   5.252   1.873
 6071WAT     H118732   0.662   5.229   1.878
 6071WAT     H218733   0.568   5.335   1.825
 6072WAT      O18734   1.393   5.206   0.573
 6072WAT     H118735   1.410   5.138   0.509
 6072WAT     H218736   1.323   5.259   0.534
 6073WAT      O18737   0.288   3.519   1.850
 6073WAT     H118738   0.260   3.569   1.773
 6073WAT     H218739   0.326   3.439   1.813
 6074WAT      O18740   0.177   5.245   0.328
 6074WAT     H118741   0.250   5.217   0.274
 6074WAT     H218742   0.203   5.222   0.417
 6075WAT      O18743   0.948   3.460   1.907
 6075WAT     H118744   0.937   3.492   1.997
 6075WAT     H218745   1.030   3.500   1.878
 6076WAT      O18746   1.226   5.175   1.856
 6076WAT     H118747   1.305   5.125   1.835
 6076WAT     H218748   1.255   5.243   1.916
 6077WAT      O18749   0.839   2.385   4.576
 6077WAT     H118750   0.831   2.293   4.549
 6077WAT     H218751   0.797   2.434   4.505
 6078WAT      O18752   0.652   2.562   4.764
 6078WAT     H118753   0.574   2.514   4.793
 6078WAT     H218754   0.717   2.495   4.747
 6079WAT      O18755   1.054   3.003   4.642
 6079WAT     H118756   1.008   2.926   4.675
 6079WAT     H218757   1.135   3.006   4.693
 6080WAT      O18758   0.676   3.232   4.604
 6080WAT     H118759   0.615   3.277   4.547
 6080WAT     H218760   0.762   3.247   4.564
 6081WAT      O18761   0.596   2.830   4.765
 6081WAT     H118762   0.589   2.736   4.749
 6081WAT     H218763   0.672   2.839   4.822
 6082WAT      O18764   0.699   2.111   4.788
 6082WAT     H118765   0.737   2.023   4.776
 6082WAT     H218766   0.689   2.144   4.698
 6083WAT      O18767   1.077   1.860   4.481
 6083WAT     H118768   1.159   1.811   4.485
 6083WAT     H218769   1.080   1.919   4.556
 6084WAT      O18770   0.296   2.245   4.767
 6084WAT     H118771   0.347   2.295   4.831
 6084WAT     H218772   0.349   2.167   4.749
 6085WAT      O18773   1.506   2.062   5.137
 6085WAT     H118774   1.436   2.101   5.085
 6085WAT     H218775   1.533   2.131   5.197
 6086WAT      O18776   0.763   2.720   4.344
 6086WAT     H118777   0.701   2.767   4.287
 6086WAT     H218778   0.814   2.789   4.385
 6087WAT      O18779   0.249   2.673   5.011
 6087WAT     H118780   0.216   2.736   5.076
 6087WAT     H218781   0.267   2.725   4.933
 6088WAT      O18782   1.101   2.054   4.758
 6088WAT     H118783   1.030   2.083   4.816
 6088WAT     H218784   1.137   2.135   4.722
 6089WAT      O18785   1.262   3.016   4.984
 6089WAT     H118786   1.194   3.083   4.984
 6089WAT     H218787   1.316   3.036   4.908
 6090WAT      O18788   1.408   1.999   4.797
 6090WAT     H118789   1.313   2.002   4.810
 6090WAT     H218790   1.440   2.080   4.836
 6091WAT      O18791   0.461   1.629   4.627
 6091WAT     H118792   0.492   1.573   4.555
 6091WAT     H218793   0.368   1.642   4.609
 6092WAT      O18794   1.016   3.200   4.856
 6092WAT     H118795   1.017   3.160   4.769
 6092WAT     H218796   0.961   3.278   4.845
 6093WAT      O18797   1.145   2.873   4.365
 6093WAT     H118798   1.134   2.778   4.377
 6093WAT     H218799   1.145   2.909   4.453
 6094WAT      O18800   0.956   2.691   4.989
 6094WAT     H118801   0.998   2.669   4.905
 6094WAT     H218802   1.028   2.716   5.046
 6095WAT      O18803   0.700   2.435   4.300
 6095WAT     H118804   0.607   2.429   4.323
 6095WAT     H218805   0.715   2.529   4.289
 6096WAT      O18806   0.698   2.062   4.000
 6096WAT     H118807   0.604   2.079   4.009
 6096WAT     H218808   0.730   2.134   3.945
 6097WAT      O18809   1.350   2.531   4.998
 6097WAT     H118810   1.268   2.538   4.950
 6097WAT     H218811   1.410   2.589   4.951
 6098WAT      O18812   1.103   2.591   4.351
 6098WAT     H118813   1.041   2.558   4.286
 6098WAT     H218814   1.101   2.527   4.422
 6099WAT      O18815   1.047   2.209   5.092
 6099WAT     H118816   1.006   2.292   5.118
 6099WAT     H218817   0.974   2.151   5.073
 6100WAT      O18818   0.260   2.488   4.579
 6100WAT     H118819   0.220   2.417   4.529
 6100WAT     H218820   0.269   2.453   4.667
 6101WAT      O18821   0.307   2.857   4.795
 6101WAT     H118822   0.277   2.796   4.727
 6101WAT     H218823   0.402   2.860   4.784
 6102WAT      O18824   1.116   3.214   5.161
 6102WAT     H118825   1.068   3.295   5.142
 6102WAT     H218826   1.048   3.149   5.176
 6103WAT      O18827   0.920   2.515   4.051
 6103WAT     H118828   0.964   2.432   4.037
 6103WAT     H218829   0.992   2.579   4.060
 6104WAT      O18830   0.731   3.009   4.448
 6104WAT     H118831   0.775   3.084   4.407
 6104WAT     H218832   0.725   3.034   4.541
 6105WAT      O18833   0.279   3.112   5.538
 6105WAT     H118834   0.276   3.152   5.452
 6105WAT     H218835   0.262   3.019   5.522
 6106WAT      O18836   1.278   1.641   3.883
 6106WAT     H118837   1.247   1.650   3.973
 6106WAT     H218838   1.355   1.699   3.878
 6107WAT      O18839   1.414   2.909   5.384
 6107WAT     H118840   1.427   2.885   5.292
 6107WAT     H218841   1.418   2.826   5.431
 6108WAT      O18842   0.800   3.279   5.241
 6108WAT     H118843   0.852   3.271   5.321
 6108WAT     H218844   0.716   3.314   5.270
 6109WAT      O18845   0.998   3.308   4.184
 6109WAT     H118846   0.982   3.279   4.274
 6109WAT     H218847   0.981   3.230   4.130
 6110WAT      O18848   0.246   3.286   4.362
 6110WAT     H118849   0.228   3.194   4.340
 6110WAT     H218850   0.160   3.322   4.386
 6111WAT      O18851   0.968   3.059   4.040
 6111WAT     H118852   0.899   3.059   3.974
 6111WAT     H218853   1.042   3.016   3.997
 6112WAT      O18854   0.925   3.221   4.447
 6112WAT     H118855   0.970   3.143   4.479
 6112WAT     H218856   0.959   3.293   4.502
 6113WAT      O18857   1.399   2.114   5.481
 6113WAT     H118858   1.338   2.165   5.428
 6113WAT     H218859   1.367   2.024   5.475
 6114WAT      O18860   0.606   1.998   5.227
 6114WAT     H118861   0.559   2.019   5.308
 6114WAT     H218862   0.565   1.917   5.197
 6115WAT      O18863   1.106   2.120   5.340
 6115WAT     H118864   1.021   2.091   5.372
 6115WAT     H218865   1.090   2.145   5.249
 6116WAT      O18866   0.815   2.271   5.550
 6116WAT     H118867   0.848   2.187   5.516
 6116WAT     H218868   0.894   2.323   5.565
 6117WAT      O18869   0.488   1.674   4.155
 6117WAT     H118870   0.426   1.673   4.227
 6117WAT     H218871   0.480   1.587   4.115
 6118WAT      O18872   0.381   1.766   4.853
 6118WAT     H118873   0.410   1.857   4.845
 6118WAT     H218874   0.436   1.717   4.791
 6119WAT      O18875   0.879   2.225   4.300
 6119WAT     H118876   0.819   2.297   4.281
 6119WAT     H218877   0.934   2.218   4.221
 6120WAT      O18878   0.400   2.314   5.506
 6120WAT     H118879   0.390   2.220   5.491
 6120WAT     H218880   0.484   2.336   5.467
 6121WAT      O18881   0.740   2.088   4.503
 6121WAT     H118882   0.779   2.120   4.421
 6121WAT     H218883   0.776   2.000   4.514
 6122WAT      O18884   0.798   2.347   4.912
 6122WAT     H118885   0.725   2.398   4.947
 6122WAT     H218886   0.758   2.266   4.882
 6123WAT      O18887   0.442   2.015   4.753
 6123WAT     H118888   0.442   1.971   4.668
 6123WAT     H218889   0.531   2.047   4.763
 6124WAT      O18890   0.448   2.115   4.052
 6124WAT     H118891   0.460   2.111   4.147
 6124WAT     H218892   0.410   2.201   4.036
 6125WAT      O18893   0.844   1.893   4.853
 6125WAT     H118894   0.846   1.938   4.938
 6125WAT     H218895   0.820   1.803   4.875
 6126WAT      O18896   0.349   2.346   3.992
 6126WAT     H118897   0.293   2.301   3.929
 6126WAT     H218898   0.420   2.382   3.938
 6127WAT      O18899   1.187   1.634   5.437
 6127WAT     H118900   1.220   1.561   5.490
 6127WAT     H218901   1.191   1.602   5.347
 6128WAT      O18902   0.472   2.421   4.927
 6128WAT     H118903   0.509   2.374   5.002
 6128WAT     H218904   0.453   2.508   4.961
 6129WAT      O18905   0.251   2.325   5.159
 6129WAT     H118906   0.221   2.413   5.182
 6129WAT     H218907   0.347   2.331   5.163
 6130WAT      O18908   1.180   2.645   4.798
 6130WAT     H118909   1.252   2.695   4.759
 6130WAT     H218910   1.160   2.577   4.734
 6131WAT      O18911   0.726   1.785   4.212
 6131WAT     H118912   0.645   1.735   4.205
 6131WAT     H218913   0.706   1.869   4.171
 6132WAT      O18914   0.718   2.652   5.387
 6132WAT     H118915   0.711   2.560   5.361
 6132WAT     H218916   0.655   2.662   5.458
 6133WAT      O18917   0.997   2.222   4.042
 6133WAT     H118918   1.086   2.253   4.025
 6133WAT     H218919   0.994   2.135   4.003
 6134WAT      O18920   0.597   2.839   4.110
 6134WAT     H118921   0.631   2.914   4.060
 6134WAT     H218922   0.514   2.870   4.146
 6135WAT      O18923   0.177   2.455   5.562
 6135WAT     H118924   0.147   2.469   5.473
 6135WAT     H218925   0.254   2.399   5.553
 6136WAT      O18926   0.711   2.935   5.362
 6136WAT     H118927   0.713   2.841   5.340
 6136WAT     H218928   0.640   2.943   5.426
 6137WAT      O18929   1.224   2.353   3.989
 6137WAT     H118930   1.216   2.396   3.904
 6137WAT     H218931   1.296   2.399   4.032
 6138WAT      O18932   1.332   2.599   5.297
 6138WAT     H118933   1.260   2.658   5.277
 6138WAT     H218934   1.385   2.598   5.217
 6139WAT      O18935   1.327   3.038   4.262
 6139WAT     H118936   1.263   2.973   4.289
 6139WAT     H218937   1.289   3.079   4.184
 6140WAT      O18938   0.885   2.771   4.646
 6140WAT     H118939   0.920   2.712   4.580
 6140WAT     H218940   0.797   2.739   4.663
 6141WAT      O18941   0.494   2.847   4.387
 6141WAT     H118942   0.563   2.902   4.425
 6141WAT     H218943   0.415   2.902   4.391
 6142WAT      O18944   0.424   2.548   4.348
 6142WAT     H118945   0.470   2.629   4.371
 6142WAT     H218946   0.389   2.516   4.431
 6143WAT      O18947   0.654   3.099   5.071
 6143WAT     H118948   0.719   3.119   5.139
 6143WAT     H218949   0.691   3.023   5.026
 6144WAT      O18950   0.782   2.899   4.943
 6144WAT     H118951   0.846   2.829   4.954
 6144WAT     H218952   0.834   2.977   4.925
 6145WAT      O18953   1.166   2.928   3.915
 6145WAT     H118954   1.144   2.856   3.975
 6145WAT     H218955   1.127   2.903   3.832
 6146WAT      O18956   0.959   2.979   5.263
 6146WAT     H118957   0.993   3.038   5.331
 6146WAT     H218958   0.867   2.966   5.286
 6147WAT      O18959   1.124   2.719   4.082
 6147WAT     H118960   1.096   2.765   4.160
 6147WAT     H218961   1.204   2.673   4.108
 6148WAT      O18962   0.346   3.069   4.075
 6148WAT     H118963   0.345   3.142   4.013
 6148WAT     H218964   0.254   3.044   4.084
 6149WAT      O18965   0.864   2.007   5.117
 6149WAT     H118966   0.900   1.925   5.149
 6149WAT     H218967   0.778   2.013   5.158
 6150WAT      O18968   1.200   1.903   4.197
 6150WAT     H118969   1.137   1.913   4.126
 6150WAT     H218970   1.151   1.925   4.276
 6151WAT      O18971   0.645   3.075   3.941
 6151WAT     H118972   0.655   3.054   3.848
 6151WAT     H218973   0.555   3.049   3.961
 6152WAT      O18974   0.397   2.131   4.339
 6152WAT     H118975   0.326   2.178   4.383
 6152WAT     H218976   0.425   2.065   4.403
 6153WAT      O18977   0.560   2.273   5.139
 6153WAT     H118978   0.609   2.320   5.206
 6153WAT     H218979   0.574   2.180   5.160
 6154WAT      O18980   0.800   1.803   4.483
 6154WAT     H118981   0.788   1.805   4.388
 6154WAT     H218982   0.895   1.808   4.495
 6155WAT      O18983   0.509   3.327   4.410
 6155WAT     H118984   0.534   3.323   4.318
 6155WAT     H218985   0.414   3.314   4.410
 6156WAT      O18986   0.217   1.961   4.077
 6156WAT     H118987   0.302   2.005   4.070
 6156WAT     H218988   0.181   1.993   4.159
 6157WAT      O18989   1.280   1.894   5.223
 6157WAT     H118990   1.230   1.968   5.257
 6157WAT     H218991   1.362   1.933   5.192
 6158WAT      O18992   1.109   2.419   4.568
 6158WAT     H118993   1.015   2.420   4.585
 6158WAT     H218994   1.141   2.340   4.612
 6159WAT      O18995   1.310   3.136   4.735
 6159WAT     H118996   1.322   3.218   4.783
 6159WAT     H218997   1.396   3.115   4.701
 6160WAT      O18998   0.368   3.262   3.885
 6160WAT     H118999   0.447   3.291   3.840
 6160WAT     H219000   0.316   3.219   3.817
 6161WAT      O19001   0.984   3.247   5.477
 6161WAT     H119002   1.079   3.239   5.472
 6161WAT     H219003   0.969   3.313   5.545
 6162WAT      O19004   1.273   3.185   4.027
 6162WAT     H119005   1.245   3.144   3.946
 6162WAT     H219006   1.253   3.278   4.015
 6163WAT      O19007   0.420   2.784   3.871
 6163WAT     H119008   0.409   2.723   3.944
 6163WAT     H219009   0.403   2.732   3.793
 6164WAT      O19010   0.435   2.653   5.469
 6164WAT     H119011   0.358   2.710   5.461
 6164WAT     H219012   0.453   2.624   5.380
 6165WAT      O19013   0.744   2.691   3.932
 6165WAT     H119014   0.689   2.735   3.996
 6165WAT     H219015   0.806   2.640   3.984
 6166WAT      O19016   1.149   2.826   5.525
 6166WAT     H119017   1.223   2.860   5.475
 6166WAT     H219018   1.073   2.843   5.470
 6167WAT      O19019   0.310   2.586   4.121
 6167WAT     H119020   0.353   2.570   4.206
 6167WAT     H219021   0.323   2.505   4.072
 6168WAT      O19022   0.562   2.489   3.846
 6168WAT     H119023   0.614   2.417   3.810
 6168WAT     H219024   0.626   2.553   3.876
 6169WAT      O19025   1.017   2.631   5.378
 6169WAT     H119026   1.058   2.647   5.463
 6169WAT     H219027   0.923   2.644   5.395
 6170WAT      O19028   0.452   1.737   5.113
 6170WAT     H119029   0.407   1.739   5.029
 6170WAT     H219030   0.389   1.697   5.173
 6171WAT      O19031   0.493   2.626   5.175
 6171WAT     H119032   0.535   2.711   5.158
 6171WAT     H219033   0.401   2.640   5.153
 6172WAT      O19034   0.726   2.399   5.314
 6172WAT     H119035   0.738   2.340   5.388
 6172WAT     H219036   0.812   2.403   5.272
 6173WAT      O19037   0.960   2.455   5.171
 6173WAT     H119038   0.908   2.507   5.111
 6173WAT     H219039   0.995   2.518   5.235
 6174WAT      O19040   0.200   2.194   3.816
 6174WAT     H119041   0.180   2.107   3.852
 6174WAT     H219042   0.183   2.185   3.722
 6175WAT      O19043   0.278   3.257   5.287
 6175WAT     H119044   0.224   3.329   5.255
 6175WAT     H219045   0.303   3.209   5.208
 6176WAT      O19046   0.403   2.054   5.440
 6176WAT     H119047   0.462   2.023   5.508
 6176WAT     H219048   0.321   2.007   5.455
 6177WAT      O19049   0.885   2.015   5.463
 6177WAT     H119050   0.816   1.949   5.456
 6177WAT     H219051   0.957   1.971   5.507
 6178WAT      O19052   0.948   1.675   4.069
 6178WAT     H119053   0.976   1.591   4.104
 6178WAT     H219054   0.871   1.698   4.120
 6179WAT      O19055   0.563   3.380   5.313
 6179WAT     H119056   0.556   3.471   5.344
 6179WAT     H219057   0.473   3.348   5.310
 6180WAT      O19058   0.402   1.798   3.913
 6180WAT     H119059   0.367   1.730   3.855
 6180WAT     H219060   0.422   1.752   3.995
 6181WAT      O19061   0.618   3.297   4.075
 6181WAT     H119062   0.708   3.331   4.077
 6181WAT     H219063   0.621   3.225   4.012
 6182WAT      O19064   1.316   3.150   5.346
 6182WAT     H119065   1.256   3.156   5.271
 6182WAT     H219066   1.329   3.056   5.359
 6183WAT      O19067   1.440   2.924   3.880
 6183WAT     H119068   1.357   2.931   3.927
 6183WAT     H219069   1.458   3.013   3.849
 6184WAT      O19070   1.386   2.599   4.130
 6184WAT     H119071   1.462   2.656   4.140
 6184WAT     H219072   1.387   2.542   4.207
 6185WAT      O19073   1.486   2.684   4.614
 6185WAT     H119074   1.523   2.606   4.574
 6185WAT     H219075   1.550   2.753   4.596
 6186WAT      O19076   1.185   2.823   5.156
 6186WAT     H119077   1.103   2.865   5.182
 6186WAT     H219078   1.225   2.884   5.094
 6187WAT      O19079   1.391   2.628   3.846
 6187WAT     H119080   1.418   2.719   3.833
 6187WAT     H219081   1.372   2.622   3.939
 6188WAT      O19082   1.031   1.930   3.975
 6188WAT     H119083   1.073   1.912   3.891
 6188WAT     H219084   1.000   1.845   4.006
 6189WAT      O19085   1.381   2.422   4.345
 6189WAT     H119086   1.343   2.345   4.302
 6189WAT     H219087   1.308   2.460   4.394
 6190WAT      O19088   1.320   2.336   5.308
 6190WAT     H119089   1.296   2.314   5.218
 6190WAT     H219090   1.346   2.428   5.304
 6191WAT      O19091   1.308   2.244   4.675
 6191WAT     H119092   1.360   2.195   4.612
 6191WAT     H219093   1.367   2.258   4.749
 6192WAT      O19094   1.326   2.253   5.027
 6192WAT     H119095   1.231   2.249   5.039
 6192WAT     H219096   1.344   2.344   5.004
 6193WAT      O19097   1.257   2.170   4.269
 6193WAT     H119098   1.307   2.147   4.347
 6193WAT     H219099   1.237   2.086   4.227
 6194WAT      O19100   1.400   2.034   4.522
 6194WAT     H119101   1.389   2.018   4.616
 6194WAT     H219102   1.476   1.981   4.498
 6195WAT      O19103   1.235   1.628   5.168
 6195WAT     H119104   1.298   1.689   5.205
 6195WAT     H219105   1.249   1.631   5.074
 6196WAT      O19106   1.489   1.817   3.846
 6196WAT     H119107   1.581   1.803   3.825
 6196WAT     H219108   1.487   1.825   3.942
 6197WAT      O19109   1.496   1.894   4.109
 6197WAT     H119110   1.417   1.887   4.162
 6197WAT     H219111   1.517   1.987   4.108
 6198WAT      O19112   1.190   3.298   4.508
 6198WAT     H119113   1.250   3.266   4.441
 6198WAT     H219114   1.216   3.250   4.587
 6199WAT      O19115   0.351   3.096   5.083
 6199WAT     H119116   0.327   3.123   4.995
 6199WAT     H219117   0.445   3.114   5.089
 6200WAT      O19118   0.572   1.743   5.459
 6200WAT     H119119   0.566   1.802   5.534
 6200WAT     H219120   0.666   1.732   5.444
 6201WAT      O19121   0.835   1.709   5.423
 6201WAT     H119122   0.897   1.740   5.357
 6201WAT     H219123   0.890   1.660   5.485
 6202WAT      O19124   1.477   3.298   5.163
 6202WAT     H119125   1.428   3.338   5.092
 6202WAT     H219126   1.416   3.236   5.203
 6203WAT      O19127   0.910   1.565   5.055
 6203WAT     H119128   0.822   1.598   5.035
 6203WAT     H219129   0.899   1.518   5.138
 6204WAT      O19130   1.000   1.786   5.194
 6204WAT     H119131   0.967   1.704   5.156
 6204WAT     H219132   1.095   1.781   5.182
 6205WAT      O19133   1.246   3.363   4.891
 6205WAT     H119134   1.200   3.438   4.854
 6205WAT     H219135   1.183   3.291   4.885
 6206WAT      O19136   0.289   3.194   4.809
 6206WAT     H119137   0.340   3.132   4.756
 6206WAT     H219138   0.354   3.244   4.858
 6207WAT      O19139   0.562   3.283   4.891
 6207WAT     H119140   0.591   3.257   4.804
 6207WAT     H219141   0.614   3.227   4.950
 6208WAT      O19142   0.684   1.657   4.949
 6208WAT     H119143   0.606   1.704   4.977
 6208WAT     H219144   0.655   1.566   4.938
 6209WAT      O19145   1.139   1.727   4.754
 6209WAT     H119146   1.184   1.721   4.669
 6209WAT     H219147   1.113   1.818   4.761
 6210WAT      O19148   1.326   1.690   4.555
 6210WAT     H119149   1.320   1.596   4.540
 6210WAT     H219150   1.404   1.701   4.609
 6211WAT      O19151   0.473   1.898   4.501
 6211WAT     H119152   0.392   1.861   4.466
 6211WAT     H219153   0.523   1.823   4.531
 6212WAT      O19154   0.923   1.565   4.624
 6212WAT     H119155   0.983   1.622   4.672
 6212WAT     H219156   0.849   1.621   4.602
 6213WAT      O19157   1.237   1.605   4.152
 6213WAT     H119158   1.257   1.695   4.178
 6213WAT     H219159   1.159   1.582   4.201
 6214WAT      O19160   0.275   1.713   4.361
 6214WAT     H119161   0.212   1.643   4.378
 6214WAT     H219162   0.221   1.789   4.339
 6215WAT      O19163   1.393   3.329   4.328
 6215WAT     H119164   1.410   3.260   4.263
 6215WAT     H219165   1.323   3.382   4.289
 6216WAT      O19166   0.177   3.368   4.083
 6216WAT     H119167   0.250   3.340   4.028
 6216WAT     H219168   0.203   3.344   4.172
 6217WAT      O19169   0.839   2.385   2.699
 6217WAT     H119170   0.831   2.293   2.672
 6217WAT     H219171   0.797   2.434   2.628
 6218WAT      O19172   0.652   2.562   2.887
 6218WAT     H119173   0.574   2.514   2.916
 6218WAT     H219174   0.717   2.495   2.869
 6219WAT      O19175   1.054   3.003   2.765
 6219WAT     H119176   1.008   2.926   2.798
 6219WAT     H219177   1.135   3.006   2.815
 6220WAT      O19178   0.676   3.232   2.727
 6220WAT     H119179   0.615   3.277   2.670
 6220WAT     H219180   0.762   3.247   2.687
 6221WAT      O19181   0.596   2.830   2.887
 6221WAT     H119182   0.589   2.736   2.871
 6221WAT     H219183   0.672   2.839   2.945
 6222WAT      O19184   0.699   2.111   2.910
 6222WAT     H119185   0.737   2.023   2.899
 6222WAT     H219186   0.689   2.144   2.821
 6223WAT      O19187   1.077   1.860   2.603
 6223WAT     H119188   1.159   1.811   2.608
 6223WAT     H219189   1.080   1.919   2.679
 6224WAT      O19190   0.296   2.245   2.890
 6224WAT     H119191   0.347   2.295   2.954
 6224WAT     H219192   0.349   2.167   2.872
 6225WAT      O19193   1.506   2.062   3.260
 6225WAT     H119194   1.436   2.101   3.208
 6225WAT     H219195   1.533   2.131   3.320
 6226WAT      O19196   0.763   2.720   2.466
 6226WAT     H119197   0.701   2.767   2.410
 6226WAT     H219198   0.814   2.789   2.508
 6227WAT      O19199   0.249   2.673   3.134
 6227WAT     H119200   0.216   2.736   3.198
 6227WAT     H219201   0.267   2.725   3.056
 6228WAT      O19202   1.101   2.054   2.881
 6228WAT     H119203   1.030   2.083   2.939
 6228WAT     H219204   1.137   2.135   2.845
 6229WAT      O19205   1.262   3.016   3.107
 6229WAT     H119206   1.194   3.083   3.106
 6229WAT     H219207   1.316   3.036   3.030
 6230WAT      O19208   1.408   1.999   2.920
 6230WAT     H119209   1.313   2.002   2.933
 6230WAT     H219210   1.440   2.080   2.958
 6231WAT      O19211   0.461   1.629   2.749
 6231WAT     H119212   0.492   1.573   2.678
 6231WAT     H219213   0.368   1.642   2.731
 6232WAT      O19214   1.016   3.200   2.978
 6232WAT     H119215   1.017   3.160   2.892
 6232WAT     H219216   0.961   3.278   2.968
 6233WAT      O19217   1.145   2.873   2.487
 6233WAT     H119218   1.134   2.778   2.500
 6233WAT     H219219   1.145   2.909   2.576
 6234WAT      O19220   0.956   2.691   3.111
 6234WAT     H119221   0.998   2.669   3.028
 6234WAT     H219222   1.028   2.716   3.168
 6235WAT      O19223   0.700   2.435   2.423
 6235WAT     H119224   0.607   2.429   2.446
 6235WAT     H219225   0.715   2.529   2.411
 6236WAT      O19226   0.698   2.062   2.123
 6236WAT     H119227   0.604   2.079   2.131
 6236WAT     H219228   0.730   2.134   2.068
 6237WAT      O19229   1.350   2.531   3.120
 6237WAT     H119230   1.268   2.538   3.073
 6237WAT     H219231   1.410   2.589   3.074
 6238WAT      O19232   1.103   2.591   2.473
 6238WAT     H119233   1.041   2.558   2.409
 6238WAT     H219234   1.101   2.527   2.544
 6239WAT      O19235   1.047   2.209   3.215
 6239WAT     H119236   1.006   2.292   3.240
 6239WAT     H219237   0.974   2.151   3.196
 6240WAT      O19238   0.260   2.488   2.701
 6240WAT     H119239   0.220   2.417   2.652
 6240WAT     H219240   0.269   2.453   2.790
 6241WAT      O19241   0.307   2.857   2.918
 6241WAT     H119242   0.277   2.796   2.850
 6241WAT     H219243   0.402   2.860   2.906
 6242WAT      O19244   1.116   3.214   3.284
 6242WAT     H119245   1.068   3.295   3.264
 6242WAT     H219246   1.048   3.149   3.299
 6243WAT      O19247   0.920   2.515   2.174
 6243WAT     H119248   0.964   2.432   2.159
 6243WAT     H219249   0.992   2.579   2.183
 6244WAT      O19250   0.731   3.009   2.571
 6244WAT     H119251   0.775   3.084   2.529
 6244WAT     H219252   0.725   3.034   2.663
 6245WAT      O19253   0.279   3.112   3.661
 6245WAT     H119254   0.276   3.152   3.574
 6245WAT     H219255   0.262   3.019   3.645
 6246WAT      O19256   1.278   1.641   2.005
 6246WAT     H119257   1.247   1.650   2.095
 6246WAT     H219258   1.355   1.699   2.000
 6247WAT      O19259   1.474   3.190   3.791
 6247WAT     H119260   1.521   3.238   3.859
 6247WAT     H219261   1.536   3.183   3.718
 6248WAT      O19262   1.414   2.909   3.507
 6248WAT     H119263   1.427   2.885   3.415
 6248WAT     H219264   1.418   2.826   3.554
 6249WAT      O19265   0.800   3.279   3.364
 6249WAT     H119266   0.852   3.271   3.444
 6249WAT     H219267   0.716   3.314   3.393
 6250WAT      O19268   0.998   3.308   2.306
 6250WAT     H119269   0.982   3.279   2.396
 6250WAT     H219270   0.981   3.230   2.253
 6251WAT      O19271   0.246   3.286   2.484
 6251WAT     H119272   0.228   3.194   2.463
 6251WAT     H219273   0.160   3.322   2.508
 6252WAT      O19274   0.968   3.059   2.162
 6252WAT     H119275   0.899   3.059   2.096
 6252WAT     H219276   1.042   3.016   2.119
 6253WAT      O19277   0.925   3.221   2.570
 6253WAT     H119278   0.970   3.143   2.601
 6253WAT     H219279   0.959   3.293   2.624
 6254WAT      O19280   1.399   2.114   3.603
 6254WAT     H119281   1.338   2.165   3.550
 6254WAT     H219282   1.367   2.024   3.597
 6255WAT      O19283   0.606   1.998   3.350
 6255WAT     H119284   0.559   2.019   3.431
 6255WAT     H219285   0.565   1.917   3.320
 6256WAT      O19286   1.106   2.120   3.463
 6256WAT     H119287   1.021   2.091   3.495
 6256WAT     H219288   1.090   2.145   3.372
 6257WAT      O19289   0.815   2.271   3.673
 6257WAT     H119290   0.848   2.187   3.639
 6257WAT     H219291   0.894   2.323   3.688
 6258WAT      O19292   0.488   1.674   2.278
 6258WAT     H119293   0.426   1.673   2.350
 6258WAT     H219294   0.480   1.587   2.238
 6259WAT      O19295   0.381   1.766   2.975
 6259WAT     H119296   0.410   1.857   2.967
 6259WAT     H219297   0.436   1.717   2.914
 6260WAT      O19298   0.879   2.225   2.422
 6260WAT     H119299   0.819   2.297   2.404
 6260WAT     H219300   0.934   2.218   2.344
 6261WAT      O19301   0.400   2.314   3.629
 6261WAT     H119302   0.390   2.220   3.614
 6261WAT     H219303   0.484   2.336   3.589
 6262WAT      O19304   0.740   2.088   2.625
 6262WAT     H119305   0.779   2.120   2.544
 6262WAT     H219306   0.776   2.000   2.637
 6263WAT      O19307   0.571   1.963   3.751
 6263WAT     H119308   0.502   1.944   3.815
 6263WAT     H219309   0.645   1.992   3.804
 6264WAT      O19310   0.798   2.347   3.035
 6264WAT     H119311   0.725   2.398   3.070
 6264WAT     H219312   0.758   2.266   3.005
 6265WAT      O19313   0.442   2.015   2.875
 6265WAT     H119314   0.442   1.971   2.790
 6265WAT     H219315   0.531   2.047   2.886
 6266WAT      O19316   0.448   2.115   2.174
 6266WAT     H119317   0.460   2.111   2.269
 6266WAT     H219318   0.410   2.201   2.159
 6267WAT      O19319   0.844   1.893   2.976
 6267WAT     H119320   0.846   1.938   3.060
 6267WAT     H219321   0.820   1.803   2.997
 6268WAT      O19322   0.349   2.346   2.114
 6268WAT     H119323   0.293   2.301   2.051
 6268WAT     H219324   0.420   2.382   2.061
 6269WAT      O19325   1.187   1.634   3.560
 6269WAT     H119326   1.220   1.561   3.612
 6269WAT     H219327   1.191   1.602   3.470
 6270WAT      O19328   0.472   2.421   3.050
 6270WAT     H119329   0.509   2.374   3.124
 6270WAT     H219330   0.453   2.508   3.084
 6271WAT      O19331   0.251   2.325   3.282
 6271WAT     H119332   0.221   2.413   3.304
 6271WAT     H219333   0.347   2.331   3.285
 6272WAT      O19334   1.180   2.645   2.921
 6272WAT     H119335   1.252   2.695   2.882
 6272WAT     H219336   1.160   2.577   2.856
 6273WAT      O19337   0.726   1.785   2.335
 6273WAT     H119338   0.645   1.735   2.327
 6273WAT     H219339   0.706   1.869   2.293
 6274WAT      O19340   0.718   2.652   3.509
 6274WAT     H119341   0.711   2.560   3.484
 6274WAT     H219342   0.655   2.662   3.581
 6275WAT      O19343   0.997   2.222   2.165
 6275WAT     H119344   1.086   2.253   2.147
 6275WAT     H219345   0.994   2.135   2.125
 6276WAT      O19346   0.597   2.839   2.232
 6276WAT     H119347   0.631   2.914   2.183
 6276WAT     H219348   0.514   2.870   2.269
 6277WAT      O19349   0.177   2.455   3.685
 6277WAT     H119350   0.147   2.469   3.595
 6277WAT     H219351   0.254   2.399   3.676
 6278WAT      O19352   0.711   2.935   3.484
 6278WAT     H119353   0.713   2.841   3.463
 6278WAT     H219354   0.640   2.943   3.548
 6279WAT      O19355   1.224   2.353   2.111
 6279WAT     H119356   1.216   2.396   2.026
 6279WAT     H219357   1.296   2.399   2.155
 6280WAT      O19358   1.332   2.599   3.419
 6280WAT     H119359   1.260   2.658   3.399
 6280WAT     H219360   1.385   2.598   3.339
 6281WAT      O19361   1.327   3.038   2.384
 6281WAT     H119362   1.263   2.973   2.412
 6281WAT     H219363   1.289   3.079   2.307
 6282WAT      O19364   0.885   2.771   2.769
 6282WAT     H119365   0.920   2.712   2.703
 6282WAT     H219366   0.797   2.739   2.786
 6283WAT      O19367   0.494   2.847   2.510
 6283WAT     H119368   0.563   2.902   2.548
 6283WAT     H219369   0.415   2.902   2.513
 6284WAT      O19370   0.424   2.548   2.471
 6284WAT     H119371   0.470   2.629   2.493
 6284WAT     H219372   0.389   2.516   2.554
 6285WAT      O19373   0.654   3.099   3.194
 6285WAT     H119374   0.719   3.119   3.262
 6285WAT     H219375   0.691   3.023   3.148
 6286WAT      O19376   0.782   2.899   3.066
 6286WAT     H119377   0.846   2.829   3.077
 6286WAT     H219378   0.834   2.977   3.048
 6287WAT      O19379   1.166   2.928   2.038
 6287WAT     H119380   1.144   2.856   2.097
 6287WAT     H219381   1.127   2.903   1.954
 6288WAT      O19382   0.959   2.979   3.386
 6288WAT     H119383   0.993   3.038   3.454
 6288WAT     H219384   0.867   2.966   3.409
 6289WAT      O19385   1.124   2.719   2.204
 6289WAT     H119386   1.096   2.765   2.283
 6289WAT     H219387   1.204   2.673   2.231
 6290WAT      O19388   0.542   2.984   3.703
 6290WAT     H119389   0.510   2.912   3.757
 6290WAT     H219390   0.475   3.052   3.710
 6291WAT      O19391   0.346   3.069   2.197
 6291WAT     H119392   0.345   3.142   2.136
 6291WAT     H219393   0.254   3.044   2.206
 6292WAT      O19394   0.864   2.007   3.239
 6292WAT     H119395   0.900   1.925   3.272
 6292WAT     H219396   0.778   2.013   3.281
 6293WAT      O19397   1.200   1.903   2.320
 6293WAT     H119398   1.137   1.913   2.249
 6293WAT     H219399   1.151   1.925   2.399
 6294WAT      O19400   0.645   3.075   2.063
 6294WAT     H119401   0.655   3.054   1.970
 6294WAT     H219402   0.555   3.049   2.084
 6295WAT      O19403   0.397   2.131   2.462
 6295WAT     H119404   0.326   2.178   2.506
 6295WAT     H219405   0.425   2.065   2.525
 6296WAT      O19406   0.560   2.273   3.262
 6296WAT     H119407   0.609   2.320   3.328
 6296WAT     H219408   0.574   2.180   3.282
 6297WAT      O19409   0.800   1.803   2.606
 6297WAT     H119410   0.788   1.805   2.511
 6297WAT     H219411   0.895   1.808   2.618
 6298WAT      O19412   0.509   3.327   2.533
 6298WAT     H119413   0.534   3.323   2.441
 6298WAT     H219414   0.414   3.314   2.532
 6299WAT      O19415   0.217   1.961   2.199
 6299WAT     H119416   0.302   2.005   2.193
 6299WAT     H219417   0.181   1.993   2.282
 6300WAT      O19418   1.280   1.894   3.346
 6300WAT     H119419   1.230   1.968   3.380
 6300WAT     H219420   1.362   1.933   3.314
 6301WAT      O19421   1.109   2.419   2.690
 6301WAT     H119422   1.015   2.420   2.708
 6301WAT     H219423   1.141   2.340   2.735
 6302WAT      O19424   1.310   3.136   2.858
 6302WAT     H119425   1.322   3.218   2.905
 6302WAT     H219426   1.396   3.115   2.823
 6303WAT      O19427   0.368   3.262   2.007
 6303WAT     H119428   0.447   3.291   1.962
 6303WAT     H219429   0.316   3.219   1.940
 6304WAT      O19430   0.841   2.874   3.739
 6304WAT     H119431   0.781   2.877   3.665
 6304WAT     H219432   0.811   2.801   3.792
 6305WAT      O19433   0.984   3.247   3.600
 6305WAT     H119434   1.079   3.239   3.595
 6305WAT     H219435   0.969   3.313   3.667
 6306WAT      O19436   1.273   3.185   2.150
 6306WAT     H119437   1.245   3.144   2.068
 6306WAT     H219438   1.253   3.278   2.138
 6307WAT      O19439   0.420   2.784   1.994
 6307WAT     H119440   0.409   2.723   2.066
 6307WAT     H219441   0.403   2.732   1.915
 6308WAT      O19442   0.435   2.653   3.592
 6308WAT     H119443   0.358   2.710   3.583
 6308WAT     H219444   0.453   2.624   3.502
 6309WAT      O19445   0.744   2.691   2.054
 6309WAT     H119446   0.689   2.735   2.119
 6309WAT     H219447   0.806   2.640   2.107
 6310WAT      O19448   1.149   2.826   3.647
 6310WAT     H119449   1.223   2.860   3.597
 6310WAT     H219450   1.073   2.843   3.592
 6311WAT      O19451   0.310   2.586   2.244
 6311WAT     H119452   0.353   2.570   2.328
 6311WAT     H219453   0.323   2.505   2.194
 6312WAT      O19454   0.562   2.489   1.969
 6312WAT     H119455   0.614   2.417   1.932
 6312WAT     H219456   0.626   2.553   1.999
 6313WAT      O19457   1.017   2.631   3.501
 6313WAT     H119458   1.058   2.647   3.586
 6313WAT     H219459   0.923   2.644   3.517
 6314WAT      O19460   1.064   2.365   3.701
 6314WAT     H119461   1.122   2.290   3.693
 6314WAT     H219462   1.081   2.418   3.624
 6315WAT      O19463   0.452   1.737   3.236
 6315WAT     H119464   0.407   1.739   3.151
 6315WAT     H219465   0.389   1.697   3.296
 6316WAT      O19466   0.493   2.626   3.298
 6316WAT     H119467   0.535   2.711   3.281
 6316WAT     H219468   0.401   2.640   3.275
 6317WAT      O19469   0.726   2.399   3.436
 6317WAT     H119470   0.738   2.340   3.510
 6317WAT     H219471   0.812   2.403   3.394
 6318WAT      O19472   0.960   2.455   3.294
 6318WAT     H119473   0.908   2.507   3.234
 6318WAT     H219474   0.995   2.518   3.357
 6319WAT      O19475   0.200   2.194   1.938
 6319WAT     H119476   0.180   2.107   1.975
 6319WAT     H219477   0.183   2.185   1.845
 6320WAT      O19478   0.278   3.257   3.410
 6320WAT     H119479   0.224   3.329   3.378
 6320WAT     H219480   0.303   3.209   3.331
 6321WAT      O19481   0.403   2.054   3.562
 6321WAT     H119482   0.462   2.023   3.631
 6321WAT     H219483   0.321   2.007   3.578
 6322WAT      O19484   0.885   2.015   3.585
 6322WAT     H119485   0.816   1.949   3.579
 6322WAT     H219486   0.957   1.971   3.630
 6323WAT      O19487   0.948   1.675   2.191
 6323WAT     H119488   0.976   1.591   2.227
 6323WAT     H219489   0.871   1.698   2.243
 6324WAT      O19490   0.563   3.380   3.435
 6324WAT     H119491   0.556   3.471   3.466
 6324WAT     H219492   0.473   3.348   3.433
 6325WAT      O19493   0.402   1.798   2.036
 6325WAT     H119494   0.367   1.730   1.978
 6325WAT     H219495   0.422   1.752   2.117
 6326WAT      O19496   0.618   3.297   2.198
 6326WAT     H119497   0.708   3.331   2.200
 6326WAT     H219498   0.621   3.225   2.135
 6327WAT      O19499   1.316   3.150   3.468
 6327WAT     H119500   1.256   3.156   3.394
 6327WAT     H219501   1.329   3.056   3.481
 6328WAT      O19502   1.440   2.924   2.002
 6328WAT     H119503   1.357   2.931   2.049
 6328WAT     H219504   1.458   3.013   1.972
 6329WAT      O19505   1.386   2.599   2.252
 6329WAT     H119506   1.462   2.656   2.263
 6329WAT     H219507   1.387   2.542   2.329
 6330WAT      O19508   1.486   2.684   2.737
 6330WAT     H119509   1.523   2.606   2.696
 6330WAT     H219510   1.550   2.753   2.719
 6331WAT      O19511   1.185   2.823   3.278
 6331WAT     H119512   1.103   2.865   3.304
 6331WAT     H219513   1.225   2.884   3.217
 6332WAT      O19514   1.391   2.628   1.968
 6332WAT     H119515   1.418   2.719   1.955
 6332WAT     H219516   1.372   2.622   2.062
 6333WAT      O19517   1.031   1.930   2.098
 6333WAT     H119518   1.073   1.912   2.014
 6333WAT     H219519   1.000   1.845   2.129
 6334WAT      O19520   1.381   2.422   2.467
 6334WAT     H119521   1.343   2.345   2.424
 6334WAT     H219522   1.308   2.460   2.516
 6335WAT      O19523   1.320   2.336   3.431
 6335WAT     H119524   1.296   2.314   3.341
 6335WAT     H219525   1.346   2.428   3.426
 6336WAT      O19526   1.163   1.859   3.709
 6336WAT     H119527   1.251   1.860   3.747
 6336WAT     H219528   1.165   1.785   3.648
 6337WAT      O19529   1.308   2.244   2.797
 6337WAT     H119530   1.360   2.195   2.734
 6337WAT     H219531   1.367   2.258   2.872
 6338WAT      O19532   1.326   2.253   3.150
 6338WAT     H119533   1.231   2.249   3.161
 6338WAT     H219534   1.344   2.344   3.126
 6339WAT      O19535   1.257   2.170   2.391
 6339WAT     H119536   1.307   2.147   2.470
 6339WAT     H219537   1.237   2.086   2.350
 6340WAT      O19538   1.400   2.034   2.645
 6340WAT     H119539   1.389   2.018   2.739
 6340WAT     H219540   1.476   1.981   2.621
 6341WAT      O19541   1.235   1.628   3.291
 6341WAT     H119542   1.298   1.689   3.327
 6341WAT     H219543   1.249   1.631   3.196
 6342WAT      O19544   1.489   1.817   1.969
 6342WAT     H119545   1.581   1.803   1.948
 6342WAT     H219546   1.487   1.825   2.064
 6343WAT      O19547   1.496   1.894   2.231
 6343WAT     H119548   1.417   1.887   2.284
 6343WAT     H219549   1.517   1.987   2.230
 6344WAT      O19550   1.190   3.298   2.631
 6344WAT     H119551   1.250   3.266   2.563
 6344WAT     H219552   1.216   3.250   2.710
 6345WAT      O19553   0.351   3.096   3.206
 6345WAT     H119554   0.327   3.123   3.117
 6345WAT     H219555   0.445   3.114   3.211
 6346WAT      O19556   0.572   1.743   3.581
 6346WAT     H119557   0.566   1.802   3.656
 6346WAT     H219558   0.666   1.732   3.567
 6347WAT      O19559   0.835   1.709   3.545
 6347WAT     H119560   0.897   1.740   3.479
 6347WAT     H219561   0.890   1.660   3.607
 6348WAT      O19562   1.477   3.298   3.286
 6348WAT     H119563   1.428   3.338   3.214
 6348WAT     H219564   1.416   3.236   3.325
 6349WAT      O19565   0.910   1.565   3.178
 6349WAT     H119566   0.822   1.598   3.158
 6349WAT     H219567   0.899   1.518   3.261
 6350WAT      O19568   1.000   1.786   3.316
 6350WAT     H119569   0.967   1.704   3.278
 6350WAT     H219570   1.095   1.781   3.304
 6351WAT      O19571   1.246   3.363   3.014
 6351WAT     H119572   1.200   3.438   2.976
 6351WAT     H219573   1.183   3.291   3.008
 6352WAT      O19574   0.289   3.194   2.931
 6352WAT     H119575   0.340   3.132   2.879
 6352WAT     H219576   0.354   3.244   2.980
 6353WAT      O19577   0.562   3.283   3.014
 6353WAT     H119578   0.591   3.257   2.926
 6353WAT     H219579   0.614   3.227   3.073
 6354WAT      O19580   0.684   1.657   3.072
 6354WAT     H119581   0.606   1.704   3.100
 6354WAT     H219582   0.655   1.566   3.061
 6355WAT      O19583   1.139   1.727   2.876
 6355WAT     H119584   1.184   1.721   2.792
 6355WAT     H219585   1.113   1.818   2.884
 6356WAT      O19586   1.326   1.690   2.678
 6356WAT     H119587   1.320   1.596   2.663
 6356WAT     H219588   1.404   1.701   2.732
 6357WAT      O19589   0.473   1.898   2.623
 6357WAT     H119590   0.392   1.861   2.589
 6357WAT     H219591   0.523   1.823   2.653
 6358WAT      O19592   0.923   1.565   2.747
 6358WAT     H119593   0.983   1.622   2.794
 6358WAT     H219594   0.849   1.621   2.725
 6359WAT      O19595   1.237   1.605   2.274
 6359WAT     H119596   1.257   1.695   2.301
 6359WAT     H219597   1.159   1.582   2.324
 6360WAT      O19598   0.275   1.713   2.484
 6360WAT     H119599   0.212   1.643   2.500
 6360WAT     H219600   0.221   1.789   2.462
 6361WAT      O19601   0.569   3.375   3.751
 6361WAT     H119602   0.662   3.351   3.755
 6361WAT     H219603   0.568   3.458   3.703
 6362WAT      O19604   1.393   3.329   2.450
 6362WAT     H119605   1.410   3.260   2.386
 6362WAT     H219606   1.323   3.382   2.411
 6363WAT      O19607   0.288   1.641   3.727
 6363WAT     H119608   0.260   1.692   3.651
 6363WAT     H219609   0.326   1.561   3.690
 6364WAT      O19610   0.177   3.368   2.206
 6364WAT     H119611   0.250   3.340   2.151
 6364WAT     H219612   0.203   3.344   2.295
 6365WAT      O19613   0.948   1.583   3.785
 6365WAT     H119614   0.937   1.615   3.874
 6365WAT     H219615   1.030   1.623   3.755
 6366WAT      O19616   1.226   3.297   3.733
 6366WAT     H119617   1.305   3.248   3.712
 6366WAT     H219618   1.255   3.365   3.794
 6367WAT      O19619   0.839   2.385   0.821
 6367WAT     H119620   0.831   2.293   0.794
 6367WAT     H219621   0.797   2.434   0.751
 6368WAT      O19622   0.652   2.562   1.009
 6368WAT     H119623   0.574   2.514   1.038
 6368WAT     H219624   0.717   2.495   0.992
 6369WAT      O19625   1.054   3.003   0.887
 6369WAT     H119626   1.008   2.926   0.920
 6369WAT     H219627   1.135   3.006   0.938
 6370WAT      O19628   0.676   3.232   0.849
 6370WAT     H119629   0.615   3.277   0.792
 6370WAT     H219630   0.762   3.247   0.809
 6371WAT      O19631   0.596   2.830   1.010
 6371WAT     H119632   0.589   2.736   0.994
 6371WAT     H219633   0.672   2.839   1.067
 6372WAT      O19634   0.699   2.111   1.033
 6372WAT     H119635   0.737   2.023   1.021
 6372WAT     H219636   0.689   2.144   0.944
 6373WAT      O19637   1.077   1.860   0.726
 6373WAT     H119638   1.159   1.811   0.730
 6373WAT     H219639   1.080   1.919   0.801
 6374WAT      O19640   0.296   2.245   1.012
 6374WAT     H119641   0.347   2.295   1.076
 6374WAT     H219642   0.349   2.167   0.995
 6375WAT      O19643   1.506   2.062   1.382
 6375WAT     H119644   1.436   2.101   1.331
 6375WAT     H219645   1.533   2.131   1.443
 6376WAT      O19646   0.763   2.720   0.589
 6376WAT     H119647   0.701   2.767   0.532
 6376WAT     H219648   0.814   2.789   0.630
 6377WAT      O19649   0.249   2.673   1.256
 6377WAT     H119650   0.216   2.736   1.321
 6377WAT     H219651   0.267   2.725   1.179
 6378WAT      O19652   1.101   2.054   1.003
 6378WAT     H119653   1.030   2.083   1.061
 6378WAT     H219654   1.137   2.135   0.967
 6379WAT      O19655   1.262   3.016   1.230
 6379WAT     H119656   1.194   3.083   1.229
 6379WAT     H219657   1.316   3.036   1.153
 6380WAT      O19658   1.408   1.999   1.042
 6380WAT     H119659   1.313   2.002   1.056
 6380WAT     H219660   1.440   2.080   1.081
 6381WAT      O19661   0.461   1.629   0.872
 6381WAT     H119662   0.492   1.573   0.800
 6381WAT     H219663   0.368   1.642   0.854
 6382WAT      O19664   1.016   3.200   1.101
 6382WAT     H119665   1.017   3.160   1.014
 6382WAT     H219666   0.961   3.278   1.091
 6383WAT      O19667   1.145   2.873   0.610
 6383WAT     H119668   1.134   2.778   0.622
 6383WAT     H219669   1.145   2.909   0.699
 6384WAT      O19670   0.956   2.691   1.234
 6384WAT     H119671   0.998   2.669   1.150
 6384WAT     H219672   1.028   2.716   1.291
 6385WAT      O19673   0.700   2.435   0.546
 6385WAT     H119674   0.607   2.429   0.568
 6385WAT     H219675   0.715   2.529   0.534
 6386WAT      O19676   0.698   2.062   0.245
 6386WAT     H119677   0.604   2.079   0.254
 6386WAT     H219678   0.730   2.134   0.191
 6387WAT      O19679   1.350   2.531   1.243
 6387WAT     H119680   1.268   2.538   1.195
 6387WAT     H219681   1.410   2.589   1.196
 6388WAT      O19682   1.103   2.591   0.596
 6388WAT     H119683   1.041   2.558   0.531
 6388WAT     H219684   1.101   2.527   0.667
 6389WAT      O19685   1.047   2.209   1.338
 6389WAT     H119686   1.006   2.292   1.363
 6389WAT     H219687   0.974   2.151   1.318
 6390WAT      O19688   0.260   2.488   0.824
 6390WAT     H119689   0.220   2.417   0.774
 6390WAT     H219690   0.269   2.453   0.913
 6391WAT      O19691   0.307   2.857   1.040
 6391WAT     H119692   0.277   2.796   0.972
 6391WAT     H219693   0.402   2.860   1.029
 6392WAT      O19694   1.116   3.214   1.406
 6392WAT     H119695   1.068   3.295   1.387
 6392WAT     H219696   1.048   3.149   1.422
 6393WAT      O19697   0.920   2.515   0.297
 6393WAT     H119698   0.964   2.432   0.282
 6393WAT     H219699   0.992   2.579   0.305
 6394WAT      O19700   0.731   3.009   0.693
 6394WAT     H119701   0.775   3.084   0.652
 6394WAT     H219702   0.725   3.034   0.786
 6395WAT      O19703   0.279   3.112   1.784
 6395WAT     H119704   0.276   3.152   1.697
 6395WAT     H219705   0.262   3.019   1.767
 6396WAT      O19706   1.474   3.190   1.913
 6396WAT     H119707   1.521   3.238   1.981
 6396WAT     H219708   1.536   3.183   1.841
 6397WAT      O19709   1.414   2.909   1.629
 6397WAT     H119710   1.427   2.885   1.537
 6397WAT     H219711   1.418   2.826   1.676
 6398WAT      O19712   0.800   3.279   1.486
 6398WAT     H119713   0.852   3.271   1.566
 6398WAT     H219714   0.716   3.314   1.515
 6399WAT      O19715   0.998   3.308   0.429
 6399WAT     H119716   0.982   3.279   0.519
 6399WAT     H219717   0.981   3.230   0.375
 6400WAT      O19718   0.246   3.286   0.607
 6400WAT     H119719   0.228   3.194   0.585
 6400WAT     H219720   0.160   3.322   0.631
 6401WAT      O19721   0.968   3.059   0.285
 6401WAT     H119722   0.899   3.059   0.219
 6401WAT     H219723   1.042   3.016   0.242
 6402WAT      O19724   0.925   3.221   0.692
 6402WAT     H119725   0.970   3.143   0.724
 6402WAT     H219726   0.959   3.293   0.747
 6403WAT      O19727   1.399   2.114   1.726
 6403WAT     H119728   1.338   2.165   1.673
 6403WAT     H219729   1.367   2.024   1.720
 6404WAT      O19730   0.606   1.998   1.472
 6404WAT     H119731   0.559   2.019   1.554
 6404WAT     H219732   0.565   1.917   1.442
 6405WAT      O19733   1.106   2.120   1.585
 6405WAT     H119734   1.021   2.091   1.617
 6405WAT     H219735   1.090   2.145   1.494
 6406WAT      O19736   0.815   2.271   1.795
 6406WAT     H119737   0.848   2.187   1.761
 6406WAT     H219738   0.894   2.323   1.810
 6407WAT      O19739   0.488   1.674   0.400
 6407WAT     H119740   0.426   1.673   0.473
 6407WAT     H219741   0.480   1.587   0.360
 6408WAT      O19742   0.381   1.766   1.098
 6408WAT     H119743   0.410   1.857   1.090
 6408WAT     H219744   0.436   1.717   1.037
 6409WAT      O19745   0.879   2.225   0.545
 6409WAT     H119746   0.819   2.297   0.526
 6409WAT     H219747   0.934   2.218   0.466
 6410WAT      O19748   0.400   2.314   1.751
 6410WAT     H119749   0.390   2.220   1.736
 6410WAT     H219750   0.484   2.336   1.712
 6411WAT      O19751   0.740   2.088   0.748
 6411WAT     H119752   0.779   2.120   0.666
 6411WAT     H219753   0.776   2.000   0.759
 6412WAT      O19754   0.571   1.963   1.874
 6412WAT     H119755   0.502   1.944   1.937
 6412WAT     H219756   0.645   1.992   1.927
 6413WAT      O19757   0.798   2.347   1.157
 6413WAT     H119758   0.725   2.398   1.192
 6413WAT     H219759   0.758   2.266   1.127
 6414WAT      O19760   0.442   2.015   0.998
 6414WAT     H119761   0.442   1.971   0.913
 6414WAT     H219762   0.531   2.047   1.009
 6415WAT      O19763   0.448   2.115   0.297
 6415WAT     H119764   0.460   2.111   0.392
 6415WAT     H219765   0.410   2.201   0.281
 6416WAT      O19766   0.844   1.893   1.098
 6416WAT     H119767   0.846   1.938   1.183
 6416WAT     H219768   0.820   1.803   1.120
 6417WAT      O19769   0.349   2.346   0.237
 6417WAT     H119770   0.293   2.301   0.174
 6417WAT     H219771   0.420   2.382   0.183
 6418WAT      O19772   1.187   1.634   1.682
 6418WAT     H119773   1.220   1.561   1.735
 6418WAT     H219774   1.191   1.602   1.592
 6419WAT      O19775   0.472   2.421   1.172
 6419WAT     H119776   0.509   2.374   1.247
 6419WAT     H219777   0.453   2.508   1.207
 6420WAT      O19778   0.251   2.325   1.404
 6420WAT     H119779   0.221   2.413   1.427
 6420WAT     H219780   0.347   2.331   1.408
 6421WAT      O19781   1.180   2.645   1.043
 6421WAT     H119782   1.252   2.695   1.004
 6421WAT     H219783   1.160   2.577   0.979
 6422WAT      O19784   0.726   1.785   0.458
 6422WAT     H119785   0.645   1.735   0.450
 6422WAT     H219786   0.706   1.869   0.416
 6423WAT      O19787   0.718   2.652   1.632
 6423WAT     H119788   0.711   2.560   1.606
 6423WAT     H219789   0.655   2.662   1.703
 6424WAT      O19790   0.997   2.222   0.287
 6424WAT     H119791   1.086   2.253   0.270
 6424WAT     H219792   0.994   2.135   0.248
 6425WAT      O19793   0.597   2.839   0.355
 6425WAT     H119794   0.631   2.914   0.305
 6425WAT     H219795   0.514   2.870   0.391
 6426WAT      O19796   0.177   2.455   1.807
 6426WAT     H119797   0.147   2.469   1.718
 6426WAT     H219798   0.254   2.399   1.798
 6427WAT      O19799   0.711   2.935   1.607
 6427WAT     H119800   0.713   2.841   1.585
 6427WAT     H219801   0.640   2.943   1.671
 6428WAT      O19802   1.332   2.599   1.542
 6428WAT     H119803   1.260   2.658   1.522
 6428WAT     H219804   1.385   2.598   1.462
 6429WAT      O19805   1.327   3.038   0.507
 6429WAT     H119806   1.263   2.973   0.534
 6429WAT     H219807   1.289   3.079   0.429
 6430WAT      O19808   0.885   2.771   0.891
 6430WAT     H119809   0.920   2.712   0.825
 6430WAT     H219810   0.797   2.739   0.909
 6431WAT      O19811   0.494   2.847   0.632
 6431WAT     H119812   0.563   2.902   0.670
 6431WAT     H219813   0.415   2.902   0.636
 6432WAT      O19814   0.424   2.548   0.593
 6432WAT     H119815   0.470   2.629   0.616
 6432WAT     H219816   0.389   2.516   0.677
 6433WAT      O19817   0.654   3.099   1.316
 6433WAT     H119818   0.719   3.119   1.384
 6433WAT     H219819   0.691   3.023   1.271
 6434WAT      O19820   0.782   2.899   1.188
 6434WAT     H119821   0.846   2.829   1.199
 6434WAT     H219822   0.834   2.977   1.170
 6435WAT      O19823   0.959   2.979   1.508
 6435WAT     H119824   0.993   3.038   1.576
 6435WAT     H219825   0.867   2.966   1.531
 6436WAT      O19826   1.124   2.719   0.327
 6436WAT     H119827   1.096   2.765   0.405
 6436WAT     H219828   1.204   2.673   0.354
 6437WAT      O19829   0.542   2.984   1.825
 6437WAT     H119830   0.510   2.912   1.880
 6437WAT     H219831   0.475   3.052   1.833
 6438WAT      O19832   0.346   3.069   0.320
 6438WAT     H119833   0.345   3.142   0.258
 6438WAT     H219834   0.254   3.044   0.329
 6439WAT      O19835   0.864   2.007   1.362
 6439WAT     H119836   0.900   1.925   1.395
 6439WAT     H219837   0.778   2.013   1.403
 6440WAT      O19838   1.200   1.903   0.443
 6440WAT     H119839   1.137   1.913   0.371
 6440WAT     H219840   1.151   1.925   0.522
 6441WAT      O19841   0.397   2.131   0.584
 6441WAT     H119842   0.326   2.178   0.628
 6441WAT     H219843   0.425   2.065   0.648
 6442WAT      O19844   0.560   2.273   1.384
 6442WAT     H119845   0.609   2.320   1.451
 6442WAT     H219846   0.574   2.180   1.405
 6443WAT      O19847   0.800   1.803   0.728
 6443WAT     H119848   0.788   1.805   0.633
 6443WAT     H219849   0.895   1.808   0.740
 6444WAT      O19850   0.509   3.327   0.655
 6444WAT     H119851   0.534   3.323   0.563
 6444WAT     H219852   0.414   3.314   0.655
 6445WAT      O19853   0.217   1.961   0.322
 6445WAT     H119854   0.302   2.005   0.315
 6445WAT     H219855   0.181   1.993   0.404
 6446WAT      O19856   1.280   1.894   1.468
 6446WAT     H119857   1.230   1.968   1.502
 6446WAT     H219858   1.362   1.933   1.437
 6447WAT      O19859   1.109   2.419   0.813
 6447WAT     H119860   1.015   2.420   0.830
 6447WAT     H219861   1.141   2.340   0.858
 6448WAT      O19862   1.310   3.136   0.981
 6448WAT     H119863   1.322   3.218   1.028
 6448WAT     H219864   1.396   3.115   0.946
 6449WAT      O19865   0.841   2.874   1.861
 6449WAT     H119866   0.781   2.877   1.787
 6449WAT     H219867   0.811   2.801   1.915
 6450WAT      O19868   0.984   3.247   1.722
 6450WAT     H119869   1.079   3.239   1.717
 6450WAT     H219870   0.969   3.313   1.790
 6451WAT      O19871   1.273   3.185   0.272
 6451WAT     H119872   1.245   3.144   0.191
 6451WAT     H219873   1.253   3.278   0.260
 6452WAT      O19874   0.435   2.653   1.714
 6452WAT     H119875   0.358   2.710   1.706
 6452WAT     H219876   0.453   2.624   1.625
 6453WAT      O19877   0.744   2.691   0.177
 6453WAT     H119878   0.689   2.735   0.241
 6453WAT     H219879   0.806   2.640   0.229
 6454WAT      O19880   1.149   2.826   1.770
 6454WAT     H119881   1.223   2.860   1.720
 6454WAT     H219882   1.073   2.843   1.715
 6455WAT      O19883   0.310   2.586   0.366
 6455WAT     H119884   0.353   2.570   0.451
 6455WAT     H219885   0.323   2.505   0.317
 6456WAT      O19886   1.017   2.631   1.624
 6456WAT     H119887   1.058   2.647   1.709
 6456WAT     H219888   0.923   2.644   1.640
 6457WAT      O19889   1.064   2.365   1.824
 6457WAT     H119890   1.122   2.290   1.815
 6457WAT     H219891   1.081   2.418   1.746
 6458WAT      O19892   0.452   1.737   1.358
 6458WAT     H119893   0.407   1.739   1.274
 6458WAT     H219894   0.389   1.697   1.418
 6459WAT      O19895   0.493   2.626   1.421
 6459WAT     H119896   0.535   2.711   1.403
 6459WAT     H219897   0.401   2.640   1.398
 6460WAT      O19898   0.726   2.399   1.559
 6460WAT     H119899   0.738   2.340   1.633
 6460WAT     H219900   0.812   2.403   1.517
 6461WAT      O19901   0.960   2.455   1.417
 6461WAT     H119902   0.908   2.507   1.356
 6461WAT     H219903   0.995   2.518   1.480
 6462WAT      O19904   0.278   3.257   1.532
 6462WAT     H119905   0.224   3.329   1.500
 6462WAT     H219906   0.303   3.209   1.453
 6463WAT      O19907   0.403   2.054   1.685
 6463WAT     H119908   0.462   2.023   1.753
 6463WAT     H219909   0.321   2.007   1.700
 6464WAT      O19910   0.885   2.015   1.708
 6464WAT     H119911   0.816   1.949   1.702
 6464WAT     H219912   0.957   1.971   1.753
 6465WAT      O19913   0.948   1.675   0.314
 6465WAT     H119914   0.976   1.591   0.350
 6465WAT     H219915   0.871   1.698   0.365
 6466WAT      O19916   0.563   3.380   1.558
 6466WAT     H119917   0.556   3.471   1.589
 6466WAT     H219918   0.473   3.348   1.555
 6467WAT      O19919   0.618   3.297   0.320
 6467WAT     H119920   0.708   3.331   0.322
 6467WAT     H219921   0.621   3.225   0.258
 6468WAT      O19922   1.316   3.150   1.591
 6468WAT     H119923   1.256   3.156   1.517
 6468WAT     H219924   1.329   3.056   1.604
 6469WAT      O19925   1.386   2.599   0.375
 6469WAT     H119926   1.462   2.656   0.386
 6469WAT     H219927   1.387   2.542   0.452
 6470WAT      O19928   1.486   2.684   0.859
 6470WAT     H119929   1.523   2.606   0.819
 6470WAT     H219930   1.550   2.753   0.842
 6471WAT      O19931   1.185   2.823   1.401
 6471WAT     H119932   1.103   2.865   1.427
 6471WAT     H219933   1.225   2.884   1.339
 6472WAT      O19934   1.381   2.422   0.590
 6472WAT     H119935   1.343   2.345   0.547
 6472WAT     H219936   1.308   2.460   0.639
 6473WAT      O19937   1.320   2.336   1.553
 6473WAT     H119938   1.296   2.314   1.463
 6473WAT     H219939   1.346   2.428   1.549
 6474WAT      O19940   1.163   1.859   1.831
 6474WAT     H119941   1.251   1.860   1.870
 6474WAT     H219942   1.165   1.785   1.770
 6475WAT      O19943   1.308   2.244   0.920
 6475WAT     H119944   1.360   2.195   0.857
 6475WAT     H219945   1.367   2.258   0.995
 6476WAT      O19946   1.326   2.253   1.272
 6476WAT     H119947   1.231   2.249   1.284
 6476WAT     H219948   1.344   2.344   1.249
 6477WAT      O19949   1.257   2.170   0.514
 6477WAT     H119950   1.307   2.147   0.592
 6477WAT     H219951   1.237   2.086   0.472
 6478WAT      O19952   1.400   2.034   0.767
 6478WAT     H119953   1.389   2.018   0.861
 6478WAT     H219954   1.476   1.981   0.743
 6479WAT      O19955   1.235   1.628   1.413
 6479WAT     H119956   1.298   1.689   1.450
 6479WAT     H219957   1.249   1.631   1.319
 6480WAT      O19958   1.496   1.894   0.354
 6480WAT     H119959   1.417   1.887   0.407
 6480WAT     H219960   1.517   1.987   0.353
 6481WAT      O19961   1.190   3.298   0.753
 6481WAT     H119962   1.250   3.266   0.686
 6481WAT     H219963   1.216   3.250   0.833
 6482WAT      O19964   0.351   3.096   1.328
 6482WAT     H119965   0.327   3.123   1.240
 6482WAT     H219966   0.445   3.114   1.334
 6483WAT      O19967   0.572   1.743   1.704
 6483WAT     H119968   0.566   1.802   1.779
 6483WAT     H219969   0.666   1.732   1.689
 6484WAT      O19970   0.835   1.709   1.668
 6484WAT     H119971   0.897   1.740   1.602
 6484WAT     H219972   0.890   1.660   1.730
 6485WAT      O19973   1.477   3.298   1.408
 6485WAT     H119974   1.428   3.338   1.337
 6485WAT     H219975   1.416   3.236   1.448
 6486WAT      O19976   0.910   1.565   1.301
 6486WAT     H119977   0.822   1.598   1.280
 6486WAT     H219978   0.899   1.518   1.383
 6487WAT      O19979   1.000   1.786   1.439
 6487WAT     H119980   0.967   1.704   1.401
 6487WAT     H219981   1.095   1.781   1.427
 6488WAT      O19982   1.246   3.363   1.136
 6488WAT     H119983   1.200   3.438   1.099
 6488WAT     H219984   1.183   3.291   1.131
 6489WAT      O19985   0.289   3.194   1.054
 6489WAT     H119986   0.340   3.132   1.001
 6489WAT     H219987   0.354   3.244   1.103
 6490WAT      O19988   0.562   3.283   1.137
 6490WAT     H119989   0.591   3.257   1.049
 6490WAT     H219990   0.614   3.227   1.196
 6491WAT      O19991   0.684   1.657   1.194
 6491WAT     H119992   0.606   1.704   1.222
 6491WAT     H219993   0.655   1.566   1.184
 6492WAT      O19994   1.139   1.727   0.999
 6492WAT     H119995   1.184   1.721   0.914
 6492WAT     H219996   1.113   1.818   1.006
 6493WAT      O19997   1.326   1.690   0.800
 6493WAT     H119998   1.320   1.596   0.785
 6493WAT     H219999   1.404   1.701   0.855
 6494WAT      O20000   0.473   1.898   0.746
 6494WAT     H120001   0.392   1.861   0.712
 6494WAT     H220002   0.523   1.823   0.776
 6495WAT      O20003   0.923   1.565   0.869
 6495WAT     H120004   0.983   1.622   0.917
 6495WAT     H220005   0.849   1.621   0.847
 6496WAT      O20006   1.237   1.605   0.397
 6496WAT     H120007   1.257   1.695   0.424
 6496WAT     H220008   1.159   1.582   0.446
 6497WAT      O20009   0.275   1.713   0.606
 6497WAT     H120010   0.212   1.643   0.623
 6497WAT     H220011   0.221   1.789   0.584
 6498WAT      O20012   0.569   3.375   1.873
 6498WAT     H120013   0.662   3.351   1.878
 6498WAT     H220014   0.568   3.458   1.825
 6499WAT      O20015   1.393   3.329   0.573
 6499WAT     H120016   1.410   3.260   0.509
 6499WAT     H220017   1.323   3.382   0.534
 6500WAT      O20018   0.288   1.641   1.850
 6500WAT     H120019   0.260   1.692   1.773
 6500WAT     H220020   0.326   1.561   1.813
 6501WAT      O20021   0.177   3.368   0.328
 6501WAT     H120022   0.250   3.340   0.274
 6501WAT     H220023   0.203   3.344   0.417
 6502WAT      O20024   0.948   1.583   1.907
 6502WAT     H120025   0.937   1.615   1.997
 6502WAT     H220026   1.030   1.623   1.878
 6503WAT      O20027   1.226   3.297   1.856
 6503WAT     H120028   1.305   3.248   1.835
 6503WAT     H220029   1.255   3.365   1.916
 6504WAT      O20030   0.839   0.507   4.576
 6504WAT     H120031   0.831   0.416   4.549
 6504WAT     H220032   0.797   0.557   4.505
 6505WAT      O20033   0.652   0.685   4.764
 6505WAT     H120034   0.574   0.637   4.793
 6505WAT     H220035   0.717   0.617   4.747
 6506WAT      O20036   1.054   1.126   4.642
 6506WAT     H120037   1.008   1.049   4.675
 6506WAT     H220038   1.135   1.128   4.693
 6507WAT      O20039   0.676   1.354   4.604
 6507WAT     H120040   0.615   1.400   4.547
 6507WAT     H220041   0.762   1.370   4.564
 6508WAT      O20042   0.596   0.953   4.765
 6508WAT     H120043   0.589   0.859   4.749
 6508WAT     H220044   0.672   0.962   4.822
 6509WAT      O20045   0.296   0.367   4.767
 6509WAT     H120046   0.347   0.417   4.831
 6509WAT     H220047   0.349   0.290   4.749
 6510WAT      O20048   1.506   0.184   5.137
 6510WAT     H120049   1.436   0.223   5.085
 6510WAT     H220050   1.533   0.254   5.197
 6511WAT      O20051   0.763   0.843   4.344
 6511WAT     H120052   0.701   0.889   4.287
 6511WAT     H220053   0.814   0.912   4.385
 6512WAT      O20054   0.249   0.795   5.011
 6512WAT     H120055   0.216   0.858   5.076
 6512WAT     H220056   0.267   0.848   4.933
 6513WAT      O20057   1.101   0.177   4.758
 6513WAT     H120058   1.030   0.206   4.816
 6513WAT     H220059   1.137   0.258   4.722
 6514WAT      O20060   1.262   1.139   4.984
 6514WAT     H120061   1.194   1.206   4.984
 6514WAT     H220062   1.316   1.158   4.908
 6515WAT      O20063   1.016   1.323   4.856
 6515WAT     H120064   1.017   1.283   4.769
 6515WAT     H220065   0.961   1.400   4.845
 6516WAT      O20066   1.145   0.995   4.365
 6516WAT     H120067   1.134   0.901   4.377
 6516WAT     H220068   1.145   1.031   4.453
 6517WAT      O20069   0.956   0.813   4.989
 6517WAT     H120070   0.998   0.792   4.905
 6517WAT     H220071   1.028   0.839   5.046
 6518WAT      O20072   0.700   0.558   4.300
 6518WAT     H120073   0.607   0.551   4.323
 6518WAT     H220074   0.715   0.652   4.289
 6519WAT      O20075   0.698   0.185   4.000
 6519WAT     H120076   0.604   0.201   4.009
 6519WAT     H220077   0.730   0.257   3.945
 6520WAT      O20078   1.350   0.653   4.998
 6520WAT     H120079   1.268   0.660   4.950
 6520WAT     H220080   1.410   0.712   4.951
 6521WAT      O20081   1.103   0.714   4.351
 6521WAT     H120082   1.041   0.680   4.286
 6521WAT     H220083   1.101   0.650   4.422
 6522WAT      O20084   1.047   0.332   5.092
 6522WAT     H120085   1.006   0.414   5.118
 6522WAT     H220086   0.974   0.273   5.073
 6523WAT      O20087   0.260   0.610   4.579
 6523WAT     H120088   0.220   0.539   4.529
 6523WAT     H220089   0.269   0.576   4.667
 6524WAT      O20090   0.307   0.979   4.795
 6524WAT     H120091   0.277   0.919   4.727
 6524WAT     H220092   0.402   0.983   4.784
 6525WAT      O20093   1.116   1.336   5.161
 6525WAT     H120094   1.068   1.417   5.142
 6525WAT     H220095   1.048   1.271   5.176
 6526WAT      O20096   0.920   0.638   4.051
 6526WAT     H120097   0.964   0.554   4.037
 6526WAT     H220098   0.992   0.701   4.060
 6527WAT      O20099   0.731   1.132   4.448
 6527WAT     H120100   0.775   1.206   4.407
 6527WAT     H220101   0.725   1.156   4.541
 6528WAT      O20102   0.279   1.234   5.538
 6528WAT     H120103   0.276   1.275   5.452
 6528WAT     H220104   0.262   1.141   5.522
 6529WAT      O20105   1.414   1.032   5.384
 6529WAT     H120106   1.427   1.008   5.292
 6529WAT     H220107   1.418   0.949   5.431
 6530WAT      O20108   0.800   1.402   5.241
 6530WAT     H120109   0.852   1.393   5.321
 6530WAT     H220110   0.716   1.437   5.270
 6531WAT      O20111   0.998   1.431   4.184
 6531WAT     H120112   0.982   1.402   4.274
 6531WAT     H220113   0.981   1.353   4.130
 6532WAT      O20114   0.246   1.409   4.362
 6532WAT     H120115   0.228   1.317   4.340
 6532WAT     H220116   0.160   1.444   4.386
 6533WAT      O20117   0.968   1.181   4.040
 6533WAT     H120118   0.899   1.181   3.974
 6533WAT     H220119   1.042   1.139   3.997
 6534WAT      O20120   0.925   1.344   4.447
 6534WAT     H120121   0.970   1.266   4.479
 6534WAT     H220122   0.959   1.415   4.502
 6535WAT      O20123   1.106   0.243   5.340
 6535WAT     H120124   1.021   0.213   5.372
 6535WAT     H220125   1.090   0.267   5.249
 6536WAT      O20126   0.815   0.393   5.550
 6536WAT     H120127   0.848   0.310   5.516
 6536WAT     H220128   0.894   0.445   5.565
 6537WAT      O20129   0.879   0.347   4.300
 6537WAT     H120130   0.819   0.420   4.281
 6537WAT     H220131   0.934   0.341   4.221
 6538WAT      O20132   0.400   0.436   5.506
 6538WAT     H120133   0.390   0.342   5.491
 6538WAT     H220134   0.484   0.459   5.467
 6539WAT      O20135   0.798   0.470   4.912
 6539WAT     H120136   0.725   0.521   4.947
 6539WAT     H220137   0.758   0.388   4.882
 6540WAT      O20138   0.448   0.238   4.052
 6540WAT     H120139   0.460   0.233   4.147
 6540WAT     H220140   0.410   0.324   4.036
 6541WAT      O20141   0.349   0.469   3.992
 6541WAT     H120142   0.293   0.424   3.929
 6541WAT     H220143   0.420   0.505   3.938
 6542WAT      O20144   0.472   0.544   4.927
 6542WAT     H120145   0.509   0.496   5.002
 6542WAT     H220146   0.453   0.631   4.961
 6543WAT      O20147   0.251   0.448   5.159
 6543WAT     H120148   0.221   0.536   5.182
 6543WAT     H220149   0.347   0.454   5.163
 6544WAT      O20150   1.180   0.768   4.798
 6544WAT     H120151   1.252   0.817   4.759
 6544WAT     H220152   1.160   0.700   4.734
 6545WAT      O20153   0.718   0.775   5.387
 6545WAT     H120154   0.711   0.683   5.361
 6545WAT     H220155   0.655   0.785   5.458
 6546WAT      O20156   0.997   0.344   4.042
 6546WAT     H120157   1.086   0.376   4.025
 6546WAT     H220158   0.994   0.257   4.003
 6547WAT      O20159   0.597   0.962   4.110
 6547WAT     H120160   0.631   1.036   4.060
 6547WAT     H220161   0.514   0.993   4.146
 6548WAT      O20162   0.177   0.577   5.562
 6548WAT     H120163   0.147   0.592   5.473
 6548WAT     H220164   0.254   0.522   5.553
 6549WAT      O20165   0.711   1.057   5.362
 6549WAT     H120166   0.713   0.964   5.340
 6549WAT     H220167   0.640   1.066   5.426
 6550WAT      O20168   1.224   0.476   3.989
 6550WAT     H120169   1.216   0.519   3.904
 6550WAT     H220170   1.296   0.522   4.032
 6551WAT      O20171   1.332   0.721   5.297
 6551WAT     H120172   1.260   0.781   5.277
 6551WAT     H220173   1.385   0.720   5.217
 6552WAT      O20174   1.327   1.161   4.262
 6552WAT     H120175   1.263   1.096   4.289
 6552WAT     H220176   1.289   1.202   4.184
 6553WAT      O20177   0.885   0.894   4.646
 6553WAT     H120178   0.920   0.834   4.580
 6553WAT     H220179   0.797   0.861   4.663
 6554WAT      O20180   0.494   0.970   4.387
 6554WAT     H120181   0.563   1.024   4.425
 6554WAT     H220182   0.415   1.024   4.391
 6555WAT      O20183   0.424   0.670   4.348
 6555WAT     H120184   0.470   0.751   4.371
 6555WAT     H220185   0.389   0.638   4.431
 6556WAT      O20186   0.654   1.221   5.071
 6556WAT     H120187   0.719   1.242   5.139
 6556WAT     H220188   0.691   1.145   5.026
 6557WAT      O20189   0.782   1.022   4.943
 6557WAT     H120190   0.846   0.952   4.954
 6557WAT     H220191   0.834   1.100   4.925
 6558WAT      O20192   1.166   1.050   3.915
 6558WAT     H120193   1.144   0.978   3.975
 6558WAT     H220194   1.127   1.025   3.832
 6559WAT      O20195   0.959   1.102   5.263
 6559WAT     H120196   0.993   1.160   5.331
 6559WAT     H220197   0.867   1.089   5.286
 6560WAT      O20198   1.124   0.842   4.082
 6560WAT     H120199   1.096   0.888   4.160
 6560WAT     H220200   1.204   0.796   4.108
 6561WAT      O20201   0.346   1.191   4.075
 6561WAT     H120202   0.345   1.264   4.013
 6561WAT     H220203   0.254   1.166   4.084
 6562WAT      O20204   0.645   1.197   3.941
 6562WAT     H120205   0.655   1.177   3.848
 6562WAT     H220206   0.555   1.172   3.961
 6563WAT      O20207   0.397   0.253   4.339
 6563WAT     H120208   0.326   0.300   4.383
 6563WAT     H220209   0.425   0.187   4.403
 6564WAT      O20210   0.560   0.395   5.139
 6564WAT     H120211   0.609   0.443   5.206
 6564WAT     H220212   0.574   0.303   5.160
 6565WAT      O20213   0.509   1.449   4.410
 6565WAT     H120214   0.534   1.445   4.318
 6565WAT     H220215   0.414   1.437   4.410
 6566WAT      O20216   1.109   0.541   4.568
 6566WAT     H120217   1.015   0.543   4.585
 6566WAT     H220218   1.141   0.463   4.612
 6567WAT      O20219   1.310   1.258   4.735
 6567WAT     H120220   1.322   1.341   4.783
 6567WAT     H220221   1.396   1.237   4.701
 6568WAT      O20222   0.368   1.385   3.885
 6568WAT     H120223   0.447   1.414   3.840
 6568WAT     H220224   0.316   1.342   3.817
 6569WAT      O20225   0.984   1.370   5.477
 6569WAT     H120226   1.079   1.361   5.472
 6569WAT     H220227   0.969   1.436   5.545
 6570WAT      O20228   1.273   1.308   4.027
 6570WAT     H120229   1.245   1.266   3.946
 6570WAT     H220230   1.253   1.400   4.015
 6571WAT      O20231   0.420   0.907   3.871
 6571WAT     H120232   0.409   0.845   3.944
 6571WAT     H220233   0.403   0.855   3.793
 6572WAT      O20234   0.435   0.775   5.469
 6572WAT     H120235   0.358   0.832   5.461
 6572WAT     H220236   0.453   0.746   5.380
 6573WAT      O20237   0.744   0.813   3.932
 6573WAT     H120238   0.689   0.858   3.996
 6573WAT     H220239   0.806   0.763   3.984
 6574WAT      O20240   1.149   0.949   5.525
 6574WAT     H120241   1.223   0.982   5.475
 6574WAT     H220242   1.073   0.965   5.470
 6575WAT      O20243   0.310   0.709   4.121
 6575WAT     H120244   0.353   0.692   4.206
 6575WAT     H220245   0.323   0.628   4.072
 6576WAT      O20246   0.562   0.611   3.846
 6576WAT     H120247   0.614   0.540   3.810
 6576WAT     H220248   0.626   0.675   3.876
 6577WAT      O20249   1.017   0.754   5.378
 6577WAT     H120250   1.058   0.769   5.463
 6577WAT     H220251   0.923   0.766   5.395
 6578WAT      O20252   0.493   0.749   5.175
 6578WAT     H120253   0.535   0.833   5.158
 6578WAT     H220254   0.401   0.763   5.153
 6579WAT      O20255   0.726   0.522   5.314
 6579WAT     H120256   0.738   0.462   5.388
 6579WAT     H220257   0.812   0.526   5.272
 6580WAT      O20258   0.960   0.577   5.171
 6580WAT     H120259   0.908   0.630   5.111
 6580WAT     H220260   0.995   0.641   5.235
 6581WAT      O20261   0.200   0.316   3.816
 6581WAT     H120262   0.180   0.230   3.852
 6581WAT     H220263   0.183   0.308   3.722
 6582WAT      O20264   0.278   1.379   5.287
 6582WAT     H120265   0.224   1.452   5.255
 6582WAT     H220266   0.303   1.332   5.208
 6583WAT      O20267   0.563   1.503   5.313
 6583WAT     H120268   0.556   1.593   5.344
 6583WAT     H220269   0.473   1.471   5.310
 6584WAT      O20270   0.618   1.420   4.075
 6584WAT     H120271   0.708   1.453   4.077
 6584WAT     H220272   0.621   1.347   4.012
 6585WAT      O20273   1.316   1.273   5.346
 6585WAT     H120274   1.256   1.278   5.271
 6585WAT     H220275   1.329   1.179   5.359
 6586WAT      O20276   1.440   1.047   3.880
 6586WAT     H120277   1.357   1.054   3.927
 6586WAT     H220278   1.458   1.136   3.849
 6587WAT      O20279   1.386   0.721   4.130
 6587WAT     H120280   1.462   0.778   4.140
 6587WAT     H220281   1.387   0.664   4.207
 6588WAT      O20282   1.486   0.807   4.614
 6588WAT     H120283   1.523   0.728   4.574
 6588WAT     H220284   1.550   0.876   4.596
 6589WAT      O20285   1.185   0.945   5.156
 6589WAT     H120286   1.103   0.988   5.182
 6589WAT     H220287   1.225   1.006   5.094
 6590WAT      O20288   1.391   0.751   3.846
 6590WAT     H120289   1.418   0.841   3.833
 6590WAT     H220290   1.372   0.744   3.939
 6591WAT      O20291   1.381   0.544   4.345
 6591WAT     H120292   1.343   0.468   4.302
 6591WAT     H220293   1.308   0.582   4.394
 6592WAT      O20294   1.320   0.459   5.308
 6592WAT     H120295   1.296   0.436   5.218
 6592WAT     H220296   1.346   0.551   5.304
 6593WAT      O20297   1.308   0.367   4.675
 6593WAT     H120298   1.360   0.317   4.612
 6593WAT     H220299   1.367   0.380   4.749
 6594WAT      O20300   1.326   0.375   5.027
 6594WAT     H120301   1.231   0.372   5.039
 6594WAT     H220302   1.344   0.466   5.004
 6595WAT      O20303   1.257   0.293   4.269
 6595WAT     H120304   1.307   0.269   4.347
 6595WAT     H220305   1.237   0.209   4.227
 6596WAT      O20306   1.190   1.420   4.508
 6596WAT     H120307   1.250   1.388   4.441
 6596WAT     H220308   1.216   1.373   4.587
 6597WAT      O20309   0.351   1.219   5.083
 6597WAT     H120310   0.327   1.246   4.995
 6597WAT     H220311   0.445   1.236   5.089
 6598WAT      O20312   1.477   1.421   5.163
 6598WAT     H120313   1.428   1.461   5.092
 6598WAT     H220314   1.416   1.358   5.203
 6599WAT      O20315   1.246   1.485   4.891
 6599WAT     H120316   1.200   1.560   4.854
 6599WAT     H220317   1.183   1.413   4.885
 6600WAT      O20318   0.289   1.316   4.809
 6600WAT     H120319   0.340   1.255   4.756
 6600WAT     H220320   0.354   1.366   4.858
 6601WAT      O20321   0.562   1.405   4.891
 6601WAT     H120322   0.591   1.380   4.804
 6601WAT     H220323   0.614   1.350   4.950
 6602WAT      O20324   1.393   1.452   4.328
 6602WAT     H120325   1.410   1.383   4.263
 6602WAT     H220326   1.323   1.504   4.289
 6603WAT      O20327   0.177   1.491   4.083
 6603WAT     H120328   0.250   1.462   4.028
 6603WAT     H220329   0.203   1.467   4.172
 6604WAT      O20330   0.839   0.507   2.699
 6604WAT     H120331   0.831   0.416   2.672
 6604WAT     H220332   0.797   0.557   2.628
 6605WAT      O20333   0.652   0.685   2.887
 6605WAT     H120334   0.574   0.637   2.916
 6605WAT     H220335   0.717   0.617   2.869
 6606WAT      O20336   1.054   1.126   2.765
 6606WAT     H120337   1.008   1.049   2.798
 6606WAT     H220338   1.135   1.128   2.815
 6607WAT      O20339   0.676   1.354   2.727
 6607WAT     H120340   0.615   1.400   2.670
 6607WAT     H220341   0.762   1.370   2.687
 6608WAT      O20342   0.596   0.953   2.887
 6608WAT     H120343   0.589   0.859   2.871
 6608WAT     H220344   0.672   0.962   2.945
 6609WAT      O20345   0.296   0.367   2.890
 6609WAT     H120346   0.347   0.417   2.954
 6609WAT     H220347   0.349   0.290   2.872
 6610WAT      O20348   1.506   0.184   3.260
 6610WAT     H120349   1.436   0.223   3.208
 6610WAT     H220350   1.533   0.254   3.320
 6611WAT      O20351   0.763   0.843   2.466
 6611WAT     H120352   0.701   0.889   2.410
 6611WAT     H220353   0.814   0.912   2.508
 6612WAT      O20354   0.249   0.795   3.134
 6612WAT     H120355   0.216   0.858   3.198
 6612WAT     H220356   0.267   0.848   3.056
 6613WAT      O20357   1.101   0.177   2.881
 6613WAT     H120358   1.030   0.206   2.939
 6613WAT     H220359   1.137   0.258   2.845
 6614WAT      O20360   1.262   1.139   3.107
 6614WAT     H120361   1.194   1.206   3.106
 6614WAT     H220362   1.316   1.158   3.030
 6615WAT      O20363   1.016   1.323   2.978
 6615WAT     H120364   1.017   1.283   2.892
 6615WAT     H220365   0.961   1.400   2.968
 6616WAT      O20366   1.145   0.995   2.487
 6616WAT     H120367   1.134   0.901   2.500
 6616WAT     H220368   1.145   1.031   2.576
 6617WAT      O20369   0.956   0.813   3.111
 6617WAT     H120370   0.998   0.792   3.028
 6617WAT     H220371   1.028   0.839   3.168
 6618WAT      O20372   0.700   0.558   2.423
 6618WAT     H120373   0.607   0.551   2.446
 6618WAT     H220374   0.715   0.652   2.411
 6619WAT      O20375   0.698   0.185   2.123
 6619WAT     H120376   0.604   0.201   2.131
 6619WAT     H220377   0.730   0.257   2.068
 6620WAT      O20378   1.350   0.653   3.120
 6620WAT     H120379   1.268   0.660   3.073
 6620WAT     H220380   1.410   0.712   3.074
 6621WAT      O20381   1.103   0.714   2.473
 6621WAT     H120382   1.041   0.680   2.409
 6621WAT     H220383   1.101   0.650   2.544
 6622WAT      O20384   1.047   0.332   3.215
 6622WAT     H120385   1.006   0.414   3.240
 6622WAT     H220386   0.974   0.273   3.196
 6623WAT      O20387   0.260   0.610   2.701
 6623WAT     H120388   0.220   0.539   2.652
 6623WAT     H220389   0.269   0.576   2.790
 6624WAT      O20390   0.307   0.979   2.918
 6624WAT     H120391   0.277   0.919   2.850
 6624WAT     H220392   0.402   0.983   2.906
 6625WAT      O20393   1.116   1.336   3.284
 6625WAT     H120394   1.068   1.417   3.264
 6625WAT     H220395   1.048   1.271   3.299
 6626WAT      O20396   0.920   0.638   2.174
 6626WAT     H120397   0.964   0.554   2.159
 6626WAT     H220398   0.992   0.701   2.183
 6627WAT      O20399   0.731   1.132   2.571
 6627WAT     H120400   0.775   1.206   2.529
 6627WAT     H220401   0.725   1.156   2.663
 6628WAT      O20402   0.279   1.234   3.661
 6628WAT     H120403   0.276   1.275   3.574
 6628WAT     H220404   0.262   1.141   3.645
 6629WAT      O20405   1.474   1.313   3.791
 6629WAT     H120406   1.521   1.360   3.859
 6629WAT     H220407   1.536   1.306   3.718
 6630WAT      O20408   1.414   1.032   3.507
 6630WAT     H120409   1.427   1.008   3.415
 6630WAT     H220410   1.418   0.949   3.554
 6631WAT      O20411   0.800   1.402   3.364
 6631WAT     H120412   0.852   1.393   3.444
 6631WAT     H220413   0.716   1.437   3.393
 6632WAT      O20414   0.998   1.431   2.306
 6632WAT     H120415   0.982   1.402   2.396
 6632WAT     H220416   0.981   1.353   2.253
 6633WAT      O20417   0.246   1.409   2.484
 6633WAT     H120418   0.228   1.317   2.463
 6633WAT     H220419   0.160   1.444   2.508
 6634WAT      O20420   0.968   1.181   2.162
 6634WAT     H120421   0.899   1.181   2.096
 6634WAT     H220422   1.042   1.139   2.119
 6635WAT      O20423   0.925   1.344   2.570
 6635WAT     H120424   0.970   1.266   2.601
 6635WAT     H220425   0.959   1.415   2.624
 6636WAT      O20426   1.106   0.243   3.463
 6636WAT     H120427   1.021   0.213   3.495
 6636WAT     H220428   1.090   0.267   3.372
 6637WAT      O20429   0.815   0.393   3.673
 6637WAT     H120430   0.848   0.310   3.639
 6637WAT     H220431   0.894   0.445   3.688
 6638WAT      O20432   0.879   0.347   2.422
 6638WAT     H120433   0.819   0.420   2.404
 6638WAT     H220434   0.934   0.341   2.344
 6639WAT      O20435   0.400   0.436   3.629
 6639WAT     H120436   0.390   0.342   3.614
 6639WAT     H220437   0.484   0.459   3.589
 6640WAT      O20438   0.798   0.470   3.035
 6640WAT     H120439   0.725   0.521   3.070
 6640WAT     H220440   0.758   0.388   3.005
 6641WAT      O20441   0.448   0.238   2.174
 6641WAT     H120442   0.460   0.233   2.269
 6641WAT     H220443   0.410   0.324   2.159
 6642WAT      O20444   0.349   0.469   2.114
 6642WAT     H120445   0.293   0.424   2.051
 6642WAT     H220446   0.420   0.505   2.061
 6643WAT      O20447   0.472   0.544   3.050
 6643WAT     H120448   0.509   0.496   3.124
 6643WAT     H220449   0.453   0.631   3.084
 6644WAT      O20450   0.251   0.448   3.282
 6644WAT     H120451   0.221   0.536   3.304
 6644WAT     H220452   0.347   0.454   3.285
 6645WAT      O20453   1.180   0.768   2.921
 6645WAT     H120454   1.252   0.817   2.882
 6645WAT     H220455   1.160   0.700   2.856
 6646WAT      O20456   0.718   0.775   3.509
 6646WAT     H120457   0.711   0.683   3.484
 6646WAT     H220458   0.655   0.785   3.581
 6647WAT      O20459   0.997   0.344   2.165
 6647WAT     H120460   1.086   0.376   2.147
 6647WAT     H220461   0.994   0.257   2.125
 6648WAT      O20462   0.597   0.962   2.232
 6648WAT     H120463   0.631   1.036   2.183
 6648WAT     H220464   0.514   0.993   2.269
 6649WAT      O20465   0.177   0.577   3.685
 6649WAT     H120466   0.147   0.592   3.595
 6649WAT     H220467   0.254   0.522   3.676
 6650WAT      O20468   0.711   1.057   3.484
 6650WAT     H120469   0.713   0.964   3.463
 6650WAT     H220470   0.640   1.066   3.548
 6651WAT      O20471   1.224   0.476   2.111
 6651WAT     H120472   1.216   0.519   2.026
 6651WAT     H220473   1.296   0.522   2.155
 6652WAT      O20474   1.332   0.721   3.419
 6652WAT     H120475   1.260   0.781   3.399
 6652WAT     H220476   1.385   0.720   3.339
 6653WAT      O20477   1.327   1.161   2.384
 6653WAT     H120478   1.263   1.096   2.412
 6653WAT     H220479   1.289   1.202   2.307
 6654WAT      O20480   0.885   0.894   2.769
 6654WAT     H120481   0.920   0.834   2.703
 6654WAT     H220482   0.797   0.861   2.786
 6655WAT      O20483   0.494   0.970   2.510
 6655WAT     H120484   0.563   1.024   2.548
 6655WAT     H220485   0.415   1.024   2.513
 6656WAT      O20486   0.424   0.670   2.471
 6656WAT     H120487   0.470   0.751   2.493
 6656WAT     H220488   0.389   0.638   2.554
 6657WAT      O20489   0.654   1.221   3.194
 6657WAT     H120490   0.719   1.242   3.262
 6657WAT     H220491   0.691   1.145   3.148
 6658WAT      O20492   0.782   1.022   3.066
 6658WAT     H120493   0.846   0.952   3.077
 6658WAT     H220494   0.834   1.100   3.048
 6659WAT      O20495   1.166   1.050   2.038
 6659WAT     H120496   1.144   0.978   2.097
 6659WAT     H220497   1.127   1.025   1.954
 6660WAT      O20498   0.959   1.102   3.386
 6660WAT     H120499   0.993   1.160   3.454
 6660WAT     H220500   0.867   1.089   3.409
 6661WAT      O20501   1.124   0.842   2.204
 6661WAT     H120502   1.096   0.888   2.283
 6661WAT     H220503   1.204   0.796   2.231
 6662WAT      O20504   0.542   1.107   3.703
 6662WAT     H120505   0.510   1.035   3.757
 6662WAT     H220506   0.475   1.174   3.710
 6663WAT      O20507   0.346   1.191   2.197
 6663WAT     H120508   0.345   1.264   2.136
 6663WAT     H220509   0.254   1.166   2.206
 6664WAT      O20510   0.645   1.197   2.063
 6664WAT     H120511   0.655   1.177   1.970
 6664WAT     H220512   0.555   1.172   2.084
 6665WAT      O20513   0.397   0.253   2.462
 6665WAT     H120514   0.326   0.300   2.506
 6665WAT     H220515   0.425   0.187   2.525
 6666WAT      O20516   0.560   0.395   3.262
 6666WAT     H120517   0.609   0.443   3.328
 6666WAT     H220518   0.574   0.303   3.282
 6667WAT      O20519   0.509   1.449   2.533
 6667WAT     H120520   0.534   1.445   2.441
 6667WAT     H220521   0.414   1.437   2.532
 6668WAT      O20522   1.109   0.541   2.690
 6668WAT     H120523   1.015   0.543   2.708
 6668WAT     H220524   1.141   0.463   2.735
 6669WAT      O20525   1.310   1.258   2.858
 6669WAT     H120526   1.322   1.341   2.905
 6669WAT     H220527   1.396   1.237   2.823
 6670WAT      O20528   0.368   1.385   2.007
 6670WAT     H120529   0.447   1.414   1.962
 6670WAT     H220530   0.316   1.342   1.940
 6671WAT      O20531   0.841   0.997   3.739
 6671WAT     H120532   0.781   0.999   3.665
 6671WAT     H220533   0.811   0.924   3.792
 6672WAT      O20534   0.984   1.370   3.600
 6672WAT     H120535   1.079   1.361   3.595
 6672WAT     H220536   0.969   1.436   3.667
 6673WAT      O20537   1.273   1.308   2.150
 6673WAT     H120538   1.245   1.266   2.068
 6673WAT     H220539   1.253   1.400   2.138
 6674WAT      O20540   0.420   0.907   1.994
 6674WAT     H120541   0.409   0.845   2.066
 6674WAT     H220542   0.403   0.855   1.915
 6675WAT      O20543   0.435   0.775   3.592
 6675WAT     H120544   0.358   0.832   3.583
 6675WAT     H220545   0.453   0.746   3.502
 6676WAT      O20546   0.744   0.813   2.054
 6676WAT     H120547   0.689   0.858   2.119
 6676WAT     H220548   0.806   0.763   2.107
 6677WAT      O20549   1.149   0.949   3.647
 6677WAT     H120550   1.223   0.982   3.597
 6677WAT     H220551   1.073   0.965   3.592
 6678WAT      O20552   0.310   0.709   2.244
 6678WAT     H120553   0.353   0.692   2.328
 6678WAT     H220554   0.323   0.628   2.194
 6679WAT      O20555   0.562   0.611   1.969
 6679WAT     H120556   0.614   0.540   1.932
 6679WAT     H220557   0.626   0.675   1.999
 6680WAT      O20558   1.017   0.754   3.501
 6680WAT     H120559   1.058   0.769   3.586
 6680WAT     H220560   0.923   0.766   3.517
 6681WAT      O20561   1.064   0.488   3.701
 6681WAT     H120562   1.122   0.412   3.693
 6681WAT     H220563   1.081   0.541   3.624
 6682WAT      O20564   0.493   0.749   3.298
 6682WAT     H120565   0.535   0.833   3.281
 6682WAT     H220566   0.401   0.763   3.275
 6683WAT      O20567   0.726   0.522   3.436
 6683WAT     H120568   0.738   0.462   3.510
 6683WAT     H220569   0.812   0.526   3.394
 6684WAT      O20570   0.960   0.577   3.294
 6684WAT     H120571   0.908   0.630   3.234
 6684WAT     H220572   0.995   0.641   3.357
 6685WAT      O20573   0.200   0.316   1.938
 6685WAT     H120574   0.180   0.230   1.975
 6685WAT     H220575   0.183   0.308   1.845
 6686WAT      O20576   0.278   1.379   3.410
 6686WAT     H120577   0.224   1.452   3.378
 6686WAT     H220578   0.303   1.332   3.331
 6687WAT      O20579   0.563   1.503   3.435
 6687WAT     H120580   0.556   1.593   3.466
 6687WAT     H220581   0.473   1.471   3.433
 6688WAT      O20582   0.618   1.420   2.198
 6688WAT     H120583   0.708   1.453   2.200
 6688WAT     H220584   0.621   1.347   2.135
 6689WAT      O20585   1.316   1.273   3.468
 6689WAT     H120586   1.256   1.278   3.394
 6689WAT     H220587   1.329   1.179   3.481
 6690WAT      O20588   1.440   1.047   2.002
 6690WAT     H120589   1.357   1.054   2.049
 6690WAT     H220590   1.458   1.136   1.972
 6691WAT      O20591   1.386   0.721   2.252
 6691WAT     H120592   1.462   0.778   2.263
 6691WAT     H220593   1.387   0.664   2.329
 6692WAT      O20594   1.486   0.807   2.737
 6692WAT     H120595   1.523   0.728   2.696
 6692WAT     H220596   1.550   0.876   2.719
 6693WAT      O20597   1.185   0.945   3.278
 6693WAT     H120598   1.103   0.988   3.304
 6693WAT     H220599   1.225   1.006   3.217
 6694WAT      O20600   1.391   0.751   1.968
 6694WAT     H120601   1.418   0.841   1.955
 6694WAT     H220602   1.372   0.744   2.062
 6695WAT      O20603   1.381   0.544   2.467
 6695WAT     H120604   1.343   0.468   2.424
 6695WAT     H220605   1.308   0.582   2.516
 6696WAT      O20606   1.320   0.459   3.431
 6696WAT     H120607   1.296   0.436   3.341
 6696WAT     H220608   1.346   0.551   3.426
 6697WAT      O20609   1.308   0.367   2.797
 6697WAT     H120610   1.360   0.317   2.734
 6697WAT     H220611   1.367   0.380   2.872
 6698WAT      O20612   1.326   0.375   3.150
 6698WAT     H120613   1.231   0.372   3.161
 6698WAT     H220614   1.344   0.466   3.126
 6699WAT      O20615   1.257   0.293   2.391
 6699WAT     H120616   1.307   0.269   2.470
 6699WAT     H220617   1.237   0.209   2.350
 6700WAT      O20618   1.190   1.420   2.631
 6700WAT     H120619   1.250   1.388   2.563
 6700WAT     H220620   1.216   1.373   2.710
 6701WAT      O20621   0.351   1.219   3.206
 6701WAT     H120622   0.327   1.246   3.117
 6701WAT     H220623   0.445   1.236   3.211
 6702WAT      O20624   1.477   1.421   3.286
 6702WAT     H120625   1.428   1.461   3.214
 6702WAT     H220626   1.416   1.358   3.325
 6703WAT      O20627   1.246   1.485   3.014
 6703WAT     H120628   1.200   1.560   2.976
 6703WAT     H220629   1.183   1.413   3.008
 6704WAT      O20630   0.289   1.316   2.931
 6704WAT     H120631   0.340   1.255   2.879
 6704WAT     H220632   0.354   1.366   2.980
 6705WAT      O20633   0.562   1.405   3.014
 6705WAT     H120634   0.591   1.380   2.926
 6705WAT     H220635   0.614   1.350   3.073
 6706WAT      O20636   0.569   1.497   3.751
 6706WAT     H120637   0.662   1.474   3.755
 6706WAT     H220638   0.568   1.580   3.703
 6707WAT      O20639   1.393   1.452   2.450
 6707WAT     H120640   1.410   1.383   2.386
 6707WAT     H220641   1.323   1.504   2.411
 6708WAT      O20642   0.177   1.491   2.206
 6708WAT     H120643   0.250   1.462   2.151
 6708WAT     H220644   0.203   1.467   2.295
 6709WAT      O20645   1.226   1.420   3.733
 6709WAT     H120646   1.305   1.371   3.712
 6709WAT     H220647   1.255   1.488   3.794
 6710WAT      O20648   0.839   0.507   0.821
 6710WAT     H120649   0.831   0.416   0.794
 6710WAT     H220650   0.797   0.557   0.751
 6711WAT      O20651   0.652   0.685   1.009
 6711WAT     H120652   0.574   0.637   1.038
 6711WAT     H220653   0.717   0.617   0.992
 6712WAT      O20654   1.054   1.126   0.887
 6712WAT     H120655   1.008   1.049   0.920
 6712WAT     H220656   1.135   1.128   0.938
 6713WAT      O20657   0.676   1.354   0.849
 6713WAT     H120658   0.615   1.400   0.792
 6713WAT     H220659   0.762   1.370   0.809
 6714WAT      O20660   0.596   0.953   1.010
 6714WAT     H120661   0.589   0.859   0.994
 6714WAT     H220662   0.672   0.962   1.067
 6715WAT      O20663   0.296   0.367   1.012
 6715WAT     H120664   0.347   0.417   1.076
 6715WAT     H220665   0.349   0.290   0.995
 6716WAT      O20666   1.506   0.184   1.382
 6716WAT     H120667   1.436   0.223   1.331
 6716WAT     H220668   1.533   0.254   1.443
 6717WAT      O20669   0.763   0.843   0.589
 6717WAT     H120670   0.701   0.889   0.532
 6717WAT     H220671   0.814   0.912   0.630
 6718WAT      O20672   0.249   0.795   1.256
 6718WAT     H120673   0.216   0.858   1.321
 6718WAT     H220674   0.267   0.848   1.179
 6719WAT      O20675   1.101   0.177   1.003
 6719WAT     H120676   1.030   0.206   1.061
 6719WAT     H220677   1.137   0.258   0.967
 6720WAT      O20678   1.262   1.139   1.230
 6720WAT     H120679   1.194   1.206   1.229
 6720WAT     H220680   1.316   1.158   1.153
 6721WAT      O20681   1.016   1.323   1.101
 6721WAT     H120682   1.017   1.283   1.014
 6721WAT     H220683   0.961   1.400   1.091
 6722WAT      O20684   1.145   0.995   0.610
 6722WAT     H120685   1.134   0.901   0.622
 6722WAT     H220686   1.145   1.031   0.699
 6723WAT      O20687   0.956   0.813   1.234
 6723WAT     H120688   0.998   0.792   1.150
 6723WAT     H220689   1.028   0.839   1.291
 6724WAT      O20690   0.700   0.558   0.546
 6724WAT     H120691   0.607   0.551   0.568
 6724WAT     H220692   0.715   0.652   0.534
 6725WAT      O20693   0.698   0.185   0.245
 6725WAT     H120694   0.604   0.201   0.254
 6725WAT     H220695   0.730   0.257   0.191
 6726WAT      O20696   1.350   0.653   1.243
 6726WAT     H120697   1.268   0.660   1.195
 6726WAT     H220698   1.410   0.712   1.196
 6727WAT      O20699   1.103   0.714   0.596
 6727WAT     H120700   1.041   0.680   0.531
 6727WAT     H220701   1.101   0.650   0.667
 6728WAT      O20702   1.047   0.332   1.338
 6728WAT     H120703   1.006   0.414   1.363
 6728WAT     H220704   0.974   0.273   1.318
 6729WAT      O20705   0.260   0.610   0.824
 6729WAT     H120706   0.220   0.539   0.774
 6729WAT     H220707   0.269   0.576   0.913
 6730WAT      O20708   0.307   0.979   1.040
 6730WAT     H120709   0.277   0.919   0.972
 6730WAT     H220710   0.402   0.983   1.029
 6731WAT      O20711   1.116   1.336   1.406
 6731WAT     H120712   1.068   1.417   1.387
 6731WAT     H220713   1.048   1.271   1.422
 6732WAT      O20714   0.920   0.638   0.297
 6732WAT     H120715   0.964   0.554   0.282
 6732WAT     H220716   0.992   0.701   0.305
 6733WAT      O20717   0.731   1.132   0.693
 6733WAT     H120718   0.775   1.206   0.652
 6733WAT     H220719   0.725   1.156   0.786
 6734WAT      O20720   0.279   1.234   1.784
 6734WAT     H120721   0.276   1.275   1.697
 6734WAT     H220722   0.262   1.141   1.767
 6735WAT      O20723   1.474   1.313   1.913
 6735WAT     H120724   1.521   1.360   1.981
 6735WAT     H220725   1.536   1.306   1.841
 6736WAT      O20726   1.414   1.032   1.629
 6736WAT     H120727   1.427   1.008   1.537
 6736WAT     H220728   1.418   0.949   1.676
 6737WAT      O20729   0.800   1.402   1.486
 6737WAT     H120730   0.852   1.393   1.566
 6737WAT     H220731   0.716   1.437   1.515
 6738WAT      O20732   0.998   1.431   0.429
 6738WAT     H120733   0.982   1.402   0.519
 6738WAT     H220734   0.981   1.353   0.375
 6739WAT      O20735   0.246   1.409   0.607
 6739WAT     H120736   0.228   1.317   0.585
 6739WAT     H220737   0.160   1.444   0.631
 6740WAT      O20738   0.968   1.181   0.285
 6740WAT     H120739   0.899   1.181   0.219
 6740WAT     H220740   1.042   1.139   0.242
 6741WAT      O20741   0.925   1.344   0.692
 6741WAT     H120742   0.970   1.266   0.724
 6741WAT     H220743   0.959   1.415   0.747
 6742WAT      O20744   1.106   0.243   1.585
 6742WAT     H120745   1.021   0.213   1.617
 6742WAT     H220746   1.090   0.267   1.494
 6743WAT      O20747   0.815   0.393   1.795
 6743WAT     H120748   0.848   0.310   1.761
 6743WAT     H220749   0.894   0.445   1.810
 6744WAT      O20750   0.879   0.347   0.545
 6744WAT     H120751   0.819   0.420   0.526
 6744WAT     H220752   0.934   0.341   0.466
 6745WAT      O20753   0.400   0.436   1.751
 6745WAT     H120754   0.390   0.342   1.736
 6745WAT     H220755   0.484   0.459   1.712
 6746WAT      O20756   0.798   0.470   1.157
 6746WAT     H120757   0.725   0.521   1.192
 6746WAT     H220758   0.758   0.388   1.127
 6747WAT      O20759   0.448   0.238   0.297
 6747WAT     H120760   0.460   0.233   0.392
 6747WAT     H220761   0.410   0.324   0.281
 6748WAT      O20762   0.349   0.469   0.237
 6748WAT     H120763   0.293   0.424   0.174
 6748WAT     H220764   0.420   0.505   0.183
 6749WAT      O20765   0.472   0.544   1.172
 6749WAT     H120766   0.509   0.496   1.247
 6749WAT     H220767   0.453   0.631   1.207
 6750WAT      O20768   0.251   0.448   1.404
 6750WAT     H120769   0.221   0.536   1.427
 6750WAT     H220770   0.347   0.454   1.408
 6751WAT      O20771   1.180   0.768   1.043
 6751WAT     H120772   1.252   0.817   1.004
 6751WAT     H220773   1.160   0.700   0.979
 6752WAT      O20774   0.718   0.775   1.632
 6752WAT     H120775   0.711   0.683   1.606
 6752WAT     H220776   0.655   0.785   1.703
 6753WAT      O20777   0.997   0.344   0.287
 6753WAT     H120778   1.086   0.376   0.270
 6753WAT     H220779   0.994   0.257   0.248
 6754WAT      O20780   0.597   0.962   0.355
 6754WAT     H120781   0.631   1.036   0.305
 6754WAT     H220782   0.514   0.993   0.391
 6755WAT      O20783   0.177   0.577   1.807
 6755WAT     H120784   0.147   0.592   1.718
 6755WAT     H220785   0.254   0.522   1.798
 6756WAT      O20786   0.711   1.057   1.607
 6756WAT     H120787   0.713   0.964   1.585
 6756WAT     H220788   0.640   1.066   1.671
 6757WAT      O20789   1.332   0.721   1.542
 6757WAT     H120790   1.260   0.781   1.522
 6757WAT     H220791   1.385   0.720   1.462
 6758WAT      O20792   1.327   1.161   0.507
 6758WAT     H120793   1.263   1.096   0.534
 6758WAT     H220794   1.289   1.202   0.429
 6759WAT      O20795   0.885   0.894   0.891
 6759WAT     H120796   0.920   0.834   0.825
 6759WAT     H220797   0.797   0.861   0.909
 6760WAT      O20798   0.494   0.970   0.632
 6760WAT     H120799   0.563   1.024   0.670
 6760WAT     H220800   0.415   1.024   0.636
 6761WAT      O20801   0.424   0.670   0.593
 6761WAT     H120802   0.470   0.751   0.616
 6761WAT     H220803   0.389   0.638   0.677
 6762WAT      O20804   0.654   1.221   1.316
 6762WAT     H120805   0.719   1.242   1.384
 6762WAT     H220806   0.691   1.145   1.271
 6763WAT      O20807   0.782   1.022   1.188
 6763WAT     H120808   0.846   0.952   1.199
 6763WAT     H220809   0.834   1.100   1.170
 6764WAT      O20810   0.959   1.102   1.508
 6764WAT     H120811   0.993   1.160   1.576
 6764WAT     H220812   0.867   1.089   1.531
 6765WAT      O20813   1.124   0.842   0.327
 6765WAT     H120814   1.096   0.888   0.405
 6765WAT     H220815   1.204   0.796   0.354
 6766WAT      O20816   0.542   1.107   1.825
 6766WAT     H120817   0.510   1.035   1.880
 6766WAT     H220818   0.475   1.174   1.833
 6767WAT      O20819   0.346   1.191   0.320
 6767WAT     H120820   0.345   1.264   0.258
 6767WAT     H220821   0.254   1.166   0.329
 6768WAT      O20822   0.397   0.253   0.584
 6768WAT     H120823   0.326   0.300   0.628
 6768WAT     H220824   0.425   0.187   0.648
 6769WAT      O20825   0.560   0.395   1.384
 6769WAT     H120826   0.609   0.443   1.451
 6769WAT     H220827   0.574   0.303   1.405
 6770WAT      O20828   0.509   1.449   0.655
 6770WAT     H120829   0.534   1.445   0.563
 6770WAT     H220830   0.414   1.437   0.655
 6771WAT      O20831   1.109   0.541   0.813
 6771WAT     H120832   1.015   0.543   0.830
 6771WAT     H220833   1.141   0.463   0.858
 6772WAT      O20834   1.310   1.258   0.981
 6772WAT     H120835   1.322   1.341   1.028
 6772WAT     H220836   1.396   1.237   0.946
 6773WAT      O20837   0.841   0.997   1.861
 6773WAT     H120838   0.781   0.999   1.787
 6773WAT     H220839   0.811   0.924   1.915
 6774WAT      O20840   0.984   1.370   1.722
 6774WAT     H120841   1.079   1.361   1.717
 6774WAT     H220842   0.969   1.436   1.790
 6775WAT      O20843   1.273   1.308   0.272
 6775WAT     H120844   1.245   1.266   0.191
 6775WAT     H220845   1.253   1.400   0.260
 6776WAT      O20846   0.435   0.775   1.714
 6776WAT     H120847   0.358   0.832   1.706
 6776WAT     H220848   0.453   0.746   1.625
 6777WAT      O20849   0.744   0.813   0.177
 6777WAT     H120850   0.689   0.858   0.241
 6777WAT     H220851   0.806   0.763   0.229
 6778WAT      O20852   1.149   0.949   1.770
 6778WAT     H120853   1.223   0.982   1.720
 6778WAT     H220854   1.073   0.965   1.715
 6779WAT      O20855   0.310   0.709   0.366
 6779WAT     H120856   0.353   0.692   0.451
 6779WAT     H220857   0.323   0.628   0.317
 6780WAT      O20858   1.017   0.754   1.624
 6780WAT     H120859   1.058   0.769   1.709
 6780WAT     H220860   0.923   0.766   1.640
 6781WAT      O20861   1.064   0.488   1.824
 6781WAT     H120862   1.122   0.412   1.815
 6781WAT     H220863   1.081   0.541   1.746
 6782WAT      O20864   0.493   0.749   1.421
 6782WAT     H120865   0.535   0.833   1.403
 6782WAT     H220866   0.401   0.763   1.398
 6783WAT      O20867   0.726   0.522   1.559
 6783WAT     H120868   0.738   0.462   1.633
 6783WAT     H220869   0.812   0.526   1.517
 6784WAT      O20870   0.960   0.577   1.417
 6784WAT     H120871   0.908   0.630   1.356
 6784WAT     H220872   0.995   0.641   1.480
 6785WAT      O20873   0.278   1.379   1.532
 6785WAT     H120874   0.224   1.452   1.500
 6785WAT     H220875   0.303   1.332   1.453
 6786WAT      O20876   0.563   1.503   1.558
 6786WAT     H120877   0.556   1.593   1.589
 6786WAT     H220878   0.473   1.471   1.555
 6787WAT      O20879   0.618   1.420   0.320
 6787WAT     H120880   0.708   1.453   0.322
 6787WAT     H220881   0.621   1.347   0.258
 6788WAT      O20882   1.316   1.273   1.591
 6788WAT     H120883   1.256   1.278   1.517
 6788WAT     H220884   1.329   1.179   1.604
 6789WAT      O20885   1.386   0.721   0.375
 6789WAT     H120886   1.462   0.778   0.386
 6789WAT     H220887   1.387   0.664   0.452
 6790WAT      O20888   1.486   0.807   0.859
 6790WAT     H120889   1.523   0.728   0.819
 6790WAT     H220890   1.550   0.876   0.842
 6791WAT      O20891   1.185   0.945   1.401
 6791WAT     H120892   1.103   0.988   1.427
 6791WAT     H220893   1.225   1.006   1.339
 6792WAT      O20894   1.381   0.544   0.590
 6792WAT     H120895   1.343   0.468   0.547
 6792WAT     H220896   1.308   0.582   0.639
 6793WAT      O20897   1.320   0.459   1.553
 6793WAT     H120898   1.296   0.436   1.463
 6793WAT     H220899   1.346   0.551   1.549
 6794WAT      O20900   1.308   0.367   0.920
 6794WAT     H120901   1.360   0.317   0.857
 6794WAT     H220902   1.367   0.380   0.995
 6795WAT      O20903   1.326   0.375   1.272
 6795WAT     H120904   1.231   0.372   1.284
 6795WAT     H220905   1.344   0.466   1.249
 6796WAT      O20906   1.257   0.293   0.514
 6796WAT     H120907   1.307   0.269   0.592
 6796WAT     H220908   1.237   0.209   0.472
 6797WAT      O20909   1.190   1.420   0.753
 6797WAT     H120910   1.250   1.388   0.686
 6797WAT     H220911   1.216   1.373   0.833
 6798WAT      O20912   0.351   1.219   1.328
 6798WAT     H120913   0.327   1.246   1.240
 6798WAT     H220914   0.445   1.236   1.334
 6799WAT      O20915   1.477   1.421   1.408
 6799WAT     H120916   1.428   1.461   1.337
 6799WAT     H220917   1.416   1.358   1.448
 6800WAT      O20918   1.246   1.485   1.136
 6800WAT     H120919   1.200   1.560   1.099
 6800WAT     H220920   1.183   1.413   1.131
 6801WAT      O20921   0.289   1.316   1.054
 6801WAT     H120922   0.340   1.255   1.001
 6801WAT     H220923   0.354   1.366   1.103
 6802WAT      O20924   0.562   1.405   1.137
 6802WAT     H120925   0.591   1.380   1.049
 6802WAT     H220926   0.614   1.350   1.196
 6803WAT      O20927   0.569   1.497   1.873
 6803WAT     H120928   0.662   1.474   1.878
 6803WAT     H220929   0.568   1.580   1.825
 6804WAT      O20930   1.393   1.452   0.573
 6804WAT     H120931   1.410   1.383   0.509
 6804WAT     H220932   1.323   1.504   0.534
 6805WAT      O20933   0.177   1.491   0.328
 6805WAT     H120934   0.250   1.462   0.274
 6805WAT     H220935   0.203   1.467   0.417
 6806WAT      O20936   1.226   1.420   1.856
 6806WAT     H120937   1.305   1.371   1.835
 6806WAT     H220938   1.255   1.488   1.916
   6.76829   6.80598   5.73910
