default_name
 21742
  51.7589077  29.6151383  31.5490659  52.6389077  29.1891383  31.0720659
  51.8589077  29.8781383  32.6020659  47.0399077  33.6391383  28.9690659
  47.9239077  33.1011383  29.6160659  47.7439077  31.9831383  30.6310659
  46.9619077  32.2571383  31.3480659  49.1019077  31.8551383  31.3570659
  49.3479077  30.3301383  31.5410659  50.6079077  29.8001383  30.8860659
  48.0879077  29.6241383  30.9820659  47.4549077  30.6101383  29.9840659
  45.9709077  30.4831383  29.6610659  49.0449077  32.3491383  32.3370659
  49.2759077  33.4231383  29.5950659  49.7429077  34.6961383  29.0000659
  50.3569077  34.6121383  27.5820659  49.6239077  33.7071383  26.5520659
  49.8939077  32.1941383  26.7080659  51.3149077  31.9991383  26.6390659
  51.8909077  31.0851383  27.5970659  53.3459077  31.5591383  27.8480659
  53.3269077  32.7571383  28.6370659  54.2119077  30.4811383  28.5560659
  55.7189077  30.8221383  28.5570659  55.9709077  31.9691383  29.3710659
  54.0699077  29.2251383  27.8640659  52.7379077  28.6971383  27.8450659
  52.7559077  27.4371383  27.2000659  51.8409077  29.6461383  27.0260659
  50.4969077  29.1391383  27.0390659  50.0609077  32.6811383  30.4810659
  51.2749077  32.7621383  30.5810659  49.4089077  30.1181383  32.6170659
  50.5169077  29.5151383  29.8390659  47.3879077  29.4221383  31.8030659
  48.3499077  28.6691383  30.5110659  48.0229077  30.5521383  29.0450659
  45.5379077  31.4311383  29.3370659  50.4809077  35.1481383  29.6760659
  48.8899077  35.3851383  28.9620659  50.3899077  35.6311383  27.1790659
  51.4029077  34.3031383  27.6670659  48.5449077  33.8951383  26.5950659
  49.9469077  34.0021383  25.5460659  49.3909077  31.6511383  25.9020659
  49.4839077  31.8261383  27.6540659  51.3519077  31.1141383  28.5500659
  53.8059077  31.7641383  26.8700659  52.6649077  32.6571383  29.3590659
  53.8809077  30.3711383  29.5960659  56.2789077  29.9591383  28.9400659
  56.0519077  30.9991383  27.5260659  55.2539077  32.6101383  29.1780659
  52.3569077  28.5881383  28.8670659  51.8149077  27.2791383  27.0000659
  52.2479077  29.6661383  26.0040659  50.1269077  29.2791383  26.1290659
  41.0219077  28.3641383  30.8040659  42.1769077  28.2001383  31.1670659
  43.1369077  27.1001383  30.7030659  42.8359077  26.1501383  31.1630659
  44.5149077  27.5371383  31.2750659  45.3639077  27.9701383  30.0590659
  45.1299077  29.4331383  29.7010659  44.8189077  27.0701383  28.9340659
  43.2899077  26.9911383  29.1620659  42.6109077  25.7621383  28.5690659
  44.9929077  26.7041383  31.8050659  42.8619077  28.9961383  32.0830659
  42.1629077  29.9251383  32.9940659  41.7219077  31.2631383  32.3570659
  42.7689077  32.0121383  31.4930659  44.1369077  32.3021383  32.1410659
  43.9409077  32.7341383  33.4950659  45.1239077  33.1941383  34.1900659
  45.9109077  32.0071383  34.8170659  46.5629077  31.2441383  33.7980659
  46.9799077  32.5221383  35.8260659  47.6829077  31.3911383  36.6090659
  48.5419077  30.6501383  35.7380659  46.3419077  33.3781383  36.7950659
  45.7529077  34.5641383  36.2420659  45.1879077  35.3321383  37.2850659
  44.6119077  34.1431383  35.2950659  44.0329077  35.3021383  34.6880659
  44.2009077  28.6581383  32.2610659  44.9709077  29.1511383  33.0700659
  46.4189077  27.7441383  30.2260659  44.1029077  29.6381383  29.4140659
  45.2609077  26.0701383  29.0290659  45.0839077  27.4671383  27.9470659
  42.8269077  27.8781383  28.7170659  42.0469077  25.1611383  29.2830659
  42.8199077  30.1491383  33.8440659  41.2789077  29.4151383  33.3990659
  40.8509077  31.0601383  31.7220659  41.3689077  31.9271383  33.1550659
  42.9489077  31.4351383  30.5830659  42.3309077  32.9641383  31.1710659
  44.6509077  33.0751383  31.5550659  44.7459077  31.3971383  32.1010659
  45.7849077  33.7631383  33.5220659  45.2019077  31.3771383  35.3750659
  45.9419077  30.5261383  33.5200659  47.7479077  33.0931383  35.2860659
  48.2699077  31.8321383  37.4260659  46.9279077  30.7341383  37.0620659
  48.0419077  30.5221383  34.9070659  46.5079077  35.1531383  35.7040659
  44.5579077  35.9061383  36.8070659  43.8669077  33.6041383  35.9000659
  43.4109077  34.9701383  34.0110659  45.1269077  22.9591383  23.1100659
  45.0439077  23.6141383  24.1370659  44.6849077  25.0951383  24.2440659
  45.4449077  25.6891383  23.7280659  44.6979077  25.4191383  25.7560659
  43.3229077  26.0501383  26.1190659  42.6229077  25.3631383  27.2820659
  42.4579077  26.0571383  24.8330659  43.2739077  25.3911383  23.7020659
  43.3329077  26.1441383  22.3810659  45.5129077  26.1221383  25.9750659
  45.2119077  23.1331383  25.4270659  45.7539077  21.7861383  25.7030659
  44.7819077  20.6141383  25.4220659  43.2979077  20.8161383  25.8260659
  43.0279077  21.2301383  27.2880659  43.8319077  20.4221383  28.1620659
  43.5669077  20.5591383  29.5770659  44.3259077  21.7731383  30.1830659
  43.7309077  22.9981383  29.7440659  44.2959077  21.7281383  31.7400659
  45.1769077  22.8131383  32.4000659  44.6309077  24.1071383  32.1280659
  44.7799077  20.4471383  32.1900659  43.9889077  19.3301383  31.7600659
  44.5389077  18.1371383  32.2830659  44.0589077  19.2481383  30.2230659
  43.2539077  18.1611383  29.7550659  45.0409077  24.0841383  26.4290659
  45.1909077  23.8891383  27.6250659  43.4989077  27.0981383  26.3800659
  42.0829077  24.4551383  27.0160659  42.1699077  27.0821383  24.5710659
  41.5189077  25.5091383  24.9850659  42.7849077  24.4261383  23.5030659
  43.0479077  25.5251383  21.5300659  46.0509077  21.7361383  26.7580659
  46.6669077  21.6471383  25.1120659  44.8049077  20.4051383  24.3460659
  45.1729077  19.7131383  25.9100659  42.8449077  21.5651383  25.1650659
  42.7619077  19.8791383  25.6300659  41.9609077  21.0961383  27.5060659
  43.2609077  22.2911383  27.4070659  42.4899077  20.6641383  29.7720659
  45.3779077  21.7201383  29.8620659  44.2049077  23.2771383  28.9220659
  43.2619077  21.8671383  32.0860659  45.2149077  22.6371383  33.4840659
  46.2019077  22.7341383  32.0130659  44.2529077  24.0381383  31.2250659
  42.9489077  19.4441383  32.0950659  44.1849077  17.4621383  31.6710659
  45.1149077  19.1001383  29.9490659  43.2269077  18.2541383  28.7810659
  46.0269077  30.3341383  19.4540659  46.0249077  29.7681383  20.5330659
  45.3189077  30.2431383  21.8010659  45.8059077  31.1551383  22.1460659
  45.5519077  29.1021383  22.8250659  44.1609077  28.4931383  23.1170659
  43.7299077  27.4071383  22.1310659  43.2559077  29.7291383  22.9480659
  43.7919077  30.4531383  21.6880659  43.4349077  31.9171383  21.4180659
  45.9839077  29.5131383  23.7470659  46.7139077  28.5991383  20.8490659
  47.7389077  28.0161383  19.9570659  47.1819077  27.1371383  18.8130659
  46.0299077  26.1581383  19.1660659  46.2769077  25.1461383  20.3090659
  47.5999077  24.5991383  20.1870659  47.8429077  23.4431383  21.0190659
  48.6279077  23.8221383  22.3030659  47.8439077  24.6571383  23.1600659
  49.0169077  22.5211383  23.0640659  49.8559077  22.7651383  24.3370659
  49.0349077  23.3561383  25.3490659  49.7919077  21.6821383  22.1810659
  49.0799077  21.2311383  21.0170659  49.9309077  20.4241383  20.2280659
  48.6779077  22.4591383  20.1750659  47.9159077  22.0441383  19.0380659
  46.5639077  28.1771383  22.1660659  47.1799077  27.2771383  22.7100659
  44.1359077  28.1301383  24.1510659  43.7239077  27.7211383  21.0890659
  43.4139077  30.3541383  23.8330659  42.1929077  29.4651383  22.8700659
  43.4409077  29.8901383  20.8130659  43.8379077  32.2501383  20.4600659
  48.4229077  27.4041383  20.5590659  48.3349077  28.8301383  19.5250659
  46.8159077  27.8061383  18.0240659  48.0129077  26.5761383  18.3690659
  45.1279077  26.7351383  19.4010659  45.7889077  25.5901383  18.2600659
  45.5209077  24.3531383  20.2360659  46.1419077  25.6261383  21.2810659
  46.9049077  22.9441383  21.3020659  49.5559077  24.3371383  22.0120659
  47.7289077  25.5381383  22.7340659  48.1009077  21.9901383  23.3550659
  50.2569077  21.8061383  24.6920659  50.7079077  23.4141383  24.0960659
  48.5349077  24.0691383  24.8980659  48.1879077  20.6611383  21.3140659
  49.4969077  20.4601383  19.3540659  49.6039077  22.9641383  19.8620659
  47.5279077  22.8631383  18.6720659  43.5459077  36.8261383  24.6770659
  43.5649077  35.6081383  24.6370659  42.3949077  34.6801383  24.9530659
  42.1709077  34.7531383  26.0260659  42.9219077  33.2601383  24.6330659
  42.0579077  32.7061383  23.4740659  42.7459077  32.8381383  22.1260659
  40.7599077  33.5311383  23.5460659  41.1369077  34.9281383  24.0860659
  40.0469077  35.6031383  24.9030659  42.8149077  32.6291383  25.5130659
  44.6629077  34.8161383  24.3200659  46.0359077  35.3641383  24.2820659
  46.3909077  36.1431383  22.9930659  45.9769077  35.4941383  21.6470659
  46.4469077  34.0451383  21.4030659  47.8079077  33.8991383  21.8390659
  48.4199077  32.6421383  21.4820659  48.9509077  31.9551383  22.7640659
  47.8539077  31.5341383  23.5800659  49.8339077  30.7251383  22.4030659
  50.5339077  30.0971383  23.6270659  49.5589077  29.5121383  24.4970659
  50.8669077  31.1391383  21.4850659  50.3929077  31.6691383  20.2370659
  51.4989077  32.0211383  19.4320659  49.5869077  32.9511383  20.5230659
  49.0799077  33.4841383  19.2950659  44.4129077  33.4461383  24.3480659
  45.2459077  32.5591383  24.2410659  41.7689077  31.6721383  23.6600659
  42.6529077  33.8331383  21.6900659  40.0909077  33.0271383  24.2560659
  40.2399077  33.5831383  22.5830659  41.4199077  35.5761383  23.2440659
  40.4079077  36.4021383  25.5540659  46.7509077  34.5401383  24.3960659
  46.1709077  36.0261383  25.1470659  45.9139077  37.1291383  23.0480659
  47.4719077  36.3311383  22.9880659  44.8839077  35.5251383  21.5540659
  46.3639077  36.1221383  20.8350659  46.3459077  33.8131383  20.3350659
  45.7959077  33.3601383  21.9520659  47.7149077  31.9721383  20.9690659
  49.5799077  32.6771383  23.3080659  47.2279077  32.2841383  23.6870659
  49.2139077  29.9541383  21.9260659  51.2449077  29.3321383  23.2830659
  51.1099077  30.8741383  24.1490659  48.7429077  30.0491383  24.3740659
  49.7689077  30.9301383  19.7160659  51.1059077  32.6571383  18.8030659
  50.2649077  33.6681383  21.0110659  48.4989077  34.2321383  19.5350659
  33.5689077  35.6531383  23.7300659  34.6809077  36.0391383  24.0410659
  35.2969077  35.9971383  25.4390659  34.6419077  36.5011383  26.1610659
  36.6519077  36.7481383  25.3000659  37.7569077  35.8501383  25.9190659
  38.7489077  35.2591383  24.9370659  37.0049077  34.7041383  26.6150659
  35.6539077  34.5671383  25.8980659  34.6259077  33.8611383  26.7620659
  36.5959077  37.7111383  25.8240659  35.6249077  36.5911383  23.1810659
  35.3089077  36.9331383  21.7750659  35.2569077  35.7471383  20.7770659
  36.2099077  34.5471383  21.0200659  37.7059077  34.8681383  21.2180659
  38.1399077  35.8141383  20.2270659  39.4429077  36.3841383  20.4870659
  39.4379077  37.8671383  20.0350659  38.5249077  38.6281383  20.8340659
  40.8699077  38.4831383  20.1160659  40.9659077  39.8771383  19.4550659
  40.1989077  40.8311383  20.1920659  41.8099077  37.6271383  19.4250659
  41.8849077  36.2821383  19.9170659  42.8489077  35.5571383  19.1800659
  40.5139077  35.6231383  19.6740659  40.5649077  34.2371383  20.0250659
  36.7929077  37.0311383  23.8040659  37.7369077  37.5811383  23.2570659
  38.3099077  36.4281383  26.6720659  38.3539077  34.4661383  24.3050659
  36.8669077  34.9631383  27.6720659  37.5519077  33.7561383  26.5660659
  35.8269077  33.9561383  25.0000659  34.1849077  32.9751383  26.3040659
  36.0629077  37.6421383  21.4130659  34.3459077  37.4611383  21.7520659
  34.2329077  35.3531383  20.7820659  35.4199077  36.1401383  19.7660659
  35.8599077  33.9901383  21.8980659  36.1149077  33.8611383  20.1710659
  38.2799077  33.9361383  21.1600659  37.8509077  35.2751383  22.2210659
  39.6919077  36.3461383  21.5570659  39.1179077  37.9031383  18.9830659
  38.3679077  38.1601383  21.6860659  41.1689077  38.5781383  21.1690659
  42.0199077  40.1861383  19.4240659  40.6099077  39.8131383  18.4180659
  39.3649077  40.3811383  20.4450659  42.1429077  36.2761383  20.9850659
  42.4619077  34.6591383  19.1710659  40.2819077  35.7391383  18.6040659
  39.6849077  33.8741383  19.8020659  36.0509077  34.7271383  32.3210659
  35.6829077  33.9041383  31.5000659  34.2469077  33.4421383  31.2700659
  33.9499077  32.8241383  32.1250659  34.3119077  32.5641383  30.0000659
  33.4699077  33.3011383  28.9260659  34.3379077  34.1701383  28.0370659
  32.4689077  34.1441383  29.7460659  33.2349077  34.5831383  31.0130659
  32.3779077  34.8301383  32.2440659  33.8759077  31.5781383  30.2100659
  36.5129077  33.1701383  30.6570659  37.8269077  32.7001383  31.1650659
  38.9809077  33.7271383  31.1180659  39.2829077  34.3441383  29.7370659
  39.3829077  33.3621383  28.5580659  40.3409077  32.3331383  28.8300659
  40.6119077  31.4851383  27.6900659  39.6309077  30.2781383  27.6190659
  38.3469077  30.7201383  27.1580659  40.1339077  29.1821383  26.6230659
  39.3979077  27.8361383  26.7970659  38.0999077  27.9141383  26.2060659
  41.5449077  28.9171383  26.7800659  42.3849077  30.0661383  26.6620659
  43.7439077  29.6851383  26.7360659  42.0519077  30.9771383  27.8540659
  42.9579077  32.0831383  27.9240659  35.8129077  32.3971383  29.7240659
  36.3209077  31.6451383  28.9050659  32.9299077  32.5661383  28.3120659
  34.7909077  35.0361383  28.5180659  31.6199077  33.5071383  30.0270659
  32.0789077  34.9981383  29.1770659  33.8059077  35.4881383  30.7780659
  32.8989077  34.6671383  33.1900659  38.1329077  31.8081383  30.6040659
  37.6919077  32.3831383  32.2070659  38.7619077  34.5421383  31.8190659
  39.8879077  33.2451383  31.4920659  38.4879077  35.0541383  29.4990659
  40.2089077  34.9271383  29.8010659  39.6689077  33.9281383  27.6620659
  38.3969077  32.9251383  28.3860659  40.5519077  32.0551383  26.7520659
  39.5599077  29.8251383  28.6210659  37.8059077  31.0381383  27.9170659
  39.9599077  29.5321383  25.5960659  39.9799077  27.0421383  26.3110659
  39.3309077  27.5861383  27.8650659  37.7059077  28.7631383  26.4920659
  42.1919077  30.5761383  25.7120659  44.1769077  30.4931383  27.0830659
  42.0929077  30.3661383  28.7680659  42.5789077  32.6951383  28.5890659
  28.6609077  39.6411383  33.2490659  29.4409077  38.7461383  33.5260659
  29.0889077  37.4061383  34.1660659  28.6439077  37.5851383  35.1540659
  30.4409077  36.6601383  34.3170659  30.3059077  35.2991383  33.5780659
  31.0839077  35.1911383  32.2750659  28.7909077  35.1141383  33.3560659
  28.1829077  36.5251383  33.2790659  26.7239077  36.5551383  33.6940659
  30.6509077  36.4931383  35.3810659  30.8149077  38.7681383  33.3240659
  31.5229077  40.0051383  32.9300659  31.4159077  40.3751383  31.4300659
  31.5419077  39.2151383  30.4060659  32.7539077  38.2761383  30.5710659
  33.9129077  39.0501383  30.9270659  35.0949077  38.2781383  31.2260659
  35.8539077  38.9541383  32.3960659  35.0909077  38.8681383  33.6050659
  37.2539077  38.2971383  32.6030659  38.1379077  39.0571383  33.6180659
  37.5989077  38.9321383  34.9350659  37.9709077  38.2851383  31.3470659
  37.3199077  37.5601383  30.2960659  38.1009077  37.6191383  29.1210659
  35.9979077  38.2771383  29.9740659  35.3559077  37.6561383  28.8540659
  31.4879077  37.6321383  33.7720659  32.6989077  37.4751383  33.7910659
  30.6609077  34.5011383  34.2470659  30.5269077  35.3751383  31.3570659
  28.3739077  34.5881383  34.2210659  28.5579077  34.5191383  32.4630659
  28.2699077  36.8711383  32.2390659  26.0419077  36.9301383  32.9300659
  32.5839077  39.8991383  33.1840659  31.1359077  40.8381383  33.5310659
  30.4449077  40.8581383  31.2660659  32.1729077  41.1371383  31.2070659
  30.6289077  38.6081383  30.4400659  31.5759077  39.6531383  29.4010659
  32.9059077  37.7181383  29.6400659  32.5329077  37.5421383  31.3500659
  34.8549077  37.2491383  31.5240659  36.0139077  40.0111383  32.1380659
  34.2949077  38.3071383  33.4570659  37.1239077  37.2651383  32.9600659
  39.1549077  38.6421383  33.5890659  38.2029077  40.1131383  33.3250659
  36.6259077  39.0121383  34.8430659  37.1399077  36.5191383  30.5970659
  37.3969077  37.6721383  28.4460659  36.2469077  39.3241383  29.7400659
  34.5059077  38.1321383  28.7600659  24.0219077  32.7801383  38.5230659
  24.2739077  33.3091383  37.4530659  23.8179077  34.6881383  36.9990659
  22.7409077  34.7841383  37.1370659  24.1679077  34.7621383  35.4930659
  24.7799077  36.1711383  35.2530659  26.2499077  36.1491383  34.8840659
  24.5509077  36.9361383  36.5740659  24.5479077  35.8631383  37.6810659
  23.9469077  36.1771383  39.0510659  23.2539077  34.6291383  34.8980659
  24.9979077  32.7451383  36.4100659  25.2549077  31.2881383  36.3540659
  26.3749077  30.7701383  37.2880659  27.6439077  31.6501383  37.4180659
  28.2759077  32.1391383  36.1000659  28.3379077  31.0481383  35.1650659
  28.8339077  31.4051383  33.8570659  28.0299077  30.6291383  32.7850659
  26.6749077  31.0941383  32.7440659  28.6729077  30.7941383  31.3750659
  28.0399077  29.8711383  30.3100659  26.7349077  30.3421383  29.9710659
  30.0829077  30.4781383  31.4350659  30.8439077  31.2881383  32.3410659
  32.1979077  30.8891383  32.3100659  30.3269077  31.0231383  33.7670659
  31.1159077  31.7651383  34.7050659  25.0659077  33.5391383  35.2620659
  25.6779077  33.2581383  34.2420659  24.2159077  36.6701383  34.4510659
  26.9229077  35.7701383  35.6520659  23.5659077  37.4151383  36.5140659
  25.3119077  37.7101383  36.7400659  25.5919077  35.5571383  37.8400659
  23.9879077  35.3091383  39.7110659  25.5199077  31.0181383  35.3250659
  24.3229077  30.7591383  36.5890659  25.9529077  30.6441383  38.2930659
  26.6639077  29.7651383  36.9560659  27.4049077  32.5281383  38.0310659
  28.3969077  31.0841383  37.9790659  29.2709077  32.5481383  36.3100659
  27.6689077  32.9541383  35.6960659  28.7189077  32.4751383  33.6610659
  28.0479077  29.5611383  33.0470659  26.5369077  31.8011383  33.4140659
  28.5499077  31.8331383  31.0410659  28.6769077  29.8651383  29.4150659
  27.9949077  28.8431383  30.6930659  26.2799077  30.5441383  30.8160659
  30.7529077  32.3521383  32.0830659  32.4649077  31.0671383  33.2340659
  30.4169077  29.9411383  33.9520659  30.7879077  31.5141383  35.5910659
  18.9699077  39.0021383  40.7640659  19.8059077  38.7681383  39.9090659
  20.9679077  39.6741383  39.5070659  20.5739077  40.6101383  39.0890659
  21.7389077  38.8831383  38.4150659  23.1829077  38.6691383  38.9510659
  23.3869077  37.2921383  39.5710659  23.3469077  39.7751383  40.0140659
  21.9569077  39.9431383  40.6630659  21.6949077  41.2741383  41.3480659
  21.7579077  39.4621383  37.4830659  19.8759077  37.6221383  39.1280659
  18.8149077  36.5911383  39.1520659  18.8689077  35.6421383  40.3740659
  20.2449077  35.0061383  40.7000659  20.8979077  34.1841383  39.5700659
  19.9319077  33.2661383  39.0410659  20.4389077  32.3711383  38.0280659
  19.9169077  32.8071383  36.6350659  20.5219077  34.0441383  36.2440659
  20.2279077  31.7131383  35.5710659  19.6069077  32.0051383  34.1870659
  20.2569077  33.1281383  33.5860659  19.6899077  30.4531383  36.0240659
  20.2519077  29.9661383  37.2520659  19.6569077  28.7271383  37.5790659
  19.9139077  30.9641383  38.3760659  20.5029077  30.5251383  39.6040659
  20.9089077  37.6141383  38.1930659  21.0769077  36.7761383  37.3210659
  23.9179077  38.8601383  38.1660659  23.0309077  37.2241383  40.5980659
  23.6339077  40.7051383  39.5040659  24.1259077  39.5401383  40.7520659
  21.8299077  39.1471383  41.4110659  20.6679077  41.4031383  41.6970659
  18.8809077  35.9891383  38.2380659  17.8399077  37.0951383  39.1370659
  18.5429077  36.2041383  41.2580659  18.1259077  34.8471383  40.2330659
  20.9429077  35.7931383  41.0080659  20.1219077  34.3531383  41.5720659
  21.7659077  33.6461383  39.9740659  21.2589077  34.8571383  38.7900659
  21.5379077  32.3391383  38.0220659  18.8239077  32.9171383  36.6950659
  20.3439077  34.7191383  36.9310659  21.3149077  31.6211383  35.4470659
  19.7229077  31.1191383  33.5480659  18.5319077  32.1931383  34.3010659
  20.3609077  33.7951383  34.2970659  21.3399077  29.8481383  37.1550659
  19.8279077  28.6601383  38.5380659  18.8169077  31.0081383  38.4620659
  20.4149077  31.2721383  40.2290659  22.5849077  42.2601383  41.5510659
  23.6269077  42.1931383  41.2440659  22.2919077  43.1791383  42.0580659
  68.0260280  57.8485620  56.6028480  67.9454330  56.9340230  56.3320190
  67.6124700  58.3452690  55.8968190  58.5836100  54.8986340  53.1455900
  57.6952800  55.2402310  53.0435780  58.8677290  54.6986660  52.2536730
  60.7597490  53.4817840  54.1794280  60.8664240  54.3821570  54.4863040
  59.8489850  53.4335810  53.8888930  70.4116600  52.6042650  55.6505180
  71.2326220  52.1139220  55.6930660  70.4450680  53.1940310  56.4037020
  64.2484540  50.2895000  57.1097920  64.5559520  49.7341890  56.3933420
  63.3185240  50.4239460  56.9270910  66.6365300  58.3543830  53.8458040
  65.7094580  58.2881210  54.0746510  66.7890120  59.2923960  53.7313280
  66.6234380  54.6260830  50.8425200  65.6838050  54.7874790  50.9277660
  66.9417640  55.3446510  50.2961190  62.2421940  58.8808570  56.6277770
  61.8378940  58.1685820  56.1323670  62.3285060  58.5361810  57.5165810
  58.9426570  57.7753550  54.1284420  58.8224170  58.5015640  53.5165690
  58.6327460  57.0056460  53.6512330  61.4090230  51.1188620  57.5108090
  60.9658380  51.8998160  57.1792610  61.9675220  51.4418510  58.2179030
  64.5249050  50.7399320  52.3913920  63.9003230  50.7359190  53.1167230
  64.4379170  49.8730280  51.9949890  61.2004450  56.2422190  55.2389340
  60.9745370  56.0259360  56.1435960  60.4196980  56.6750650  54.8935310
  68.4302210  56.2485560  53.8379990  67.8311100  56.9721360  53.6543610
  68.9781820  56.1862340  53.0556440  67.0367080  54.8849100  55.8683270
  67.4296650  55.2021300  55.0551960  67.3983930  54.0060980  55.9827790
  56.2601480  55.4170020  49.3016190  56.1776150  56.3600780  49.4431180
  55.9084540  55.2744930  48.4228540  64.0599610  54.1509050  58.3686540
  64.0635670  53.7099000  57.5191080  64.9550730  54.4726380  58.4758360
  59.9101990  54.0335540  57.3280750  59.5702040  54.5110770  58.0847800
  59.1479310  53.5800660  56.9681850  64.1219760  55.1521130  51.3593300
  64.2432580  55.1107610  52.3079120  63.7368270  56.0145280  51.2040030
  63.1341260  57.4622270  50.7576600  62.5658160  57.0140520  50.1312510
  63.8430260  57.8215050  50.2241750  57.2248070  52.9554520  56.2445420
  56.9394990  52.5910190  57.0824040  57.1626930  52.2234980  55.6308560
  66.8986660  51.8483780  52.9658790  66.0851270  51.3496950  52.8904100
  66.7048610  52.6882030  52.5495140  69.6135050  56.2203430  51.2620950
  70.5014670  56.5320660  51.0872290  69.5840140  55.3475680  50.8701530
  71.8849320  57.5315270  50.7300810  71.8013040  57.9629490  49.8797250
  72.6043510  57.9913620  51.1627630  56.7178730  58.0913470  50.2042120
  57.5873580  58.3738270  50.4878040  56.2269050  58.9049340  50.0890930
  59.7825320  49.8224330  54.7972920  59.6539950  49.8142230  55.7457840
  58.9587340  50.1607420  54.4463930  71.6420060  53.0294700  52.8168630
  71.0133220  53.1340370  52.1026860  71.1471980  53.2491480  53.6062510
  63.6104090  55.3080650  54.2326510  62.9020240  55.7766990  54.6740120
  63.8948570  54.6502660  54.8671700  67.6419520  52.0331310  55.6722300
  67.5187300  52.0517440  54.7231810  68.5904080  52.0810250  55.7920700
  61.8139110  53.6165730  51.6077220  62.6629640  54.0535880  51.5417410
  61.4470380  53.9285990  52.4349280  70.7348890  58.1878490  56.5208790
  69.7939030  58.2028720  56.6956480  71.0492960  57.4014450  56.9669090
  59.4077290  57.3023160  50.7645640  59.4880880  56.3550670  50.8763040
  60.2997040  57.6330040  50.8706300  65.2577200  58.8900830  49.3032490
  65.7782860  58.1749850  48.9373640  65.9045600  59.5286700  49.6033000
  61.6408460  55.9396450  49.0013550  61.4397520  55.0763810  49.3626890
  61.4700510  55.8529810  48.0635150  69.1196770  50.7504680  51.5300430
  69.3999060  49.9072580  51.8859850  68.3462500  50.9827790  52.0439180
  60.4391260  53.0397070  48.9891430  60.7417160  53.0464500  48.0810580
  61.1785850  52.6894930  49.4859090  63.6576190  51.9831690  49.9747630
  63.3098190  51.3055680  49.3950080  63.8588960  51.5221200  50.7891020
  56.9981830  58.5119340  56.3712000  56.3430670  58.2430980  55.7271700
  57.8359780  58.4023820  55.9213980  69.9472270  53.3060630  50.5930490
  70.3657150  53.1191610  49.7527150  69.6408330  52.4539680  50.9033420
  56.2119910  55.7218270  52.3137330  55.3083990  55.9848470  52.1388990
  56.6960530  55.9929440  51.5337290  58.7547120  54.7783810  50.2231710
  59.4638820  54.3567030  49.7378990  58.0387060  54.8459040  49.5915060
  58.4021280  50.8323140  49.2634360  59.1249410  51.3732080  49.5815580
  58.6745800  50.5586560  48.3875900  72.2112930  55.7015610  53.5305940
  72.7072050  55.4686480  54.3154820  72.0129000  54.8627450  53.1143580
  71.0348780  51.2692020  58.3805300  71.4756870  51.2137120  57.5326900
  70.7656370  52.1850030  58.4515480  57.8268120  50.8716400  52.8569930
  58.5847480  50.9845280  52.2833960  57.3645290  51.7085600  52.8113360
  64.3681930  52.9855670  55.8472240  63.5556440  52.6112560  55.5068120
  64.8723570  52.2300750  56.1493430  68.8706910  49.6498120  57.0855310
  69.4736280  50.2218330  57.5603830  68.1299900  50.2137560  56.8629210
  72.0141510  50.0519680  52.3595590  72.2092140  50.9503130  52.6263020
  71.2271380  49.8206760  52.8528540  60.1993270  51.3980450  51.3971900
  60.7286030  50.6110250  51.2679850  60.8321590  52.0771640  51.6307430
  62.3931110  51.1355590  54.4517290  61.7633850  50.4342900  54.6187420
  61.8536250  51.8959720  54.2350450  68.0260280  57.8485620  37.8284990
  67.9454330  56.9340230  37.5576700  67.6124700  58.3452690  37.1224700
  66.1578320  59.6264640  39.7094260  65.3820420  59.1465080  39.9992830
  66.8091250  58.9470290  39.5350420  58.5836100  54.8986340  34.3712410
  57.6952800  55.2402310  34.2692290  58.8677290  54.6986660  33.4793240
  56.5469110  57.4991990  40.2552110  57.1185220  56.7314190  40.2555750
  56.5470650  57.7980750  39.3458720  57.7893980  52.9076350  42.0421040
  57.6096820  52.0102100  42.3223800  57.3874060  53.4548220  42.7167990
  66.6292480  55.1092210  39.9433350  67.0057300  54.2364090  39.8307020
  66.5311990  55.4450910  39.0523790  60.7597490  53.4817840  35.4050790
  60.8664240  54.3821570  35.7119550  59.8489850  53.4335810  35.1145440
  70.4116600  52.6042650  36.8761690  71.2326220  52.1139220  36.9187170
  70.4450680  53.1940310  37.6293530  58.4080650  55.4036850  40.6503380
  59.0890760  55.6675220  41.2690780  58.0928700  54.5637720  40.9841390
  62.6005220  56.4504210  39.7375970  63.1083440  56.9485180  40.3780990
  63.1318460  55.6739410  39.5615330  60.8841320  51.0902770  44.0039390
  60.8859760  51.6075160  43.1985290  60.0545630  50.6132950  43.9809320
  70.6478080  54.5443030  39.6489230  69.9433650  54.8327920  40.2292340
  71.0090240  55.3543140  39.2888790  60.5656650  52.8012730  42.0109840
  60.9073460  53.6454780  41.7163710  59.6272460  52.9496470  42.1275180
  64.2484540  50.2895000  38.3354430  64.5559520  49.7341890  37.6189930
  63.3185240  50.4239460  38.1527420  66.6365300  58.3543830  35.0714550
  65.7094580  58.2881210  35.3003020  66.7890120  59.2923960  34.9569790
  66.6234380  54.6260830  32.0681710  65.6838050  54.7874790  32.1534170
  66.9417640  55.3446510  31.5217700  70.1089150  56.0948670  42.9915610
  69.6960330  56.9202380  43.2455600  69.3765100  55.5093710  42.7991970
  62.2421940  58.8808570  37.8534280  61.8378940  58.1685820  37.3580180
  62.3285060  58.5361810  38.7422320  60.9550560  55.6551780  41.6333320
  61.5065150  55.7647120  40.8586570  61.4694070  56.0289380  42.3488550
  58.9426570  57.7753550  35.3540930  58.8224170  58.5015640  34.7422200
  58.6327460  57.0056460  34.8768840  61.4090230  51.1188620  38.7364600
  60.9658380  51.8998160  38.4049120  61.9675220  51.4418510  39.4435540
  65.6960040  53.9857140  44.3399920  65.2339410  54.1940160  45.1519860
  65.2938150  53.1716490  44.0370590  70.6964550  55.2066090  45.4696580
  69.8458140  54.9071840  45.7905650  70.5366340  55.4508100  44.5580400
  67.7914260  56.7067840  47.5695370  68.1167670  55.8731590  47.2297600
  68.5794590  57.2296360  47.7173700  64.5249050  50.7399320  33.6170430
  63.9003230  50.7359190  34.3423740  64.4379170  49.8730280  33.2206400
  63.4466130  51.6635950  40.5954200  63.7438460  52.5698780  40.5146220
  63.9951690  51.1754730  39.9813770  61.2004450  56.2422190  36.4645850
  60.9745370  56.0259360  37.3692470  60.4196980  56.6750650  36.1191820
  68.4302210  56.2485560  35.0636500  67.8311100  56.9721360  34.8800120
  68.9781820  56.1862340  34.2812950  63.6403660  57.1407770  47.1306120
  63.5447260  56.2002500  46.9806520  64.4835640  57.3622840  46.7354190
  67.0367080  54.8849100  37.0939780  67.4296650  55.2021300  36.2808470
  67.3983930  54.0060980  37.2084300  58.7714200  53.5521440  45.2839900
  58.3777590  54.3996650  45.4912680  58.0832600  52.9147810  45.4748540
  65.3459250  53.6356410  48.3536640  64.6557570  53.4428610  48.9882730
  66.0891550  53.9191050  48.8860940  56.0731250  51.4749900  39.3169980
  55.7844300  52.0452760  40.0294960  56.8177010  50.9954350  39.6801210
  56.2601480  55.4170020  30.5272700  56.1776150  56.3600780  30.6687690
  55.9084540  55.2744930  29.6485050  67.6222220  57.4754850  41.1890560
  66.8903340  57.9841660  41.5380660  67.2246560  56.6584830  40.8879340
  64.0599610  54.1509050  39.5943050  64.0635670  53.7099000  38.7447590
  64.9550730  54.4726380  39.7014870  59.9101990  54.0335540  38.5537260
  59.5702040  54.5110770  39.3104310  59.1479310  53.5800660  38.1938360
  64.1219760  55.1521130  32.5849810  64.2432580  55.1107610  33.5335630
  63.7368270  56.0145280  32.4296540  68.0848130  52.9288530  40.6013500
  68.1020870  53.3797180  41.4455350  67.8363710  52.0294170  40.8146940
  63.1341260  57.4622270  31.9833110  62.5658160  57.0140520  31.3569020
  63.8430260  57.8215050  31.4498260  71.5118880  50.3420710  46.4399880
  71.8364650  49.6110370  46.9657860  71.5475390  50.0234350  45.5380870
  64.3607580  58.2110830  41.3408460  64.7277710  57.7369400  42.0869800
  64.1712640  59.0852400  41.6816800  57.2248070  52.9554520  37.4701930
  56.9394990  52.5910190  38.3080550  57.1626930  52.2234980  36.8565070
  62.1506950  57.2519470  43.6592670  61.8464020  58.1311450  43.8843030
  63.1053410  57.3119260  43.6950110  66.8986660  51.8483780  34.1915300
  66.0851270  51.3496950  34.1160610  66.7048610  52.6882030  33.7751650
  69.6135050  56.2203430  32.4877460  70.5014670  56.5320660  32.3128800
  69.5840140  55.3475680  32.0958040  58.2070680  58.0922210  44.8064030
  57.8485620  58.7576060  45.3937370  57.9125240  57.2605760  45.1776650
  61.4083800  58.5506450  47.6903580  61.1083940  58.6963630  46.7931400
  62.1795040  57.9911740  47.5976970  71.8849320  57.5315270  31.9557320
  71.8013040  57.9629490  31.1053760  72.6043510  57.9913620  32.3884140
  56.7178730  58.0913470  31.4298630  57.5873580  58.3738270  31.7134550
  56.2269050  58.9049340  31.3147440  59.7825320  49.8224330  36.0229430
  59.6539950  49.8142230  36.9714350  58.9587340  50.1607420  35.6720440
  56.7819250  51.5815450  45.4836130  56.0677770  51.7812370  46.0888740
  57.2014290  50.8055020  45.8550930  68.2758030  54.0737760  43.2337580
  68.6438850  53.2532970  43.5617150  67.4156230  54.1339650  43.6493230
  71.6420060  53.0294700  34.0425140  71.0133220  53.1340370  33.3283370
  71.1471980  53.2491480  34.8319020  63.6104090  55.3080650  35.4583020
  62.9020240  55.7766990  35.8996630  63.8948570  54.6502660  36.0928210
  65.2360020  56.7277350  43.4575550  65.7345270  57.2023170  44.1227400
  65.3782970  55.8040870  43.6645580  67.6419520  52.0331310  36.8978810
  67.5187300  52.0517440  35.9488320  68.5904080  52.0810250  37.0177210
  61.8139110  53.6165730  32.8333730  62.6629640  54.0535880  32.7673920
  61.4470380  53.9285990  33.6605790  70.7348890  58.1878490  37.7465300
  69.7939030  58.2028720  37.9212990  71.0492960  57.4014450  38.1925600
  59.4077290  57.3023160  31.9902150  59.4880880  56.3550670  32.1019550
  60.2997040  57.6330040  32.0962810  56.9348090  59.1238080  47.2258320
  57.4387110  58.5445360  47.7974550  56.1955510  59.4078310  47.7634690
  58.9671170  57.2667670  48.1208390  59.0076510  56.9681540  49.0293620
  59.8216670  57.6675280  47.9615910  60.9076980  55.8459770  46.0882880
  60.3773440  55.3550720  45.4606220  61.5765050  56.2743970  45.5540810
  65.2577200  58.8900830  30.5289000  65.7782860  58.1749850  30.1630150
  65.9045600  59.5286700  30.8289510  70.2777210  57.6525390  47.8563220
  70.8597980  56.8977710  47.7683700  70.4538980  58.1832830  47.0794700
  61.3949280  52.8122140  46.1680170  61.3006150  52.1942890  45.4431040
  60.8146670  53.5388430  45.9410080  64.1610720  51.3695380  43.2007560
  63.7128020  51.3919640  42.3553110  63.5275920  50.9714400  43.7977860
  66.9034170  57.9965890  45.2057840  67.0230380  57.4007030  45.9452680
  67.7628170  58.0335580  44.7859140  69.2422070  58.5503080  43.7820350
  68.7157290  59.0745700  43.1785490  69.5853410  59.1830470  44.4130080
  61.6408460  55.9396450  30.2270060  61.4397520  55.0763810  30.5883400
  61.4700510  55.8529810  29.2891660  63.6702940  54.5387240  46.4633660
  64.2602630  54.2303090  47.1511480  62.8523180  54.0666990  46.6193560
  68.4896370  54.1553050  46.6966680  67.8011890  53.4934590  46.6316670
  69.2102390  53.7091320  47.1415140  69.1196770  50.7504680  32.7556940
  69.3999060  49.9072580  33.1116360  68.3462500  50.9827790  33.2695690
  60.4391260  53.0397070  30.2147940  60.7417160  53.0464500  29.3067090
  61.1785850  52.6894930  30.7115600  63.6576190  51.9831690  31.2004140
  63.3098190  51.3055680  30.6206590  63.8588960  51.5221200  32.0147530
  56.9981830  58.5119340  37.5968510  56.3430670  58.2430980  36.9528210
  57.8359780  58.4023820  37.1470490  69.9472270  53.3060630  31.8187000
  70.3657150  53.1191610  30.9783660  69.6408330  52.4539680  32.1289930
  58.0357760  58.8971910  42.1371850  58.4030800  58.8099310  43.0167870
  57.4668580  58.1338460  42.0378710  57.5873760  55.8081000  46.0430270
  56.6929810  55.7747760  46.3823980  58.1271310  56.0067790  46.8081520
  71.2749690  52.5912720  47.9282020  72.1519870  52.5996120  48.3116020
  71.2870530  51.8543560  47.3174370  56.2119910  55.7218270  33.5393840
  55.3083990  55.9848470  33.3645500  56.6960530  55.9929440  32.7593800
  58.7547120  54.7783810  31.4488220  59.4638820  54.3567030  30.9635500
  58.0387060  54.8459040  30.8171570  58.4021280  50.8323140  30.4890870
  59.1249410  51.3732080  30.8072090  58.6745800  50.5586560  29.6132410
  72.2112930  55.7015610  34.7562450  72.7072050  55.4686480  35.5411330
  72.0129000  54.8627450  34.3400090  58.0913470  50.0829330  40.3913490
  58.7389660  49.5326710  39.9508650  58.5115310  50.3372480  41.2129300
  71.9865810  50.2770690  43.7483130  72.6238030  50.8904830  44.1142320
  72.1340700  50.3131350  42.8032360  57.8445470  50.2385000  43.1338810
  57.4960290  50.6948820  43.8996990  57.5133170  49.3442130  43.2161240
  65.3570290  51.4296880  46.6558230  65.2959180  52.0218710  47.4053640
  66.2970670  51.3222840  46.5108490  67.9944850  51.0866940  46.2950520
  68.6085260  51.4046230  45.6331600  68.5394410  50.6015530  46.9146380
  58.5166110  49.7661200  46.4089580  59.0649100  49.5849250  45.6455690
  58.5821420  48.9755310  46.9445890  68.7352890  49.6499080  42.6219810
  67.8612730  49.9834190  42.4192740  68.6263640  49.1772260  43.4471680
  69.6424870  51.8569950  44.0061530  69.3138230  51.0421710  43.6263260
  70.5907170  51.8139760  43.8827220  66.4827710  50.5668920  41.5612720
  65.6999500  51.0414420  41.8409480  66.1890640  49.6623750  41.4525900
  71.0348780  51.2692020  39.6061810  71.4756870  51.2137120  38.7583410
  70.7656370  52.1850030  39.6771990  57.8268120  50.8716400  34.0826440
  58.5847480  50.9845280  33.5090470  57.3645290  51.7085600  34.0369870
  64.3681930  52.9855670  37.0728750  63.5556440  52.6112560  36.7324630
  64.8723570  52.2300750  37.3749940  68.8706910  49.6498120  38.3111820
  69.4736280  50.2218330  38.7860340  68.1299900  50.2137560  38.0885720
  72.0141510  50.0519680  33.5852100  72.2092140  50.9503130  33.8519530
  71.2271380  49.8206760  34.0785050  60.1993270  51.3980450  32.6228410
  60.7286030  50.6110250  32.4936360  60.8321590  52.0771640  32.8563940
  62.3931110  51.1355590  35.6773800  61.7633850  50.4342900  35.8443930
  61.8536250  51.8959720  35.4606960  62.5186670  50.4139570  48.1126290
  62.2370940  50.9173170  47.3487110  62.9006370  49.6161320  47.7468420
  69.1202130  49.8293150  48.6906760  69.0067580  50.1487760  49.5858280
  69.9371870  50.2305660  48.3944040  68.0260280  57.8485620  19.0541500
  67.9454330  56.9340230  18.7833210  67.6124700  58.3452690  18.3481210
  66.1578320  59.6264640  20.9350770  65.3820420  59.1465080  21.2249340
  66.8091250  58.9470290  20.7606930  58.5836100  54.8986340  15.5968920
  57.6952800  55.2402310  15.4948800  58.8677290  54.6986660  14.7049750
  56.5469110  57.4991990  21.4808620  57.1185220  56.7314190  21.4812260
  56.5470650  57.7980750  20.5715230  57.7893980  52.9076350  23.2677550
  57.6096820  52.0102100  23.5480310  57.3874060  53.4548220  23.9424500
  66.6292480  55.1092210  21.1689860  67.0057300  54.2364090  21.0563530
  66.5311990  55.4450910  20.2780300  60.7597490  53.4817840  16.6307300
  60.8664240  54.3821570  16.9376060  59.8489850  53.4335810  16.3401950
  70.4116600  52.6042650  18.1018200  71.2326220  52.1139220  18.1443680
  70.4450680  53.1940310  18.8550040  58.4080650  55.4036850  21.8759890
  59.0890760  55.6675220  22.4947290  58.0928700  54.5637720  22.2097900
  62.6005220  56.4504210  20.9632480  63.1083440  56.9485180  21.6037500
  63.1318460  55.6739410  20.7871840  60.8841320  51.0902770  25.2295900
  60.8859760  51.6075160  24.4241800  60.0545630  50.6132950  25.2065830
  70.6478080  54.5443030  20.8745740  69.9433650  54.8327920  21.4548850
  71.0090240  55.3543140  20.5145300  60.5656650  52.8012730  23.2366350
  60.9073460  53.6454780  22.9420220  59.6272460  52.9496470  23.3531690
  64.2484540  50.2895000  19.5610940  64.5559520  49.7341890  18.8446440
  63.3185240  50.4239460  19.3783930  66.6365300  58.3543830  16.2971060
  65.7094580  58.2881210  16.5259530  66.7890120  59.2923960  16.1826300
  66.6234380  54.6260830  13.2938220  65.6838050  54.7874790  13.3790680
  66.9417640  55.3446510  12.7474210  70.1089150  56.0948670  24.2172120
  69.6960330  56.9202380  24.4712110  69.3765100  55.5093710  24.0248480
  62.2421940  58.8808570  19.0790790  61.8378940  58.1685820  18.5836690
  62.3285060  58.5361810  19.9678830  60.9550560  55.6551780  22.8589830
  61.5065150  55.7647120  22.0843080  61.4694070  56.0289380  23.5745060
  58.9426570  57.7753550  16.5797440  58.8224170  58.5015640  15.9678710
  58.6327460  57.0056460  16.1025350  61.4090230  51.1188620  19.9621110
  60.9658380  51.8998160  19.6305630  61.9675220  51.4418510  20.6692050
  65.6960040  53.9857140  25.5656430  65.2339410  54.1940160  26.3776370
  65.2938150  53.1716490  25.2627100  70.6964550  55.2066090  26.6953090
  69.8458140  54.9071840  27.0162160  70.5366340  55.4508100  25.7836910
  67.7914260  56.7067840  28.7951880  68.1167670  55.8731590  28.4554110
  68.5794590  57.2296360  28.9430210  64.5249050  50.7399320  14.8426940
  63.9003230  50.7359190  15.5680250  64.4379170  49.8730280  14.4462910
  63.4466130  51.6635950  21.8210710  63.7438460  52.5698780  21.7402730
  63.9951690  51.1754730  21.2070280  61.2004450  56.2422190  17.6902360
  60.9745370  56.0259360  18.5948980  60.4196980  56.6750650  17.3448330
  68.4302210  56.2485560  16.2893010  67.8311100  56.9721360  16.1056630
  68.9781820  56.1862340  15.5069460  63.6403660  57.1407770  28.3562630
  63.5447260  56.2002500  28.2063030  64.4835640  57.3622840  27.9610700
  67.0367080  54.8849100  18.3196290  67.4296650  55.2021300  17.5064980
  67.3983930  54.0060980  18.4340810  58.7714200  53.5521440  26.5096410
  58.3777590  54.3996650  26.7169190  58.0832600  52.9147810  26.7005050
  65.3459250  53.6356410  29.5793150  64.6557570  53.4428610  30.2139240
  66.0891550  53.9191050  30.1117450  56.0731250  51.4749900  20.5426490
  55.7844300  52.0452760  21.2551470  56.8177010  50.9954350  20.9057720
  56.2601480  55.4170020  11.7529210  56.1776150  56.3600780  11.8944200
  55.9084540  55.2744930  10.8741560  67.6222220  57.4754850  22.4147070
  66.8903340  57.9841660  22.7637170  67.2246560  56.6584830  22.1135850
  64.0599610  54.1509050  20.8199560  64.0635670  53.7099000  19.9704100
  64.9550730  54.4726380  20.9271380  59.9101990  54.0335540  19.7793770
  59.5702040  54.5110770  20.5360820  59.1479310  53.5800660  19.4194870
  64.1219760  55.1521130  13.8106320  64.2432580  55.1107610  14.7592140
  63.7368270  56.0145280  13.6553050  68.0848130  52.9288530  21.8270010
  68.1020870  53.3797180  22.6711860  67.8363710  52.0294170  22.0403450
  63.1341260  57.4622270  13.2089620  62.5658160  57.0140520  12.5825530
  63.8430260  57.8215050  12.6754770  71.5118880  50.3420710  27.6656390
  71.8364650  49.6110370  28.1914370  71.5475390  50.0234350  26.7637380
  64.3607580  58.2110830  22.5664970  64.7277710  57.7369400  23.3126310
  64.1712640  59.0852400  22.9073310  57.2248070  52.9554520  18.6958440
  56.9394990  52.5910190  19.5337060  57.1626930  52.2234980  18.0821580
  62.1506950  57.2519470  24.8849180  61.8464020  58.1311450  25.1099540
  63.1053410  57.3119260  24.9206620  66.8986660  51.8483780  15.4171810
  66.0851270  51.3496950  15.3417120  66.7048610  52.6882030  15.0008160
  69.6135050  56.2203430  13.7133970  70.5014670  56.5320660  13.5385310
  69.5840140  55.3475680  13.3214550  58.2070680  58.0922210  26.0320540
  57.8485620  58.7576060  26.6193880  57.9125240  57.2605760  26.4033160
  61.4083800  58.5506450  28.9160090  61.1083940  58.6963630  28.0187910
  62.1795040  57.9911740  28.8233480  71.8849320  57.5315270  13.1813830
  71.8013040  57.9629490  12.3310270  72.6043510  57.9913620  13.6140650
  56.7178730  58.0913470  12.6555140  57.5873580  58.3738270  12.9391060
  56.2269050  58.9049340  12.5403950  59.7825320  49.8224330  17.2485940
  59.6539950  49.8142230  18.1970860  58.9587340  50.1607420  16.8976950
  56.7819250  51.5815450  26.7092640  56.0677770  51.7812370  27.3145250
  57.2014290  50.8055020  27.0807440  68.2758030  54.0737760  24.4594090
  68.6438850  53.2532970  24.7873660  67.4156230  54.1339650  24.8749740
  71.6420060  53.0294700  15.2681650  71.0133220  53.1340370  14.5539880
  71.1471980  53.2491480  16.0575530  63.6104090  55.3080650  16.6839530
  62.9020240  55.7766990  17.1253140  63.8948570  54.6502660  17.3184720
  65.2360020  56.7277350  24.6832060  65.7345270  57.2023170  25.3483910
  65.3782970  55.8040870  24.8902090  67.6419520  52.0331310  18.1235320
  67.5187300  52.0517440  17.1744830  68.5904080  52.0810250  18.2433720
  61.8139110  53.6165730  14.0590240  62.6629640  54.0535880  13.9930430
  61.4470380  53.9285990  14.8862300  70.7348890  58.1878490  18.9721810
  69.7939030  58.2028720  19.1469500  71.0492960  57.4014450  19.4182110
  59.4077290  57.3023160  13.2158660  59.4880880  56.3550670  13.3276060
  60.2997040  57.6330040  13.3219320  56.9348090  59.1238080  28.4514830
  57.4387110  58.5445360  29.0231060  56.1955510  59.4078310  28.9891200
  58.9671170  57.2667670  29.3464900  59.0076510  56.9681540  30.2550130
  59.8216670  57.6675280  29.1872420  60.9076980  55.8459770  27.3139390
  60.3773440  55.3550720  26.6862730  61.5765050  56.2743970  26.7797320
  65.2577200  58.8900830  11.7545510  65.7782860  58.1749850  11.3886660
  65.9045600  59.5286700  12.0546020  70.2777210  57.6525390  29.0819730
  70.8597980  56.8977710  28.9940210  70.4538980  58.1832830  28.3051210
  61.3949280  52.8122140  27.3936680  61.3006150  52.1942890  26.6687550
  60.8146670  53.5388430  27.1666590  64.1610720  51.3695380  24.4264070
  63.7128020  51.3919640  23.5809620  63.5275920  50.9714400  25.0234370
  66.9034170  57.9965890  26.4314350  67.0230380  57.4007030  27.1709190
  67.7628170  58.0335580  26.0115650  69.2422070  58.5503080  25.0076860
  68.7157290  59.0745700  24.4042000  69.5853410  59.1830470  25.6386590
  61.6408460  55.9396450  11.4526570  61.4397520  55.0763810  11.8139910
  61.4700510  55.8529810  10.5148170  63.6702940  54.5387240  27.6890170
  64.2602630  54.2303090  28.3767990  62.8523180  54.0666990  27.8450070
  68.4896370  54.1553050  27.9223190  67.8011890  53.4934590  27.8573180
  69.2102390  53.7091320  28.3671650  69.1196770  50.7504680  13.9813450
  69.3999060  49.9072580  14.3372870  68.3462500  50.9827790  14.4952200
  60.4391260  53.0397070  11.4404450  60.7417160  53.0464500  10.5323600
  61.1785850  52.6894930  11.9372110  63.6576190  51.9831690  12.4260650
  63.3098190  51.3055680  11.8463100  63.8588960  51.5221200  13.2404040
  56.9981830  58.5119340  18.8225020  56.3430670  58.2430980  18.1784720
  57.8359780  58.4023820  18.3727000  69.9472270  53.3060630  13.0443510
  70.3657150  53.1191610  12.2040170  69.6408330  52.4539680  13.3546440
  58.0357760  58.8971910  23.3628360  58.4030800  58.8099310  24.2424380
  57.4668580  58.1338460  23.2635220  57.5873760  55.8081000  27.2686780
  56.6929810  55.7747760  27.6080490  58.1271310  56.0067790  28.0338030
  71.2749690  52.5912720  29.1538530  72.1519870  52.5996120  29.5372530
  71.2870530  51.8543560  28.5430880  56.2119910  55.7218270  14.7650350
  55.3083990  55.9848470  14.5902010  56.6960530  55.9929440  13.9850310
  58.7547120  54.7783810  12.6744730  59.4638820  54.3567030  12.1892010
  58.0387060  54.8459040  12.0428080  58.4021280  50.8323140  11.7147380
  59.1249410  51.3732080  12.0328600  58.6745800  50.5586560  10.8388920
  72.2112930  55.7015610  15.9818960  72.7072050  55.4686480  16.7667840
  72.0129000  54.8627450  15.5656600  58.0913470  50.0829330  21.6170000
  58.7389660  49.5326710  21.1765160  58.5115310  50.3372480  22.4385810
  71.9865810  50.2770690  24.9739640  72.6238030  50.8904830  25.3398830
  72.1340700  50.3131350  24.0288870  57.8445470  50.2385000  24.3595320
  57.4960290  50.6948820  25.1253500  57.5133170  49.3442130  24.4417750
  65.3570290  51.4296880  27.8814740  65.2959180  52.0218710  28.6310150
  66.2970670  51.3222840  27.7365000  67.9944850  51.0866940  27.5207030
  68.6085260  51.4046230  26.8588110  68.5394410  50.6015530  28.1402890
  58.5166110  49.7661200  27.6346090  59.0649100  49.5849250  26.8712200
  58.5821420  48.9755310  28.1702400  68.7352890  49.6499080  23.8476320
  67.8612730  49.9834190  23.6449250  68.6263640  49.1772260  24.6728190
  69.6424870  51.8569950  25.2318040  69.3138230  51.0421710  24.8519770
  70.5907170  51.8139760  25.1083730  66.4827710  50.5668920  22.7869230
  65.6999500  51.0414420  23.0665990  66.1890640  49.6623750  22.6782410
  71.0348780  51.2692020  20.8318320  71.4756870  51.2137120  19.9839920
  70.7656370  52.1850030  20.9028500  57.8268120  50.8716400  15.3082950
  58.5847480  50.9845280  14.7346980  57.3645290  51.7085600  15.2626380
  64.3681930  52.9855670  18.2985260  63.5556440  52.6112560  17.9581140
  64.8723570  52.2300750  18.6006450  68.8706910  49.6498120  19.5368330
  69.4736280  50.2218330  20.0116850  68.1299900  50.2137560  19.3142230
  72.0141510  50.0519680  14.8108610  72.2092140  50.9503130  15.0776040
  71.2271380  49.8206760  15.3041560  60.1993270  51.3980450  13.8484920
  60.7286030  50.6110250  13.7192870  60.8321590  52.0771640  14.0820450
  62.3931110  51.1355590  16.9030310  61.7633850  50.4342900  17.0700440
  61.8536250  51.8959720  16.6863470  62.5186670  50.4139570  29.3382800
  62.2370940  50.9173170  28.5743620  62.9006370  49.6161320  28.9724930
  69.1202130  49.8293150  29.9163270  69.0067580  50.1487760  30.8114790
  69.9371870  50.2305660  29.6200550  66.1578320  59.6264640   2.1607280
  65.3820420  59.1465080   2.4505850  66.8091250  58.9470290   1.9863440
  56.5469110  57.4991990   2.7065130  57.1185220  56.7314190   2.7068770
  56.5470650  57.7980750   1.7971740  57.7893980  52.9076350   4.4934060
  57.6096820  52.0102100   4.7736820  57.3874060  53.4548220   5.1681010
  58.4080650  55.4036850   3.1016400  59.0890760  55.6675220   3.7203800
  58.0928700  54.5637720   3.4354410  62.6005220  56.4504210   2.1888990
  63.1083440  56.9485180   2.8294010  63.1318460  55.6739410   2.0128350
  60.8841320  51.0902770   6.4552410  60.8859760  51.6075160   5.6498310
  60.0545630  50.6132950   6.4322340  70.6478080  54.5443030   2.1002250
  69.9433650  54.8327920   2.6805360  71.0090240  55.3543140   1.7401810
  60.5656650  52.8012730   4.4622860  60.9073460  53.6454780   4.1676730
  59.6272460  52.9496470   4.5788200  70.1089150  56.0948670   5.4428630
  69.6960330  56.9202380   5.6968620  69.3765100  55.5093710   5.2504990
  60.9550560  55.6551780   4.0846340  61.5065150  55.7647120   3.3099590
  61.4694070  56.0289380   4.8001570  65.6960040  53.9857140   6.7912940
  65.2339410  54.1940160   7.6032880  65.2938150  53.1716490   6.4883610
  70.6964550  55.2066090   7.9209600  69.8458140  54.9071840   8.2418670
  70.5366340  55.4508100   7.0093420  67.7914260  56.7067840  10.0208390
  68.1167670  55.8731590   9.6810620  68.5794590  57.2296360  10.1686720
  63.4466130  51.6635950   3.0467220  63.7438460  52.5698780   2.9659240
  63.9951690  51.1754730   2.4326790  63.6403660  57.1407770   9.5819140
  63.5447260  56.2002500   9.4319540  64.4835640  57.3622840   9.1867210
  58.7714200  53.5521440   7.7352920  58.3777590  54.3996650   7.9425700
  58.0832600  52.9147810   7.9261560  65.3459250  53.6356410  10.8049660
  64.6557570  53.4428610  11.4395750  66.0891550  53.9191050  11.3373960
  56.0731250  51.4749900   1.7683000  55.7844300  52.0452760   2.4807980
  56.8177010  50.9954350   2.1314230  67.6222220  57.4754850   3.6403580
  66.8903340  57.9841660   3.9893680  67.2246560  56.6584830   3.3392360
  68.0848130  52.9288530   3.0526520  68.1020870  53.3797180   3.8968370
  67.8363710  52.0294170   3.2659960  71.5118880  50.3420710   8.8912900
  71.8364650  49.6110370   9.4170880  71.5475390  50.0234350   7.9893890
  64.3607580  58.2110830   3.7921480  64.7277710  57.7369400   4.5382820
  64.1712640  59.0852400   4.1329820  62.1506950  57.2519470   6.1105690
  61.8464020  58.1311450   6.3356050  63.1053410  57.3119260   6.1463130
  58.2070680  58.0922210   7.2577050  57.8485620  58.7576060   7.8450390
  57.9125240  57.2605760   7.6289670  61.4083800  58.5506450  10.1416600
  61.1083940  58.6963630   9.2444420  62.1795040  57.9911740  10.0489990
  56.7819250  51.5815450   7.9349150  56.0677770  51.7812370   8.5401760
  57.2014290  50.8055020   8.3063950  68.2758030  54.0737760   5.6850600
  68.6438850  53.2532970   6.0130170  67.4156230  54.1339650   6.1006250
  65.2360020  56.7277350   5.9088570  65.7345270  57.2023170   6.5740420
  65.3782970  55.8040870   6.1158600  56.9348090  59.1238080   9.6771340
  57.4387110  58.5445360  10.2487570  56.1955510  59.4078310  10.2147710
  58.9671170  57.2667670  10.5721410  59.0076510  56.9681540  11.4806640
  59.8216670  57.6675280  10.4128930  60.9076980  55.8459770   8.5395900
  60.3773440  55.3550720   7.9119240  61.5765050  56.2743970   8.0053830
  70.2777210  57.6525390  10.3076240  70.8597980  56.8977710  10.2196720
  70.4538980  58.1832830   9.5307720  61.3949280  52.8122140   8.6193190
  61.3006150  52.1942890   7.8944060  60.8146670  53.5388430   8.3923100
  64.1610720  51.3695380   5.6520580  63.7128020  51.3919640   4.8066130
  63.5275920  50.9714400   6.2490880  66.9034170  57.9965890   7.6570860
  67.0230380  57.4007030   8.3965700  67.7628170  58.0335580   7.2372160
  69.2422070  58.5503080   6.2333370  68.7157290  59.0745700   5.6298510
  69.5853410  59.1830470   6.8643100  63.6702940  54.5387240   8.9146680
  64.2602630  54.2303090   9.6024500  62.8523180  54.0666990   9.0706580
  68.4896370  54.1553050   9.1479700  67.8011890  53.4934590   9.0829690
  69.2102390  53.7091320   9.5928160  58.0357760  58.8971910   4.5884870
  58.4030800  58.8099310   5.4680890  57.4668580  58.1338460   4.4891730
  57.5873760  55.8081000   8.4943290  56.6929810  55.7747760   8.8337000
  58.1271310  56.0067790   9.2594540  71.2749690  52.5912720  10.3795040
  72.1519870  52.5996120  10.7629040  71.2870530  51.8543560   9.7687390
  58.0913470  50.0829330   2.8426510  58.7389660  49.5326710   2.4021670
  58.5115310  50.3372480   3.6642320  71.9865810  50.2770690   6.1996150
  72.6238030  50.8904830   6.5655340  72.1340700  50.3131350   5.2545380
  57.8445470  50.2385000   5.5851830  57.4960290  50.6948820   6.3510010
  57.5133170  49.3442130   5.6674260  65.3570290  51.4296880   9.1071250
  65.2959180  52.0218710   9.8566660  66.2970670  51.3222840   8.9621510
  67.9944850  51.0866940   8.7463540  68.6085260  51.4046230   8.0844620
  68.5394410  50.6015530   9.3659400  58.5166110  49.7661200   8.8602600
  59.0649100  49.5849250   8.0968710  58.5821420  48.9755310   9.3958910
  68.7352890  49.6499080   5.0732830  67.8612730  49.9834190   4.8705760
  68.6263640  49.1772260   5.8984700  69.6424870  51.8569950   6.4574550
  69.3138230  51.0421710   6.0776280  70.5907170  51.8139760   6.3340240
  66.4827710  50.5668920   4.0125740  65.6999500  51.0414420   4.2922500
  66.1890640  49.6623750   3.9038920  62.5186670  50.4139570  10.5639310
  62.2370940  50.9173170   9.8000130  62.9006370  49.6161320  10.1981440
  69.1202130  49.8293150  11.1419780  69.0067580  50.1487760  12.0371300
  69.9371870  50.2305660  10.8457060  68.0260280  39.0742130  56.6028480
  67.9454330  38.1596740  56.3320190  67.6124700  39.5709200  55.8968190
  70.1785750  45.2581340  57.2636880  69.7167280  44.4868580  57.5924050
  70.9911300  45.2847410  57.7689330  58.5836100  36.1242850  53.1455900
  57.6952800  36.4658820  53.0435780  58.8677290  35.9243170  52.2536730
  66.4049060  47.5439350  56.8840870  65.7860500  47.9996850  56.3135310
  67.2600840  47.6990810  56.4830570  60.7597490  34.7074350  54.1794280
  60.8664240  35.6078080  54.4863040  59.8489850  34.6592320  53.8888930
  70.4116600  33.8299160  55.6505180  71.2326220  33.3395730  55.6930660
  70.4450680  34.4196820  56.4037020  67.2712410  42.4278590  54.2772780
  66.6529680  42.8928040  53.7135500  67.7835660  43.1206070  54.6942290
  56.6395610  43.1135120  51.6512410  56.2623590  43.6022220  50.9197310
  56.8968680  43.7860400  52.2818940  64.2484540  31.5151510  57.1097920
  64.5559520  30.9598400  56.3933420  63.3185240  31.6495970  56.9270910
  71.0945020  43.9535020  54.4895550  70.9841350  43.0109350  54.6144970
  71.0913270  44.3150660  55.3758310  66.6365300  39.5800340  53.8458040
  65.7094580  39.5137720  54.0746510  66.7890120  40.5180470  53.7313280
  66.6234380  35.8517340  50.8425200  65.6838050  36.0131300  50.9277660
  66.9417640  36.5703020  50.2961190  70.6662590  41.1420640  54.3493290
  70.0475010  40.8040190  53.7019590  70.6487040  40.4980400  55.0572480
  62.2421940  40.1065080  56.6277770  61.8378940  39.3942330  56.1323670
  62.3285060  39.7618320  57.5165810  68.8427290  40.3807450  51.3566040
  69.2820570  39.5429880  51.2103860  69.5555710  41.0136850  51.4430180
  66.9522670  45.3203520  55.3247280  67.3918580  46.0627850  54.9102670
  66.8909560  45.5630090  56.2486240  58.9426570  39.0010060  54.1284420
  58.8224170  39.7272150  53.5165690  58.6327460  38.2312970  53.6512330
  57.8259570  43.8725390  56.3459240  57.4187650  44.0139980  55.4912840
  58.7172580  43.5885550  56.1430450  69.6192850  48.3072640  52.6810290
  69.4593990  48.0175580  53.5792120  69.4539560  47.5312770  52.1455520
  62.0981230  48.0871170  54.4581910  61.9223710  47.1706710  54.2449710
  61.2436970  48.4458460  54.6979710  69.3218980  45.8160200  51.2408290
  68.6284140  45.8137490  50.5810570  70.0641840  45.3919520  50.8102460
  68.8868910  47.4422910  55.3156780  69.3425860  46.6612290  55.6295400
  69.2261430  48.1529730  55.8597960  61.4090230  32.3445130  57.5108090
  60.9658380  33.1254670  57.1792610  61.9675220  32.6675020  58.2179030
  64.5249050  31.9655830  52.3913920  63.9003230  31.9615700  53.1167230
  64.4379170  31.0986790  51.9949890  61.2004450  37.4678700  55.2389340
  60.9745370  37.2515870  56.1435960  60.4196980  37.9007160  54.8935310
  68.4302210  37.4742070  53.8379990  67.8311100  38.1977870  53.6543610
  68.9781820  37.4118850  53.0556440  67.0367080  36.1105610  55.8683270
  67.4296650  36.4277810  55.0551960  67.3983930  35.2317490  55.9827790
  56.2601480  36.6426530  49.3016190  56.1776150  37.5857290  49.4431180
  55.9084540  36.5001440  48.4228540  64.0599610  35.3765560  58.3686540
  64.0635670  34.9355510  57.5191080  64.9550730  35.6982890  58.4758360
  59.9101990  35.2592050  57.3280750  59.5702040  35.7367280  58.0847800
  59.1479310  34.8057170  56.9681850  64.1219760  36.3777640  51.3593300
  64.2432580  36.3364120  52.3079120  63.7368270  37.2401790  51.2040030
  63.1341260  38.6878780  50.7576600  62.5658160  38.2397030  50.1312510
  63.8430260  39.0471560  50.2241750  57.2248070  34.1811030  56.2445420
  56.9394990  33.8166700  57.0824040  57.1626930  33.4491490  55.6308560
  60.6788740  42.6836970  53.0303010  59.9051000  42.1434590  52.8701730
  61.4083370  42.1643580  52.6920770  66.8986660  33.0740290  52.9658790
  66.0851270  32.5753460  52.8904100  66.7048610  33.9138540  52.5495140
  69.6135050  37.4459940  51.2620950  70.5014670  37.7577170  51.0872290
  69.5840140  36.5732190  50.8701530  60.7226140  42.3517350  56.6681820
  61.2404810  41.5485610  56.6138710  60.2710160  42.2896490  57.5098650
  65.6095640  43.6183630  51.9409120  65.9511340  44.3625860  51.4452440
  64.7808350  43.9314750  52.3033950  71.8849320  38.7571780  50.7300810
  71.8013040  39.1886000  49.8797250  72.6043510  39.2170130  51.1627630
  68.4923050  42.9399470  57.3054630  68.8446870  42.3427600  56.6456000
  67.6085380  42.6143700  57.4762880  64.5786330  43.6997160  54.7125040
  65.2657460  44.2466370  55.0932630  63.7918750  44.2437890  54.7474650
  56.7178730  39.3169980  50.2042120  57.5873580  39.5994780  50.4878040
  56.2269050  40.1305850  50.0890930  63.8813540  40.7043190  54.3250400
  64.3376320  41.5148440  54.5510590  63.5301750  40.3866330  55.1568890
  59.7825320  31.0480840  54.7972920  59.6539950  31.0398740  55.7457840
  58.9587340  31.3863930  54.4463930  71.3033950  44.5030500  49.9959290
  71.0771530  43.7860940  50.5883930  70.9130150  44.2542940  49.1581040
  57.0849980  48.5297360  50.7703750  57.4447620  49.1286700  50.1161020
  56.9442320  49.0757250  51.5438780  70.8850200  42.4202440  51.6573450
  70.5971900  42.8815130  52.4451330  71.6802370  41.9600210  51.9257670
  63.1018600  45.9128560  51.5877420  63.0928700  46.6458250  50.9721930
  62.1816960  45.6660140  51.6804380  58.7025240  41.1343450  52.3324180
  58.0953190  41.8742350  52.3419480  59.1774590  41.2242810  51.5062380
  71.6420060  34.2551210  52.8168630  71.0133220  34.3596880  52.1026860
  71.1471980  34.4747990  53.6062510  66.0878200  45.9756800  50.2502610
  66.1890180  45.7720790  49.3204590  65.1879940  45.7215080  50.4550390
  63.6104090  36.5337160  54.2326510  62.9020240  37.0023500  54.6740120
  63.8948570  35.8759170  54.8671700  67.6419520  33.2587820  55.6722300
  67.5187300  33.2773950  54.7231810  68.5904080  33.3066760  55.7920700
  64.7296310  48.4943120  54.9450280  64.9837810  48.4564510  54.0229650
  63.7808790  48.3676450  54.9378530  61.8139110  34.8422240  51.6077220
  62.6629640  35.2792390  51.5417410  61.4470380  35.1542500  52.4349280
  70.7348890  39.4135000  56.5208790  69.7939030  39.4285230  56.6956480
  71.0492960  38.6270960  56.9669090  60.7130530  41.0954600  50.0812750
  61.4793800  40.9835960  50.6438180  60.7905220  40.3992570  49.4289520
  59.4077290  38.5279670  50.7645640  59.4880880  37.5807180  50.8763040
  60.2997040  38.8586550  50.8706300  60.2092000  48.6775060  57.8680180
  60.9454480  48.1290520  58.1388750  60.5932920  49.5431070  57.7286170
  57.0937480  44.7448630  53.7421690  56.1677260  44.9869770  53.7327100
  57.5593910  45.5722890  53.6206440  63.3194310  47.8505370  49.6905750
  64.1122920  48.1394200  49.2387540  62.7998660  47.4197540  49.0118230
  72.3724480  47.0775500  51.1142490  72.0865990  46.6640640  50.2996670
  72.1744030  48.0063210  50.9943010  63.8371710  43.0708780  49.5548100
  63.7322350  42.4561130  50.2809480  63.6695930  42.5474670  48.7711110
  67.0774440  42.1328810  50.1590090  66.5284540  42.5798110  50.8032830
  67.6993700  41.6278060  50.6827760  62.7449560  41.0919730  52.0555390
  63.1665980  40.9259600  52.8986780  62.8700400  40.2819960  51.5610530
  65.2577200  40.1157340  49.3032490  65.7782860  39.4006360  48.9373640
  65.9045600  40.7543210  49.6033000  61.6408460  37.1652960  49.0013550
  61.4397520  36.3020320  49.3626890  61.4700510  37.0786320  48.0635150
  69.1196770  31.9761190  51.5300430  69.3999060  31.1329090  51.8859850
  68.3462500  32.2084300  52.0439180  60.4391260  34.2653580  48.9891430
  60.7417160  34.2721010  48.0810580  61.1785850  33.9151440  49.4859090
  63.6576190  33.2088200  49.9747630  63.3098190  32.5312190  49.3950080
  63.8588960  32.7477710  50.7891020  65.8225230  48.1968950  51.5934230
  66.7176020  48.5353920  51.6152990  65.8542860  47.4748360  50.9658510
  59.4621390  43.5696000  49.8221230  59.8996260  44.1125670  50.4778810
  59.9469120  42.7442950  49.8317570  56.6767190  46.3585030  57.2741490
  57.0070200  45.4906090  57.0420130  57.1058190  46.5643550  58.1046450
  61.2729110  44.6894040  54.9343460  60.9724650  44.5659010  55.8347370
  61.1666600  43.8302630  54.5259190  56.9981830  39.7375850  56.3712000
  56.3430670  39.4687490  55.7271700  57.8359780  39.6280330  55.9213980
  69.9472270  34.5317140  50.5930490  70.3657150  34.3448120  49.7527150
  69.6408330  33.6796190  50.9033420  56.2119910  36.9474780  52.3137330
  55.3083990  37.2104980  52.1388990  56.6960530  37.2185950  51.5337290
  58.7547120  36.0040320  50.2231710  59.4638820  35.5823540  49.7378990
  58.0387060  36.0715550  49.5915060  58.4021280  32.0579650  49.2634360
  59.1249410  32.5988590  49.5815580  58.6745800  31.7843070  48.3875900
  72.2112930  36.9272120  53.5305940  72.7072050  36.6942990  54.3154820
  72.0129000  36.0883960  53.1143580  71.5447270  48.2043200  55.9244860
  72.1406340  47.8827770  55.2479280  71.8025420  47.7315020  56.7158130
  71.0348780  32.4948530  58.3805300  71.4756870  32.4393630  57.5326900
  70.7656370  33.4106540  58.4515480  57.2040100  48.2656130  55.3538070
  57.0362140  47.6326810  56.0519960  56.3374610  48.4715530  55.0032260
  57.8268120  32.0972910  52.8569930  58.5847480  32.2101790  52.2833960
  57.3645290  32.9342110  52.8113360  64.3681930  34.2112180  55.8472240
  63.5556440  33.8369070  55.5068120  64.8723570  33.4557260  56.1493430
  68.8706910  30.8754630  57.0855310  69.4736280  31.4474840  57.5603830
  68.1299900  31.4394070  56.8629210  72.0141510  31.2776190  52.3595590
  72.2092140  32.1759640  52.6263020  71.2271380  31.0463270  52.8528540
  58.8102800  46.9589360  52.7988210  58.2850420  47.3397390  52.0950170
  58.7347380  47.5840130  53.5197920  60.1993270  32.6236960  51.3971900
  60.7286030  31.8366760  51.2679850  60.8321590  33.3028150  51.6307430
  62.3931110  32.3612100  54.4517290  61.7633850  31.6599410  54.6187420
  61.8536250  33.1216230  54.2350450  61.4095770  48.9071740  51.6737460
  62.1414590  48.6231020  51.1261350  61.6689440  48.6685020  52.5636840
  60.5710560  45.0236470  51.6783790  59.9419440  45.4921570  52.2269620
  60.6858390  44.1785690  52.1129980  68.0260280  39.0742130  37.8284990
  67.9454330  38.1596740  37.5576700  67.6124700  39.5709200  37.1224700
  66.1578320  40.8521150  39.7094260  65.3820420  40.3721590  39.9992830
  66.8091250  40.1726800  39.5350420  60.1744150  41.1640960  40.5870020
  59.3429030  40.9089670  40.9866530  60.7825130  41.2351730  41.3227940
  70.1785750  45.2581340  38.4893390  69.7167280  44.4868580  38.8180560
  70.9911300  45.2847410  38.9945840  60.1545410  45.1981050  40.7828040
  60.4573450  44.3078790  40.6038260  60.8989000  45.7551270  40.5550290
  58.5836100  36.1242850  34.3712410  57.6952800  36.4658820  34.2692290
  58.8677290  35.9243170  33.4793240  56.5469110  38.7248500  40.2552110
  57.1185220  37.9570700  40.2555750  56.5470650  39.0237260  39.3458720
  66.4049060  47.5439350  38.1097380  65.7860500  47.9996850  37.5391820
  67.2600840  47.6990810  37.7087080  65.5987310  43.5278340  39.7164420
  65.5295590  42.5868280  39.5553550  66.3607170  43.6179750  40.2886990
  57.7893980  34.1332860  42.0421040  57.6096820  33.2358610  42.3223800
  57.3874060  34.6804730  42.7167990  66.6292480  36.3348720  39.9433350
  67.0057300  35.4620600  39.8307020  66.5311990  36.6707420  39.0523790
  60.7597490  34.7074350  35.4050790  60.8664240  35.6078080  35.7119550
  59.8489850  34.6592320  35.1145440  70.4116600  33.8299160  36.8761690
  71.2326220  33.3395730  36.9187170  70.4450680  34.4196820  37.6293530
  58.4080650  36.6293360  40.6503380  59.0890760  36.8931730  41.2690780
  58.0928700  35.7894230  40.9841390  62.6005220  37.6760720  39.7375970
  63.1083440  38.1741690  40.3780990  63.1318460  36.8995920  39.5615330
  60.8841320  32.3159280  44.0039390  60.8859760  32.8331670  43.1985290
  60.0545630  31.8389460  43.9809320  67.2712410  42.4278590  35.5029290
  66.6529680  42.8928040  34.9392010  67.7835660  43.1206070  35.9198800
  62.1344170  41.9554460  42.1812890  61.8013550  42.5823380  42.8233960
  62.3110850  42.4816340  41.4014560  70.6478080  35.7699540  39.6489230
  69.9433650  36.0584430  40.2292340  71.0090240  36.5799650  39.2888790
  60.5656650  34.0269240  42.0109840  60.9073460  34.8711290  41.7163710
  59.6272460  34.1752980  42.1275180  61.3463270  43.9235260  43.9962070
  61.9637270  44.5986340  43.7146520  60.4856390  44.3323240  43.9049570
  56.6395610  43.1135120  32.8768920  56.2623590  43.6022220  32.1453820
  56.8968680  43.7860400  33.5075450  64.2484540  31.5151510  38.3354430
  64.5559520  30.9598400  37.6189930  63.3185240  31.6495970  38.1527420
  69.7999600  47.2318800  40.6261890  69.8126760  46.8281090  39.7584150
  69.2474820  48.0066090  40.5223320  71.0945020  43.9535020  35.7152060
  70.9841350  43.0109350  35.8401480  71.0913270  44.3150660  36.6014820
  69.1985040  42.1348640  41.9544500  69.6153830  41.9208750  41.1197960
  69.9224860  42.3921430  42.5253120  66.6365300  39.5800340  35.0714550
  65.7094580  39.5137720  35.3003020  66.7890120  40.5180470  34.9569790
  66.6234380  35.8517340  32.0681710  65.6838050  36.0131300  32.1534170
  66.9417640  36.5703020  31.5217700  70.6662590  41.1420640  35.5749800
  70.0475010  40.8040190  34.9276100  70.6487040  40.4980400  36.2828990
  70.1089150  37.3205180  42.9915610  69.6960330  38.1458890  43.2455600
  69.3765100  36.7350220  42.7991970  62.2421940  40.1065080  37.8534280
  61.8378940  39.3942330  37.3580180  62.3285060  39.7618320  38.7422320
  62.7103640  43.7932640  40.0173490  62.4131930  43.1878110  39.3381270
  63.6603460  43.8309950  39.9062850  60.9550560  36.8808290  41.6333320
  61.5065150  36.9903630  40.8586570  61.4694070  37.2545890  42.3488550
  70.7989250  47.3664510  43.6796590  70.3219810  48.1736700  43.4869200
  70.1151040  46.7142840  43.8322800  61.8022070  43.5314330  46.6681290
  60.9050600  43.7554300  46.9154690  61.8274940  43.6549270  45.7192690
  68.8427290  40.3807450  32.5822550  69.2820570  39.5429880  32.4360370
  69.5555710  41.0136850  32.6686690  60.6293290  40.4027650  45.2438660
  60.4901060  41.2750450  45.6126060  59.7474650  40.0600460  45.0986600
  66.9522670  45.3203520  36.5503790  67.3918580  46.0627850  36.1359180
  66.8909560  45.5630090  37.4742750  62.4273640  46.3449350  47.4523810
  62.3989070  46.7492300  46.5852240  62.2638610  45.4159710  47.2895410
  58.9426570  39.0010060  35.3540930  58.8224170  39.7272150  34.7422200
  58.6327460  38.2312970  34.8768840  56.5811940  42.1725200  41.1609570
  56.6592360  42.3073970  40.2165290  57.1953620  41.4641090  41.3537690
  57.8259570  43.8725390  37.5715750  57.4187650  44.0139980  36.7169350
  58.7172580  43.5885550  37.3686960  67.6438450  48.0217300  44.4782800
  68.1583120  47.9325310  45.2805230  66.8007530  48.3677000  44.7710710
  69.6192850  48.3072640  33.9066800  69.4593990  48.0175580  34.8048630
  69.4539560  47.5312770  33.3712030  62.0981230  48.0871170  35.6838420
  61.9223710  47.1706710  35.4706220  61.2436970  48.4458460  35.9236220
  69.3218980  45.8160200  32.4664800  68.6284140  45.8137490  31.8067080
  70.0641840  45.3919520  32.0358970  68.8868910  47.4422910  36.5413290
  69.3425860  46.6612290  36.8551910  69.2261430  48.1529730  37.0854470
  56.6371460  43.2139370  43.7004030  56.8002500  42.7444730  42.8823400
  57.1023910  42.7062930  44.3652870  61.4090230  32.3445130  38.7364600
  60.9658380  33.1254670  38.4049120  61.9675220  32.6675020  39.4435540
  65.6960040  35.2113650  44.3399920  65.2339410  35.4196670  45.1519860
  65.2938150  34.3973000  44.0370590  70.6964550  36.4322600  45.4696580
  69.8458140  36.1328350  45.7905650  70.5366340  36.6764610  44.5580400
  67.7914260  37.9324350  47.5695370  68.1167670  37.0988100  47.2297600
  68.5794590  38.4552870  47.7173700  64.5249050  31.9655830  33.6170430
  63.9003230  31.9615700  34.3423740  64.4379170  31.0986790  33.2206400
  63.4466130  32.8892460  40.5954200  63.7438460  33.7955290  40.5146220
  63.9951690  32.4011240  39.9813770  61.2004450  37.4678700  36.4645850
  60.9745370  37.2515870  37.3692470  60.4196980  37.9007160  36.1191820
  68.4302210  37.4742070  35.0636500  67.8311100  38.1977870  34.8800120
  68.9781820  37.4118850  34.2812950  63.6403660  38.3664280  47.1306120
  63.5447260  37.4259010  46.9806520  64.4835640  38.5879350  46.7354190
  67.0367080  36.1105610  37.0939780  67.4296650  36.4277810  36.2808470
  67.3983930  35.2317490  37.2084300  58.7714200  34.7777950  45.2839900
  58.3777590  35.6253160  45.4912680  58.0832600  34.1404320  45.4748540
  65.3459250  34.8612920  48.3536640  64.6557570  34.6685120  48.9882730
  66.0891550  35.1447560  48.8860940  56.0731250  32.7006410  39.3169980
  55.7844300  33.2709270  40.0294960  56.8177010  32.2210860  39.6801210
  56.2601480  36.6426530  30.5272700  56.1776150  37.5857290  30.6687690
  55.9084540  36.5001440  29.6485050  67.6222220  38.7011360  41.1890560
  66.8903340  39.2098170  41.5380660  67.2246560  37.8841340  40.8879340
  64.0599610  35.3765560  39.5943050  64.0635670  34.9355510  38.7447590
  64.9550730  35.6982890  39.7014870  59.9101990  35.2592050  38.5537260
  59.5702040  35.7367280  39.3104310  59.1479310  34.8057170  38.1938360
  64.1219760  36.3777640  32.5849810  64.2432580  36.3364120  33.5335630
  63.7368270  37.2401790  32.4296540  68.0848130  34.1545040  40.6013500
  68.1020870  34.6053690  41.4455350  67.8363710  33.2550680  40.8146940
  63.1341260  38.6878780  31.9833110  62.5658160  38.2397030  31.3569020
  63.8430260  39.0471560  31.4498260  71.5118880  31.5677220  46.4399880
  71.8364650  30.8366880  46.9657860  71.5475390  31.2490860  45.5380870
  58.2110440  42.5890800  45.8599840  57.8265230  41.9484470  46.4582800
  58.5222630  43.2926920  46.4294570  64.3607580  39.4367340  41.3408460
  64.7277710  38.9625910  42.0869800  64.1712640  40.3108910  41.6816800
  57.2248070  34.1811030  37.4701930  56.9394990  33.8166700  38.3080550
  57.1626930  33.4491490  36.8565070  62.1506950  38.4775980  43.6592670
  61.8464020  39.3567960  43.8843030  63.1053410  38.5375770  43.6950110
  60.6788740  42.6836970  34.2559520  59.9051000  42.1434590  34.0958240
  61.4083370  42.1643580  33.9177280  71.4376720  41.6802330  40.0485910
  72.1575840  42.1757620  39.6582020  71.2358540  41.0020220  39.4039780
  66.8986660  33.0740290  34.1915300  66.0851270  32.5753460  34.1160610
  66.7048610  33.9138540  33.7751650  66.8195520  41.7511390  45.9354910
  66.7532830  40.8307060  45.6812500  66.1900660  41.8486830  46.6499550
  69.6135050  37.4459940  32.4877460  70.5014670  37.7577170  32.3128800
  69.5840140  36.5732190  32.0958040  60.7226140  42.3517350  37.8938330
  61.2404810  41.5485610  37.8395220  60.2710160  42.2896490  38.7355160
  65.6095640  43.6183630  33.1665630  65.9511340  44.3625860  32.6708950
  64.7808350  43.9314750  33.5290460  58.2070680  39.3178720  44.8064030
  57.8485620  39.9832570  45.3937370  57.9125240  38.4862270  45.1776650
  61.4083800  39.7762960  47.6903580  61.1083940  39.9220140  46.7931400
  62.1795040  39.2168250  47.5976970  66.7512250  44.5731960  45.6858710
  66.7656790  43.6412920  45.4677620  66.0437350  44.6591720  46.3248480
  71.8849320  38.7571780  31.9557320  71.8013040  39.1886000  31.1053760
  72.6043510  39.2170130  32.3884140  68.4923050  42.9399470  38.5311140
  68.8446870  42.3427600  37.8712510  67.6085380  42.6143700  38.7019390
  64.5786330  43.6997160  35.9381550  65.2657460  44.2466370  36.3189140
  63.7918750  44.2437890  35.9731160  56.7178730  39.3169980  31.4298630
  57.5873580  39.5994780  31.7134550  56.2269050  40.1305850  31.3147440
  63.8813540  40.7043190  35.5506910  64.3376320  41.5148440  35.7767100
  63.5301750  40.3866330  36.3825400  66.1846150  46.2149530  42.7799210
  66.8288370  46.4208910  43.4572630  66.5475590  45.4537930  42.3270060
  59.7825320  31.0480840  36.0229430  59.6539950  31.0398740  36.9714350
  58.9587340  31.3863930  35.6720440  67.4578230  44.2181880  41.4976660
  68.1000460  43.5175040  41.6108830  67.9827580  44.9980320  41.3173550
  71.3033950  44.5030500  31.2215800  71.0771530  43.7860940  31.8140440
  70.9130150  44.2542940  30.3837550  69.2315850  45.0176780  44.7012720
  69.5672090  45.6043470  45.3790640  68.3116190  44.8869490  44.9310510
  57.0849980  48.5297360  31.9960260  57.4447620  49.1286700  31.3417530
  56.9442320  49.0757250  32.7695290  56.7819250  32.8071960  45.4836130
  56.0677770  33.0068880  46.0888740  57.2014290  32.0311530  45.8550930
  70.8850200  42.4202440  32.8829960  70.5971900  42.8815130  33.6707840
  71.6802370  41.9600210  33.1514180  57.0691840  46.7952220  46.4702660
  57.1782960  45.8546960  46.3298050  56.4172400  47.0606970  45.8216390
  65.0604430  45.0668110  47.8700780  64.7401300  44.3477350  48.4146470
  64.3862790  45.7423180  47.9436840  63.1018600  45.9128560  32.8133930
  63.0928700  46.6458250  32.1978440  62.1816960  45.6660140  32.9060890
  58.7025240  41.1343450  33.5580690  58.0953190  41.8742350  33.5675990
  59.1774590  41.2242810  32.7318890  68.2758030  35.2994270  43.2337580
  68.6438850  34.4789480  43.5617150  67.4156230  35.3596160  43.6493230
  71.6420060  34.2551210  34.0425140  71.0133220  34.3596880  33.3283370
  71.1471980  34.4747990  34.8319020  66.0878200  45.9756800  31.4759120
  66.1890180  45.7720790  30.5461100  65.1879940  45.7215080  31.6806900
  63.6104090  36.5337160  35.4583020  62.9020240  37.0023500  35.8996630
  63.8948570  35.8759170  36.0928210  65.2360020  37.9533860  43.4575550
  65.7345270  38.4279680  44.1227400  65.3782970  37.0297380  43.6645580
  67.6419520  33.2587820  36.8978810  67.5187300  33.2773950  35.9488320
  68.5904080  33.3066760  37.0177210  64.7296310  48.4943120  36.1706790
  64.9837810  48.4564510  35.2486160  63.7808790  48.3676450  36.1635040
  61.8139110  34.8422240  32.8333730  62.6629640  35.2792390  32.7673920
  61.4470380  35.1542500  33.6605790  70.7348890  39.4135000  37.7465300
  69.7939030  39.4285230  37.9212990  71.0492960  38.6270960  38.1925600
  60.7130530  41.0954600  31.3069260  61.4793800  40.9835960  31.8694690
  60.7905220  40.3992570  30.6546030  59.4077290  38.5279670  31.9902150
  59.4880880  37.5807180  32.1019550  60.2997040  38.8586550  32.0962810
  60.2092000  48.6775060  39.0936690  60.9454480  48.1290520  39.3645260
  60.5932920  49.5431070  38.9542680  57.0937480  44.7448630  34.9678200
  56.1677260  44.9869770  34.9583610  57.5593910  45.5722890  34.8462950
  59.2150280  47.8621130  48.2822270  60.0163010  48.1833180  48.6957670
  58.7002100  47.5016710  49.0042180  63.3194310  47.8505370  30.9162260
  64.1122920  48.1394200  30.4644050  62.7998660  47.4197540  30.2374740
  68.0514910  43.9701000  48.2297680  67.4453070  43.9932600  47.4893430
  67.7469020  43.2384040  48.7664930  69.4815280  47.6981290  46.8407090
  70.4337030  47.6139310  46.7907330  69.3343500  48.3623000  47.5140880
  72.3724480  47.0775500  32.3399000  72.0865990  46.6640640  31.5253180
  72.1744030  48.0063210  32.2199520  56.9348090  40.3494590  47.2258320
  57.4387110  39.7701870  47.7974550  56.1955510  40.6334820  47.7634690
  63.8371710  43.0708780  30.7804610  63.7322350  42.4561130  31.5065990
  63.6695930  42.5474670  29.9967620  63.9886030  41.7565580  46.7593840
  63.2231700  42.3250580  46.6748510  64.1701990  41.4641790  45.8662070
  67.0774440  42.1328810  31.3846600  66.5284540  42.5798110  32.0289340
  67.6993700  41.6278060  31.9084270  71.1309380  43.4870910  47.3168860
  71.8718850  43.8246670  46.8136320  70.3682060  43.6562970  46.7638630
  58.9671170  38.4924180  48.1208390  59.0076510  38.1938050  49.0293620
  59.8216670  38.8931790  47.9615910  62.7449560  41.0919730  33.2811900
  63.1665980  40.9259600  34.1243290  62.8700400  40.2819960  32.7867040
  60.9076980  37.0716280  46.0882880  60.3773440  36.5807230  45.4606220
  61.5765050  37.5000480  45.5540810  65.2577200  40.1157340  30.5289000
  65.7782860  39.4006360  30.1630150  65.9045600  40.7543210  30.8289510
  69.8055040  41.5385740  45.8524070  70.2196060  41.6930820  46.7014490
  68.8706040  41.6640960  46.0149850  70.2777210  38.8781900  47.8563220
  70.8597980  38.1234220  47.7683700  70.4538980  39.4089340  47.0794700
  61.3949280  34.0378650  46.1680170  61.3006150  33.4199400  45.4431040
  60.8146670  34.7644940  45.9410080  64.1610720  32.5951890  43.2007560
  63.7128020  32.6176150  42.3553110  63.5275920  32.1970910  43.7977860
  64.5670270  41.4906220  43.8220000  64.9858380  42.3338950  43.6496240
  63.6478900  41.6278260  43.5926780  66.9034170  39.2222400  45.2057840
  67.0230380  38.6263540  45.9452680  67.7628170  39.2592090  44.7859140
  69.2422070  39.7759590  43.7820350  68.7157290  40.3002210  43.1785490
  69.5853410  40.4086980  44.4130080  61.6408460  37.1652960  30.2270060
  61.4397520  36.3020320  30.5883400  61.4700510  37.0786320  29.2891660
  62.4177690  47.7959230  44.9377730  61.8798780  48.5205290  44.6186430
  62.6711650  47.3189570  44.1475070  63.6702940  35.7643750  46.4633660
  64.2602630  35.4559600  47.1511480  62.8523180  35.2923500  46.6193560
  68.4896370  35.3809560  46.6966680  67.8011890  34.7191100  46.6316670
  69.2102390  34.9347830  47.1415140  69.1196770  31.9761190  32.7556940
  69.3999060  31.1329090  33.1116360  68.3462500  32.2084300  33.2695690
  60.4391260  34.2653580  30.2147940  60.7417160  34.2721010  29.3067090
  61.1785850  33.9151440  30.7115600  65.2739900  49.0310440  45.1964380
  65.1998600  49.9345580  45.5036750  64.3718740  48.7122340  45.1686450
  63.6576190  33.2088200  31.2004140  63.3098190  32.5312190  30.6206590
  63.8588960  32.7477710  32.0147530  65.8225230  48.1968950  32.8190740
  66.7176020  48.5353920  32.8409500  65.8542860  47.4748360  32.1915020
  59.4621390  43.5696000  31.0477740  59.8996260  44.1125670  31.7035320
  59.9469120  42.7442950  31.0574080  56.6767190  46.3585030  38.4998000
  57.0070200  45.4906090  38.2676640  57.1058190  46.5643550  39.3302960
  61.2729110  44.6894040  36.1599970  60.9724650  44.5659010  37.0603880
  61.1666600  43.8302630  35.7515700  57.1657400  47.2255620  41.2379630
  56.7288390  47.4056420  42.0703780  57.7335080  47.9830240  41.0961350
  56.9981830  39.7375850  37.5968510  56.3430670  39.4687490  36.9528210
  57.8359780  39.6280330  37.1470490  71.4871220  43.4524600  43.6233100
  70.6731060  43.8821760  43.8858890  71.8945420  44.0643010  43.0102150
  69.9472270  34.5317140  31.8187000  70.3657150  34.3448120  30.9783660
  69.6408330  33.6796190  32.1289930  58.0357760  40.1228420  42.1371850
  58.4030800  40.0355820  43.0167870  57.4668580  39.3594970  42.0378710
  57.5873760  37.0337510  46.0430270  56.6929810  37.0004270  46.3823980
  58.1271310  37.2324300  46.8081520  71.2749690  33.8169230  47.9282020
  72.1519870  33.8252630  48.3116020  71.2870530  33.0800070  47.3174370
  56.2119910  36.9474780  33.5393840  55.3083990  37.2104980  33.3645500
  56.6960530  37.2185950  32.7593800  58.7547120  36.0040320  31.4488220
  59.4638820  35.5823540  30.9635500  58.0387060  36.0715550  30.8171570
  72.2112930  36.9272120  34.7562450  72.7072050  36.6942990  35.5411330
  72.0129000  36.0883960  34.3400090  58.0913470  31.3085840  40.3913490
  58.7389660  30.7583220  39.9508650  58.5115310  31.5628990  41.2129300
  71.9865810  31.5027200  43.7483130  72.6238030  32.1161340  44.1142320
  72.1340700  31.5387860  42.8032360  71.5447270  48.2043200  37.1501370
  72.1406340  47.8827770  36.4735790  71.8025420  47.7315020  37.9414640
  57.8445470  31.4641510  43.1338810  57.4960290  31.9205330  43.8996990
  57.5133170  30.5698640  43.2161240  59.4509840  44.6361110  47.2992000
  59.4079470  44.2654020  48.1806460  59.5820850  45.5738680  47.4393820
  63.1515870  46.1920700  42.9001720  62.9107230  46.4595260  42.0132240
  64.0918510  46.3626430  42.9552580  65.3570290  32.6553390  46.6558230
  65.2959180  33.2475220  47.4053640  66.2970670  32.5479350  46.5108490
  67.9944850  32.3123450  46.2950520  68.6085260  32.6302740  45.6331600
  68.5394410  31.8272040  46.9146380  58.5166110  30.9917710  46.4089580
  59.0649100  30.8105760  45.6455690  58.5821420  30.2011820  46.9445890
  59.2897870  47.5823360  44.4189780  58.6958190  47.4508060  45.1579820
  59.2821710  46.7461500  43.9531880  68.7352890  30.8755590  42.6219810
  67.8612730  31.2090700  42.4192740  68.6263640  30.4028770  43.4471680
  69.6424870  33.0826460  44.0061530  69.3138230  32.2678220  43.6263260
  70.5907170  33.0396270  43.8827220  72.0959480  48.8538500  40.9799100
  71.6362450  49.6054310  40.6057120  71.4671940  48.1344970  40.9213900
  58.9210100  44.9481740  43.3697820  58.1944160  44.3287030  43.3023770
  58.9819250  45.3422350  42.4995900  62.5255200  47.1626740  40.1547230
  63.0420220  46.5514100  39.6295490  63.1752580  47.6655520  40.6458240
  65.2650700  48.0535230  40.9816210  65.5528510  47.7989530  40.1049220
  65.7773920  47.5012590  41.5721780  66.4827710  31.7925430  41.5612720
  65.6999500  32.2670930  41.8409480  66.1890640  30.8880260  41.4525900
  71.0348780  32.4948530  39.6061810  71.4756870  32.4393630  38.7583410
  70.7656370  33.4106540  39.6771990  57.2040100  48.2656130  36.5794580
  57.0362140  47.6326810  37.2776470  56.3374610  48.4715530  36.2288770
  57.8268120  32.0972910  34.0826440  58.5847480  32.2101790  33.5090470
  57.3645290  32.9342110  34.0369870  64.3681930  34.2112180  37.0728750
  63.5556440  33.8369070  36.7324630  64.8723570  33.4557260  37.3749940
  68.8706910  30.8754630  38.3111820  69.4736280  31.4474840  38.7860340
  68.1299900  31.4394070  38.0885720  72.0141510  31.2776190  33.5852100
  72.2092140  32.1759640  33.8519530  71.2271380  31.0463270  34.0785050
  58.8102800  46.9589360  34.0244720  58.2850420  47.3397390  33.3206680
  58.7347380  47.5840130  34.7454430  60.1993270  32.6236960  32.6228410
  60.7286030  31.8366760  32.4936360  60.8321590  33.3028150  32.8563940
  62.3931110  32.3612100  35.6773800  61.7633850  31.6599410  35.8443930
  61.8536250  33.1216230  35.4606960  65.3323060  48.9751330  48.3484410
  66.2590370  48.7395600  48.3920370  65.3173490  49.8023330  47.8670440
  62.5186670  31.6396080  48.1126290  62.2370940  32.1429680  47.3487110
  62.9006370  30.8417830  47.7468420  61.4095770  48.9071740  32.8993970
  62.1414590  48.6231020  32.3517860  61.6689440  48.6685020  33.7893350
  60.5710560  45.0236470  32.9040300  59.9419440  45.4921570  33.4526130
  60.6858390  44.1785690  33.3386490  69.1202130  31.0549660  48.6906760
  69.0067580  31.3744270  49.5858280  69.9371870  31.4562170  48.3944040
  71.9000620  48.2021190  48.1725450  72.6925940  47.7070420  47.9651410
  72.1933770  48.8811330  48.7801060  68.0260280  39.0742130  19.0541500
  67.9454330  38.1596740  18.7833210  67.6124700  39.5709200  18.3481210
  66.1578320  40.8521150  20.9350770  65.3820420  40.3721590  21.2249340
  66.8091250  40.1726800  20.7606930  60.1744150  41.1640960  21.8126530
  59.3429030  40.9089670  22.2123040  60.7825130  41.2351730  22.5484450
  70.1785750  45.2581340  19.7149900  69.7167280  44.4868580  20.0437070
  70.9911300  45.2847410  20.2202350  60.1545410  45.1981050  22.0084550
  60.4573450  44.3078790  21.8294770  60.8989000  45.7551270  21.7806800
  58.5836100  36.1242850  15.5968920  57.6952800  36.4658820  15.4948800
  58.8677290  35.9243170  14.7049750  56.5469110  38.7248500  21.4808620
  57.1185220  37.9570700  21.4812260  56.5470650  39.0237260  20.5715230
  66.4049060  47.5439350  19.3353890  65.7860500  47.9996850  18.7648330
  67.2600840  47.6990810  18.9343590  65.5987310  43.5278340  20.9420930
  65.5295590  42.5868280  20.7810060  66.3607170  43.6179750  21.5143500
  57.7893980  34.1332860  23.2677550  57.6096820  33.2358610  23.5480310
  57.3874060  34.6804730  23.9424500  66.6292480  36.3348720  21.1689860
  67.0057300  35.4620600  21.0563530  66.5311990  36.6707420  20.2780300
  60.7597490  34.7074350  16.6307300  60.8664240  35.6078080  16.9376060
  59.8489850  34.6592320  16.3401950  70.4116600  33.8299160  18.1018200
  71.2326220  33.3395730  18.1443680  70.4450680  34.4196820  18.8550040
  58.4080650  36.6293360  21.8759890  59.0890760  36.8931730  22.4947290
  58.0928700  35.7894230  22.2097900  62.6005220  37.6760720  20.9632480
  63.1083440  38.1741690  21.6037500  63.1318460  36.8995920  20.7871840
  60.8841320  32.3159280  25.2295900  60.8859760  32.8331670  24.4241800
  60.0545630  31.8389460  25.2065830  67.2712410  42.4278590  16.7285800
  66.6529680  42.8928040  16.1648520  67.7835660  43.1206070  17.1455310
  62.1344170  41.9554460  23.4069400  61.8013550  42.5823380  24.0490470
  62.3110850  42.4816340  22.6271070  70.6478080  35.7699540  20.8745740
  69.9433650  36.0584430  21.4548850  71.0090240  36.5799650  20.5145300
  60.5656650  34.0269240  23.2366350  60.9073460  34.8711290  22.9420220
  59.6272460  34.1752980  23.3531690  61.3463270  43.9235260  25.2218580
  61.9637270  44.5986340  24.9403030  60.4856390  44.3323240  25.1306080
  56.6395610  43.1135120  14.1025430  56.2623590  43.6022220  13.3710330
  56.8968680  43.7860400  14.7331960  64.2484540  31.5151510  19.5610940
  64.5559520  30.9598400  18.8446440  63.3185240  31.6495970  19.3783930
  69.7999600  47.2318800  21.8518400  69.8126760  46.8281090  20.9840660
  69.2474820  48.0066090  21.7479830  71.0945020  43.9535020  16.9408570
  70.9841350  43.0109350  17.0657990  71.0913270  44.3150660  17.8271330
  69.1985040  42.1348640  23.1801010  69.6153830  41.9208750  22.3454470
  69.9224860  42.3921430  23.7509630  66.6365300  39.5800340  16.2971060
  65.7094580  39.5137720  16.5259530  66.7890120  40.5180470  16.1826300
  66.6234380  35.8517340  13.2938220  65.6838050  36.0131300  13.3790680
  66.9417640  36.5703020  12.7474210  70.6662590  41.1420640  16.8006310
  70.0475010  40.8040190  16.1532610  70.6487040  40.4980400  17.5085500
  70.1089150  37.3205180  24.2172120  69.6960330  38.1458890  24.4712110
  69.3765100  36.7350220  24.0248480  62.2421940  40.1065080  19.0790790
  61.8378940  39.3942330  18.5836690  62.3285060  39.7618320  19.9678830
  62.7103640  43.7932640  21.2430000  62.4131930  43.1878110  20.5637780
  63.6603460  43.8309950  21.1319360  60.9550560  36.8808290  22.8589830
  61.5065150  36.9903630  22.0843080  61.4694070  37.2545890  23.5745060
  70.7989250  47.3664510  24.9053100  70.3219810  48.1736700  24.7125710
  70.1151040  46.7142840  25.0579310  61.8022070  43.5314330  27.8937800
  60.9050600  43.7554300  28.1411200  61.8274940  43.6549270  26.9449200
  68.8427290  40.3807450  13.8079060  69.2820570  39.5429880  13.6616880
  69.5555710  41.0136850  13.8943200  60.6293290  40.4027650  26.4695170
  60.4901060  41.2750450  26.8382570  59.7474650  40.0600460  26.3243110
  66.9522670  45.3203520  17.7760300  67.3918580  46.0627850  17.3615690
  66.8909560  45.5630090  18.6999260  62.4273640  46.3449350  28.6780320
  62.3989070  46.7492300  27.8108750  62.2638610  45.4159710  28.5151920
  58.9426570  39.0010060  16.5797440  58.8224170  39.7272150  15.9678710
  58.6327460  38.2312970  16.1025350  56.5811940  42.1725200  22.3866080
  56.6592360  42.3073970  21.4421800  57.1953620  41.4641090  22.5794200
  57.8259570  43.8725390  18.7972260  57.4187650  44.0139980  17.9425860
  58.7172580  43.5885550  18.5943470  67.6438450  48.0217300  25.7039310
  68.1583120  47.9325310  26.5061740  66.8007530  48.3677000  25.9967220
  69.6192850  48.3072640  15.1323310  69.4593990  48.0175580  16.0305140
  69.4539560  47.5312770  14.5968540  62.0981230  48.0871170  16.9094930
  61.9223710  47.1706710  16.6962730  61.2436970  48.4458460  17.1492730
  69.3218980  45.8160200  13.6921310  68.6284140  45.8137490  13.0323590
  70.0641840  45.3919520  13.2615480  68.8868910  47.4422910  17.7669800
  69.3425860  46.6612290  18.0808420  69.2261430  48.1529730  18.3110980
  56.6371460  43.2139370  24.9260540  56.8002500  42.7444730  24.1079910
  57.1023910  42.7062930  25.5909380  61.4090230  32.3445130  19.9621110
  60.9658380  33.1254670  19.6305630  61.9675220  32.6675020  20.6692050
  65.6960040  35.2113650  25.5656430  65.2339410  35.4196670  26.3776370
  65.2938150  34.3973000  25.2627100  70.6964550  36.4322600  26.6953090
  69.8458140  36.1328350  27.0162160  70.5366340  36.6764610  25.7836910
  67.7914260  37.9324350  28.7951880  68.1167670  37.0988100  28.4554110
  68.5794590  38.4552870  28.9430210  64.5249050  31.9655830  14.8426940
  63.9003230  31.9615700  15.5680250  64.4379170  31.0986790  14.4462910
  63.4466130  32.8892460  21.8210710  63.7438460  33.7955290  21.7402730
  63.9951690  32.4011240  21.2070280  61.2004450  37.4678700  17.6902360
  60.9745370  37.2515870  18.5948980  60.4196980  37.9007160  17.3448330
  68.4302210  37.4742070  16.2893010  67.8311100  38.1977870  16.1056630
  68.9781820  37.4118850  15.5069460  63.6403660  38.3664280  28.3562630
  63.5447260  37.4259010  28.2063030  64.4835640  38.5879350  27.9610700
  67.0367080  36.1105610  18.3196290  67.4296650  36.4277810  17.5064980
  67.3983930  35.2317490  18.4340810  58.7714200  34.7777950  26.5096410
  58.3777590  35.6253160  26.7169190  58.0832600  34.1404320  26.7005050
  65.3459250  34.8612920  29.5793150  64.6557570  34.6685120  30.2139240
  66.0891550  35.1447560  30.1117450  56.0731250  32.7006410  20.5426490
  55.7844300  33.2709270  21.2551470  56.8177010  32.2210860  20.9057720
  56.2601480  36.6426530  11.7529210  56.1776150  37.5857290  11.8944200
  55.9084540  36.5001440  10.8741560  67.6222220  38.7011360  22.4147070
  66.8903340  39.2098170  22.7637170  67.2246560  37.8841340  22.1135850
  64.0599610  35.3765560  20.8199560  64.0635670  34.9355510  19.9704100
  64.9550730  35.6982890  20.9271380  59.9101990  35.2592050  19.7793770
  59.5702040  35.7367280  20.5360820  59.1479310  34.8057170  19.4194870
  64.1219760  36.3777640  13.8106320  64.2432580  36.3364120  14.7592140
  63.7368270  37.2401790  13.6553050  68.0848130  34.1545040  21.8270010
  68.1020870  34.6053690  22.6711860  67.8363710  33.2550680  22.0403450
  63.1341260  38.6878780  13.2089620  62.5658160  38.2397030  12.5825530
  63.8430260  39.0471560  12.6754770  71.5118880  31.5677220  27.6656390
  71.8364650  30.8366880  28.1914370  71.5475390  31.2490860  26.7637380
  58.2110440  42.5890800  27.0856350  57.8265230  41.9484470  27.6839310
  58.5222630  43.2926920  27.6551080  64.3607580  39.4367340  22.5664970
  64.7277710  38.9625910  23.3126310  64.1712640  40.3108910  22.9073310
  57.2248070  34.1811030  18.6958440  56.9394990  33.8166700  19.5337060
  57.1626930  33.4491490  18.0821580  62.1506950  38.4775980  24.8849180
  61.8464020  39.3567960  25.1099540  63.1053410  38.5375770  24.9206620
  60.6788740  42.6836970  15.4816030  59.9051000  42.1434590  15.3214750
  61.4083370  42.1643580  15.1433790  71.4376720  41.6802330  21.2742420
  72.1575840  42.1757620  20.8838530  71.2358540  41.0020220  20.6296290
  66.8986660  33.0740290  15.4171810  66.0851270  32.5753460  15.3417120
  66.7048610  33.9138540  15.0008160  66.8195520  41.7511390  27.1611420
  66.7532830  40.8307060  26.9069010  66.1900660  41.8486830  27.8756060
  69.6135050  37.4459940  13.7133970  70.5014670  37.7577170  13.5385310
  69.5840140  36.5732190  13.3214550  60.7226140  42.3517350  19.1194840
  61.2404810  41.5485610  19.0651730  60.2710160  42.2896490  19.9611670
  65.6095640  43.6183630  14.3922140  65.9511340  44.3625860  13.8965460
  64.7808350  43.9314750  14.7546970  58.2070680  39.3178720  26.0320540
  57.8485620  39.9832570  26.6193880  57.9125240  38.4862270  26.4033160
  61.4083800  39.7762960  28.9160090  61.1083940  39.9220140  28.0187910
  62.1795040  39.2168250  28.8233480  66.7512250  44.5731960  26.9115220
  66.7656790  43.6412920  26.6934130  66.0437350  44.6591720  27.5504990
  71.8849320  38.7571780  13.1813830  71.8013040  39.1886000  12.3310270
  72.6043510  39.2170130  13.6140650  68.4923050  42.9399470  19.7567650
  68.8446870  42.3427600  19.0969020  67.6085380  42.6143700  19.9275900
  64.5786330  43.6997160  17.1638060  65.2657460  44.2466370  17.5445650
  63.7918750  44.2437890  17.1987670  56.7178730  39.3169980  12.6555140
  57.5873580  39.5994780  12.9391060  56.2269050  40.1305850  12.5403950
  63.8813540  40.7043190  16.7763420  64.3376320  41.5148440  17.0023610
  63.5301750  40.3866330  17.6081910  66.1846150  46.2149530  24.0055720
  66.8288370  46.4208910  24.6829140  66.5475590  45.4537930  23.5526570
  59.7825320  31.0480840  17.2485940  59.6539950  31.0398740  18.1970860
  58.9587340  31.3863930  16.8976950  67.4578230  44.2181880  22.7233170
  68.1000460  43.5175040  22.8365340  67.9827580  44.9980320  22.5430060
  71.3033950  44.5030500  12.4472310  71.0771530  43.7860940  13.0396950
  70.9130150  44.2542940  11.6094060  69.2315850  45.0176780  25.9269230
  69.5672090  45.6043470  26.6047150  68.3116190  44.8869490  26.1567020
  57.0849980  48.5297360  13.2216770  57.4447620  49.1286700  12.5674040
  56.9442320  49.0757250  13.9951800  70.8850200  42.4202440  14.1086470
  70.5971900  42.8815130  14.8964350  71.6802370  41.9600210  14.3770690
  57.0691840  46.7952220  27.6959170  57.1782960  45.8546960  27.5554560
  56.4172400  47.0606970  27.0472900  65.0604430  45.0668110  29.0957290
  64.7401300  44.3477350  29.6402980  64.3862790  45.7423180  29.1693350
  63.1018600  45.9128560  14.0390440  63.0928700  46.6458250  13.4234950
  62.1816960  45.6660140  14.1317400  58.7025240  41.1343450  14.7837200
  58.0953190  41.8742350  14.7932500  59.1774590  41.2242810  13.9575400
  68.2758030  35.2994270  24.4594090  68.6438850  34.4789480  24.7873660
  67.4156230  35.3596160  24.8749740  71.6420060  34.2551210  15.2681650
  71.0133220  34.3596880  14.5539880  71.1471980  34.4747990  16.0575530
  66.0878200  45.9756800  12.7015630  66.1890180  45.7720790  11.7717610
  65.1879940  45.7215080  12.9063410  63.6104090  36.5337160  16.6839530
  62.9020240  37.0023500  17.1253140  63.8948570  35.8759170  17.3184720
  65.2360020  37.9533860  24.6832060  65.7345270  38.4279680  25.3483910
  65.3782970  37.0297380  24.8902090  67.6419520  33.2587820  18.1235320
  67.5187300  33.2773950  17.1744830  68.5904080  33.3066760  18.2433720
  64.7296310  48.4943120  17.3963300  64.9837810  48.4564510  16.4742670
  63.7808790  48.3676450  17.3891550  61.8139110  34.8422240  14.0590240
  62.6629640  35.2792390  13.9930430  61.4470380  35.1542500  14.8862300
  70.7348890  39.4135000  18.9721810  69.7939030  39.4285230  19.1469500
  71.0492960  38.6270960  19.4182110  60.7130530  41.0954600  12.5325770
  61.4793800  40.9835960  13.0951200  60.7905220  40.3992570  11.8802540
  59.4077290  38.5279670  13.2158660  59.4880880  37.5807180  13.3276060
  60.2997040  38.8586550  13.3219320  60.2092000  48.6775060  20.3193200
  60.9454480  48.1290520  20.5901770  60.5932920  49.5431070  20.1799190
  57.0937480  44.7448630  16.1934710  56.1677260  44.9869770  16.1840120
  57.5593910  45.5722890  16.0719460  59.2150280  47.8621130  29.5078780
  60.0163010  48.1833180  29.9214180  58.7002100  47.5016710  30.2298690
  63.3194310  47.8505370  12.1418770  64.1122920  48.1394200  11.6900560
  62.7998660  47.4197540  11.4631250  68.0514910  43.9701000  29.4554190
  67.4453070  43.9932600  28.7149940  67.7469020  43.2384040  29.9921440
  69.4815280  47.6981290  28.0663600  70.4337030  47.6139310  28.0163840
  69.3343500  48.3623000  28.7397390  72.3724480  47.0775500  13.5655510
  72.0865990  46.6640640  12.7509690  72.1744030  48.0063210  13.4456030
  56.9348090  40.3494590  28.4514830  57.4387110  39.7701870  29.0231060
  56.1955510  40.6334820  28.9891200  63.8371710  43.0708780  12.0061120
  63.7322350  42.4561130  12.7322500  63.6695930  42.5474670  11.2224130
  63.9886030  41.7565580  27.9850350  63.2231700  42.3250580  27.9005020
  64.1701990  41.4641790  27.0918580  67.0774440  42.1328810  12.6103110
  66.5284540  42.5798110  13.2545850  67.6993700  41.6278060  13.1340780
  71.1309380  43.4870910  28.5425370  71.8718850  43.8246670  28.0392830
  70.3682060  43.6562970  27.9895140  58.9671170  38.4924180  29.3464900
  59.0076510  38.1938050  30.2550130  59.8216670  38.8931790  29.1872420
  62.7449560  41.0919730  14.5068410  63.1665980  40.9259600  15.3499800
  62.8700400  40.2819960  14.0123550  60.9076980  37.0716280  27.3139390
  60.3773440  36.5807230  26.6862730  61.5765050  37.5000480  26.7797320
  65.2577200  40.1157340  11.7545510  65.7782860  39.4006360  11.3886660
  65.9045600  40.7543210  12.0546020  69.8055040  41.5385740  27.0780580
  70.2196060  41.6930820  27.9271000  68.8706040  41.6640960  27.2406360
  70.2777210  38.8781900  29.0819730  70.8597980  38.1234220  28.9940210
  70.4538980  39.4089340  28.3051210  61.3949280  34.0378650  27.3936680
  61.3006150  33.4199400  26.6687550  60.8146670  34.7644940  27.1666590
  64.1610720  32.5951890  24.4264070  63.7128020  32.6176150  23.5809620
  63.5275920  32.1970910  25.0234370  64.5670270  41.4906220  25.0476510
  64.9858380  42.3338950  24.8752750  63.6478900  41.6278260  24.8183290
  66.9034170  39.2222400  26.4314350  67.0230380  38.6263540  27.1709190
  67.7628170  39.2592090  26.0115650  69.2422070  39.7759590  25.0076860
  68.7157290  40.3002210  24.4042000  69.5853410  40.4086980  25.6386590
  61.6408460  37.1652960  11.4526570  61.4397520  36.3020320  11.8139910
  61.4700510  37.0786320  10.5148170  62.4177690  47.7959230  26.1634240
  61.8798780  48.5205290  25.8442940  62.6711650  47.3189570  25.3731580
  63.6702940  35.7643750  27.6890170  64.2602630  35.4559600  28.3767990
  62.8523180  35.2923500  27.8450070  68.4896370  35.3809560  27.9223190
  67.8011890  34.7191100  27.8573180  69.2102390  34.9347830  28.3671650
  69.1196770  31.9761190  13.9813450  69.3999060  31.1329090  14.3372870
  68.3462500  32.2084300  14.4952200  60.4391260  34.2653580  11.4404450
  60.7417160  34.2721010  10.5323600  61.1785850  33.9151440  11.9372110
  65.2739900  49.0310440  26.4220890  65.1998600  49.9345580  26.7293260
  64.3718740  48.7122340  26.3942960  63.6576190  33.2088200  12.4260650
  63.3098190  32.5312190  11.8463100  63.8588960  32.7477710  13.2404040
  65.8225230  48.1968950  14.0447250  66.7176020  48.5353920  14.0666010
  65.8542860  47.4748360  13.4171530  59.4621390  43.5696000  12.2734250
  59.8996260  44.1125670  12.9291830  59.9469120  42.7442950  12.2830590
  56.6767190  46.3585030  19.7254510  57.0070200  45.4906090  19.4933150
  57.1058190  46.5643550  20.5559470  61.2729110  44.6894040  17.3856480
  60.9724650  44.5659010  18.2860390  61.1666600  43.8302630  16.9772210
  57.1657400  47.2255620  22.4636140  56.7288390  47.4056420  23.2960290
  57.7335080  47.9830240  22.3217860  56.9981830  39.7375850  18.8225020
  56.3430670  39.4687490  18.1784720  57.8359780  39.6280330  18.3727000
  71.4871220  43.4524600  24.8489610  70.6731060  43.8821760  25.1115400
  71.8945420  44.0643010  24.2358660  69.9472270  34.5317140  13.0443510
  70.3657150  34.3448120  12.2040170  69.6408330  33.6796190  13.3546440
  58.0357760  40.1228420  23.3628360  58.4030800  40.0355820  24.2424380
  57.4668580  39.3594970  23.2635220  57.5873760  37.0337510  27.2686780
  56.6929810  37.0004270  27.6080490  58.1271310  37.2324300  28.0338030
  71.2749690  33.8169230  29.1538530  72.1519870  33.8252630  29.5372530
  71.2870530  33.0800070  28.5430880  56.2119910  36.9474780  14.7650350
  55.3083990  37.2104980  14.5902010  56.6960530  37.2185950  13.9850310
  58.7547120  36.0040320  12.6744730  59.4638820  35.5823540  12.1892010
  58.0387060  36.0715550  12.0428080  58.4021280  32.0579650  11.7147380
  59.1249410  32.5988590  12.0328600  58.6745800  31.7843070  10.8388920
  72.2112930  36.9272120  15.9818960  72.7072050  36.6942990  16.7667840
  72.0129000  36.0883960  15.5656600  58.0913470  31.3085840  21.6170000
  58.7389660  30.7583220  21.1765160  58.5115310  31.5628990  22.4385810
  71.9865810  31.5027200  24.9739640  72.6238030  32.1161340  25.3398830
  72.1340700  31.5387860  24.0288870  71.5447270  48.2043200  18.3757880
  72.1406340  47.8827770  17.6992300  71.8025420  47.7315020  19.1671150
  57.8445470  31.4641510  24.3595320  57.4960290  31.9205330  25.1253500
  57.5133170  30.5698640  24.4417750  59.4509840  44.6361110  28.5248510
  59.4079470  44.2654020  29.4062970  59.5820850  45.5738680  28.6650330
  63.1515870  46.1920700  24.1258230  62.9107230  46.4595260  23.2388750
  64.0918510  46.3626430  24.1809090  65.3570290  32.6553390  27.8814740
  65.2959180  33.2475220  28.6310150  66.2970670  32.5479350  27.7365000
  67.9944850  32.3123450  27.5207030  68.6085260  32.6302740  26.8588110
  68.5394410  31.8272040  28.1402890  59.2897870  47.5823360  25.6446290
  58.6958190  47.4508060  26.3836330  59.2821710  46.7461500  25.1788390
  68.7352890  30.8755590  23.8476320  67.8612730  31.2090700  23.6449250
  68.6263640  30.4028770  24.6728190  69.6424870  33.0826460  25.2318040
  69.3138230  32.2678220  24.8519770  70.5907170  33.0396270  25.1083730
  72.0959480  48.8538500  22.2055610  71.6362450  49.6054310  21.8313630
  71.4671940  48.1344970  22.1470410  58.9210100  44.9481740  24.5954330
  58.1944160  44.3287030  24.5280280  58.9819250  45.3422350  23.7252410
  62.5255200  47.1626740  21.3803740  63.0420220  46.5514100  20.8552000
  63.1752580  47.6655520  21.8714750  65.2650700  48.0535230  22.2072720
  65.5528510  47.7989530  21.3305730  65.7773920  47.5012590  22.7978290
  66.4827710  31.7925430  22.7869230  65.6999500  32.2670930  23.0665990
  66.1890640  30.8880260  22.6782410  71.0348780  32.4948530  20.8318320
  71.4756870  32.4393630  19.9839920  70.7656370  33.4106540  20.9028500
  57.2040100  48.2656130  17.8051090  57.0362140  47.6326810  18.5032980
  56.3374610  48.4715530  17.4545280  57.8268120  32.0972910  15.3082950
  58.5847480  32.2101790  14.7346980  57.3645290  32.9342110  15.2626380
  64.3681930  34.2112180  18.2985260  63.5556440  33.8369070  17.9581140
  64.8723570  33.4557260  18.6006450  68.8706910  30.8754630  19.5368330
  69.4736280  31.4474840  20.0116850  68.1299900  31.4394070  19.3142230
  72.0141510  31.2776190  14.8108610  72.2092140  32.1759640  15.0776040
  71.2271380  31.0463270  15.3041560  58.8102800  46.9589360  15.2501230
  58.2850420  47.3397390  14.5463190  58.7347380  47.5840130  15.9710940
  60.1993270  32.6236960  13.8484920  60.7286030  31.8366760  13.7192870
  60.8321590  33.3028150  14.0820450  62.3931110  32.3612100  16.9030310
  61.7633850  31.6599410  17.0700440  61.8536250  33.1216230  16.6863470
  65.3323060  48.9751330  29.5740920  66.2590370  48.7395600  29.6176880
  65.3173490  49.8023330  29.0926950  62.5186670  31.6396080  29.3382800
  62.2370940  32.1429680  28.5743620  62.9006370  30.8417830  28.9724930
  61.4095770  48.9071740  14.1250480  62.1414590  48.6231020  13.5774370
  61.6689440  48.6685020  15.0149860  60.5710560  45.0236470  14.1296810
  59.9419440  45.4921570  14.6782640  60.6858390  44.1785690  14.5643000
  69.1202130  31.0549660  29.9163270  69.0067580  31.3744270  30.8114790
  69.9371870  31.4562170  29.6200550  71.9000620  48.2021190  29.3981960
  72.6925940  47.7070420  29.1907920  72.1933770  48.8811330  30.0057570
  66.1578320  40.8521150   2.1607280  65.3820420  40.3721590   2.4505850
  66.8091250  40.1726800   1.9863440  60.1744150  41.1640960   3.0383040
  59.3429030  40.9089670   3.4379550  60.7825130  41.2351730   3.7740960
  60.1545410  45.1981050   3.2341060  60.4573450  44.3078790   3.0551280
  60.8989000  45.7551270   3.0063310  56.5469110  38.7248500   2.7065130
  57.1185220  37.9570700   2.7068770  56.5470650  39.0237260   1.7971740
  65.5987310  43.5278340   2.1677440  65.5295590  42.5868280   2.0066570
  66.3607170  43.6179750   2.7400010  57.7893980  34.1332860   4.4934060
  57.6096820  33.2358610   4.7736820  57.3874060  34.6804730   5.1681010
  58.4080650  36.6293360   3.1016400  59.0890760  36.8931730   3.7203800
  58.0928700  35.7894230   3.4354410  62.6005220  37.6760720   2.1888990
  63.1083440  38.1741690   2.8294010  63.1318460  36.8995920   2.0128350
  60.8841320  32.3159280   6.4552410  60.8859760  32.8331670   5.6498310
  60.0545630  31.8389460   6.4322340  62.1344170  41.9554460   4.6325910
  61.8013550  42.5823380   5.2746980  62.3110850  42.4816340   3.8527580
  70.6478080  35.7699540   2.1002250  69.9433650  36.0584430   2.6805360
  71.0090240  36.5799650   1.7401810  60.5656650  34.0269240   4.4622860
  60.9073460  34.8711290   4.1676730  59.6272460  34.1752980   4.5788200
  61.3463270  43.9235260   6.4475090  61.9637270  44.5986340   6.1659540
  60.4856390  44.3323240   6.3562590  69.7999600  47.2318800   3.0774910
  69.8126760  46.8281090   2.2097170  69.2474820  48.0066090   2.9736340
  69.1985040  42.1348640   4.4057520  69.6153830  41.9208750   3.5710980
  69.9224860  42.3921430   4.9766140  70.1089150  37.3205180   5.4428630
  69.6960330  38.1458890   5.6968620  69.3765100  36.7350220   5.2504990
  62.7103640  43.7932640   2.4686510  62.4131930  43.1878110   1.7894290
  63.6603460  43.8309950   2.3575870  60.9550560  36.8808290   4.0846340
  61.5065150  36.9903630   3.3099590  61.4694070  37.2545890   4.8001570
  70.7989250  47.3664510   6.1309610  70.3219810  48.1736700   5.9382220
  70.1151040  46.7142840   6.2835820  61.8022070  43.5314330   9.1194310
  60.9050600  43.7554300   9.3667710  61.8274940  43.6549270   8.1705710
  60.6293290  40.4027650   7.6951680  60.4901060  41.2750450   8.0639080
  59.7474650  40.0600460   7.5499620  62.4273640  46.3449350   9.9036830
  62.3989070  46.7492300   9.0365260  62.2638610  45.4159710   9.7408430
  56.5811940  42.1725200   3.6122590  56.6592360  42.3073970   2.6678310
  57.1953620  41.4641090   3.8050710  67.6438450  48.0217300   6.9295820
  68.1583120  47.9325310   7.7318250  66.8007530  48.3677000   7.2223730
  56.6371460  43.2139370   6.1517050  56.8002500  42.7444730   5.3336420
  57.1023910  42.7062930   6.8165890  65.6960040  35.2113650   6.7912940
  65.2339410  35.4196670   7.6032880  65.2938150  34.3973000   6.4883610
  70.6964550  36.4322600   7.9209600  69.8458140  36.1328350   8.2418670
  70.5366340  36.6764610   7.0093420  67.7914260  37.9324350  10.0208390
  68.1167670  37.0988100   9.6810620  68.5794590  38.4552870  10.1686720
  63.4466130  32.8892460   3.0467220  63.7438460  33.7955290   2.9659240
  63.9951690  32.4011240   2.4326790  63.6403660  38.3664280   9.5819140
  63.5447260  37.4259010   9.4319540  64.4835640  38.5879350   9.1867210
  58.7714200  34.7777950   7.7352920  58.3777590  35.6253160   7.9425700
  58.0832600  34.1404320   7.9261560  65.3459250  34.8612920  10.8049660
  64.6557570  34.6685120  11.4395750  66.0891550  35.1447560  11.3373960
  56.0731250  32.7006410   1.7683000  55.7844300  33.2709270   2.4807980
  56.8177010  32.2210860   2.1314230  67.6222220  38.7011360   3.6403580
  66.8903340  39.2098170   3.9893680  67.2246560  37.8841340   3.3392360
  68.0848130  34.1545040   3.0526520  68.1020870  34.6053690   3.8968370
  67.8363710  33.2550680   3.2659960  71.5118880  31.5677220   8.8912900
  71.8364650  30.8366880   9.4170880  71.5475390  31.2490860   7.9893890
  58.2110440  42.5890800   8.3112860  57.8265230  41.9484470   8.9095820
  58.5222630  43.2926920   8.8807590  64.3607580  39.4367340   3.7921480
  64.7277710  38.9625910   4.5382820  64.1712640  40.3108910   4.1329820
  62.1506950  38.4775980   6.1105690  61.8464020  39.3567960   6.3356050
  63.1053410  38.5375770   6.1463130  71.4376720  41.6802330   2.4998930
  72.1575840  42.1757620   2.1095040  71.2358540  41.0020220   1.8552800
  66.8195520  41.7511390   8.3867930  66.7532830  40.8307060   8.1325520
  66.1900660  41.8486830   9.1012570  58.2070680  39.3178720   7.2577050
  57.8485620  39.9832570   7.8450390  57.9125240  38.4862270   7.6289670
  61.4083800  39.7762960  10.1416600  61.1083940  39.9220140   9.2444420
  62.1795040  39.2168250  10.0489990  66.7512250  44.5731960   8.1371730
  66.7656790  43.6412920   7.9190640  66.0437350  44.6591720   8.7761500
  66.1846150  46.2149530   5.2312230  66.8288370  46.4208910   5.9085650
  66.5475590  45.4537930   4.7783080  67.4578230  44.2181880   3.9489680
  68.1000460  43.5175040   4.0621850  67.9827580  44.9980320   3.7686570
  69.2315850  45.0176780   7.1525740  69.5672090  45.6043470   7.8303660
  68.3116190  44.8869490   7.3823530  56.7819250  32.8071960   7.9349150
  56.0677770  33.0068880   8.5401760  57.2014290  32.0311530   8.3063950
  57.0691840  46.7952220   8.9215680  57.1782960  45.8546960   8.7811070
  56.4172400  47.0606970   8.2729410  65.0604430  45.0668110  10.3213800
  64.7401300  44.3477350  10.8659490  64.3862790  45.7423180  10.3949860
  68.2758030  35.2994270   5.6850600  68.6438850  34.4789480   6.0130170
  67.4156230  35.3596160   6.1006250  65.2360020  37.9533860   5.9088570
  65.7345270  38.4279680   6.5740420  65.3782970  37.0297380   6.1158600
  59.2150280  47.8621130  10.7335290  60.0163010  48.1833180  11.1470690
  58.7002100  47.5016710  11.4555200  68.0514910  43.9701000  10.6810700
  67.4453070  43.9932600   9.9406450  67.7469020  43.2384040  11.2177950
  69.4815280  47.6981290   9.2920110  70.4337030  47.6139310   9.2420350
  69.3343500  48.3623000   9.9653900  56.9348090  40.3494590   9.6771340
  57.4387110  39.7701870  10.2487570  56.1955510  40.6334820  10.2147710
  63.9886030  41.7565580   9.2106860  63.2231700  42.3250580   9.1261530
  64.1701990  41.4641790   8.3175090  71.1309380  43.4870910   9.7681880
  71.8718850  43.8246670   9.2649340  70.3682060  43.6562970   9.2151650
  58.9671170  38.4924180  10.5721410  59.0076510  38.1938050  11.4806640
  59.8216670  38.8931790  10.4128930  60.9076980  37.0716280   8.5395900
  60.3773440  36.5807230   7.9119240  61.5765050  37.5000480   8.0053830
  69.8055040  41.5385740   8.3037090  70.2196060  41.6930820   9.1527510
  68.8706040  41.6640960   8.4662870  70.2777210  38.8781900  10.3076240
  70.8597980  38.1234220  10.2196720  70.4538980  39.4089340   9.5307720
  61.3949280  34.0378650   8.6193190  61.3006150  33.4199400   7.8944060
  60.8146670  34.7644940   8.3923100  64.1610720  32.5951890   5.6520580
  63.7128020  32.6176150   4.8066130  63.5275920  32.1970910   6.2490880
  64.5670270  41.4906220   6.2733020  64.9858380  42.3338950   6.1009260
  63.6478900  41.6278260   6.0439800  66.9034170  39.2222400   7.6570860
  67.0230380  38.6263540   8.3965700  67.7628170  39.2592090   7.2372160
  69.2422070  39.7759590   6.2333370  68.7157290  40.3002210   5.6298510
  69.5853410  40.4086980   6.8643100  62.4177690  47.7959230   7.3890750
  61.8798780  48.5205290   7.0699450  62.6711650  47.3189570   6.5988090
  63.6702940  35.7643750   8.9146680  64.2602630  35.4559600   9.6024500
  62.8523180  35.2923500   9.0706580  68.4896370  35.3809560   9.1479700
  67.8011890  34.7191100   9.0829690  69.2102390  34.9347830   9.5928160
  65.2739900  49.0310440   7.6477400  65.1998600  49.9345580   7.9549770
  64.3718740  48.7122340   7.6199470  57.1657400  47.2255620   3.6892650
  56.7288390  47.4056420   4.5216800  57.7335080  47.9830240   3.5474370
  71.4871220  43.4524600   6.0746120  70.6731060  43.8821760   6.3371910
  71.8945420  44.0643010   5.4615170  58.0357760  40.1228420   4.5884870
  58.4030800  40.0355820   5.4680890  57.4668580  39.3594970   4.4891730
  57.5873760  37.0337510   8.4943290  56.6929810  37.0004270   8.8337000
  58.1271310  37.2324300   9.2594540  71.2749690  33.8169230  10.3795040
  72.1519870  33.8252630  10.7629040  71.2870530  33.0800070   9.7687390
  58.0913470  31.3085840   2.8426510  58.7389660  30.7583220   2.4021670
  58.5115310  31.5628990   3.6642320  71.9865810  31.5027200   6.1996150
  72.6238030  32.1161340   6.5655340  72.1340700  31.5387860   5.2545380
  57.8445470  31.4641510   5.5851830  57.4960290  31.9205330   6.3510010
  57.5133170  30.5698640   5.6674260  59.4509840  44.6361110   9.7505020
  59.4079470  44.2654020  10.6319480  59.5820850  45.5738680   9.8906840
  63.1515870  46.1920700   5.3514740  62.9107230  46.4595260   4.4645260
  64.0918510  46.3626430   5.4065600  65.3570290  32.6553390   9.1071250
  65.2959180  33.2475220   9.8566660  66.2970670  32.5479350   8.9621510
  67.9944850  32.3123450   8.7463540  68.6085260  32.6302740   8.0844620
  68.5394410  31.8272040   9.3659400  58.5166110  30.9917710   8.8602600
  59.0649100  30.8105760   8.0968710  58.5821420  30.2011820   9.3958910
  59.2897870  47.5823360   6.8702800  58.6958190  47.4508060   7.6092840
  59.2821710  46.7461500   6.4044900  68.7352890  30.8755590   5.0732830
  67.8612730  31.2090700   4.8705760  68.6263640  30.4028770   5.8984700
  69.6424870  33.0826460   6.4574550  69.3138230  32.2678220   6.0776280
  70.5907170  33.0396270   6.3340240  72.0959480  48.8538500   3.4312120
  71.6362450  49.6054310   3.0570140  71.4671940  48.1344970   3.3726920
  58.9210100  44.9481740   5.8210840  58.1944160  44.3287030   5.7536790
  58.9819250  45.3422350   4.9508920  62.5255200  47.1626740   2.6060250
  63.0420220  46.5514100   2.0808510  63.1752580  47.6655520   3.0971260
  65.2650700  48.0535230   3.4329230  65.5528510  47.7989530   2.5562240
  65.7773920  47.5012590   4.0234800  66.4827710  31.7925430   4.0125740
  65.6999500  32.2670930   4.2922500  66.1890640  30.8880260   3.9038920
  65.3323060  48.9751330  10.7997430  66.2590370  48.7395600  10.8433390
  65.3173490  49.8023330  10.3183460  62.5186670  31.6396080  10.5639310
  62.2370940  32.1429680   9.8000130  62.9006370  30.8417830  10.1981440
  69.1202130  31.0549660  11.1419780  69.0067580  31.3744270  12.0371300
  69.9371870  31.4562170  10.8457060  71.9000620  48.2021190  10.6238470
  72.6925940  47.7070420  10.4164430  72.1933770  48.8811330  11.2314080
  68.0260280  20.2998640  56.6028480  67.9454330  19.3853250  56.3320190
  67.6124700  20.7965710  55.8968190  70.1785750  26.4837850  57.2636880
  69.7167280  25.7125090  57.5924050  70.9911300  26.5103920  57.7689330
  58.5836100  17.3499360  53.1455900  57.6952800  17.6915330  53.0435780
  58.8677290  17.1499680  52.2536730  66.4049060  28.7695860  56.8840870
  65.7860500  29.2253360  56.3135310  67.2600840  28.9247320  56.4830570
  60.7597490  15.9330860  54.1794280  60.8664240  16.8334590  54.4863040
  59.8489850  15.8848830  53.8888930  70.4116600  15.0555670  55.6505180
  71.2326220  14.5652240  55.6930660  70.4450680  15.6453330  56.4037020
  67.2712410  23.6535100  54.2772780  66.6529680  24.1184550  53.7135500
  67.7835660  24.3462580  54.6942290  56.6395610  24.3391630  51.6512410
  56.2623590  24.8278730  50.9197310  56.8968680  25.0116910  52.2818940
  64.2484540  12.7408020  57.1097920  64.5559520  12.1854910  56.3933420
  63.3185240  12.8752480  56.9270910  71.0945020  25.1791530  54.4895550
  70.9841350  24.2365860  54.6144970  71.0913270  25.5407170  55.3758310
  66.6365300  20.8056850  53.8458040  65.7094580  20.7394230  54.0746510
  66.7890120  21.7436980  53.7313280  66.6234380  17.0773850  50.8425200
  65.6838050  17.2387810  50.9277660  66.9417640  17.7959530  50.2961190
  70.6662590  22.3677150  54.3493290  70.0475010  22.0296700  53.7019590
  70.6487040  21.7236910  55.0572480  62.2421940  21.3321590  56.6277770
  61.8378940  20.6198840  56.1323670  62.3285060  20.9874830  57.5165810
  68.8427290  21.6063960  51.3566040  69.2820570  20.7686390  51.2103860
  69.5555710  22.2393360  51.4430180  66.9522670  26.5460030  55.3247280
  67.3918580  27.2884360  54.9102670  66.8909560  26.7886600  56.2486240
  58.9426570  20.2266570  54.1284420  58.8224170  20.9528660  53.5165690
  58.6327460  19.4569480  53.6512330  57.8259570  25.0981900  56.3459240
  57.4187650  25.2396490  55.4912840  58.7172580  24.8142060  56.1430450
  69.6192850  29.5329150  52.6810290  69.4593990  29.2432090  53.5792120
  69.4539560  28.7569280  52.1455520  62.0981230  29.3127680  54.4581910
  61.9223710  28.3963220  54.2449710  61.2436970  29.6714970  54.6979710
  69.3218980  27.0416710  51.2408290  68.6284140  27.0394000  50.5810570
  70.0641840  26.6176030  50.8102460  68.8868910  28.6679420  55.3156780
  69.3425860  27.8868800  55.6295400  69.2261430  29.3786240  55.8597960
  61.4090230  13.5701640  57.5108090  60.9658380  14.3511180  57.1792610
  61.9675220  13.8931530  58.2179030  64.5249050  13.1912340  52.3913920
  63.9003230  13.1872210  53.1167230  64.4379170  12.3243300  51.9949890
  61.2004450  18.6935210  55.2389340  60.9745370  18.4772380  56.1435960
  60.4196980  19.1263670  54.8935310  68.4302210  18.6998580  53.8379990
  67.8311100  19.4234380  53.6543610  68.9781820  18.6375360  53.0556440
  67.0367080  17.3362120  55.8683270  67.4296650  17.6534320  55.0551960
  67.3983930  16.4574000  55.9827790  56.2601480  17.8683040  49.3016190
  56.1776150  18.8113800  49.4431180  55.9084540  17.7257950  48.4228540
  64.0599610  16.6022070  58.3686540  64.0635670  16.1612020  57.5191080
  64.9550730  16.9239400  58.4758360  59.9101990  16.4848560  57.3280750
  59.5702040  16.9623790  58.0847800  59.1479310  16.0313680  56.9681850
  64.1219760  17.6034150  51.3593300  64.2432580  17.5620630  52.3079120
  63.7368270  18.4658300  51.2040030  63.1341260  19.9135290  50.7576600
  62.5658160  19.4653540  50.1312510  63.8430260  20.2728070  50.2241750
  57.2248070  15.4067540  56.2445420  56.9394990  15.0423210  57.0824040
  57.1626930  14.6748000  55.6308560  60.6788740  23.9093480  53.0303010
  59.9051000  23.3691100  52.8701730  61.4083370  23.3900090  52.6920770
  66.8986660  14.2996800  52.9658790  66.0851270  13.8009970  52.8904100
  66.7048610  15.1395050  52.5495140  69.6135050  18.6716450  51.2620950
  70.5014670  18.9833680  51.0872290  69.5840140  17.7988700  50.8701530
  60.7226140  23.5773860  56.6681820  61.2404810  22.7742120  56.6138710
  60.2710160  23.5153000  57.5098650  65.6095640  24.8440140  51.9409120
  65.9511340  25.5882370  51.4452440  64.7808350  25.1571260  52.3033950
  71.8849320  19.9828290  50.7300810  71.8013040  20.4142510  49.8797250
  72.6043510  20.4426640  51.1627630  68.4923050  24.1655980  57.3054630
  68.8446870  23.5684110  56.6456000  67.6085380  23.8400210  57.4762880
  64.5786330  24.9253670  54.7125040  65.2657460  25.4722880  55.0932630
  63.7918750  25.4694400  54.7474650  56.7178730  20.5426490  50.2042120
  57.5873580  20.8251290  50.4878040  56.2269050  21.3562360  50.0890930
  63.8813540  21.9299700  54.3250400  64.3376320  22.7404950  54.5510590
  63.5301750  21.6122840  55.1568890  59.7825320  12.2737350  54.7972920
  59.6539950  12.2655250  55.7457840  58.9587340  12.6120440  54.4463930
  71.3033950  25.7287010  49.9959290  71.0771530  25.0117450  50.5883930
  70.9130150  25.4799450  49.1581040  57.0849980  29.7553870  50.7703750
  57.4447620  30.3543210  50.1161020  56.9442320  30.3013760  51.5438780
  70.8850200  23.6458950  51.6573450  70.5971900  24.1071640  52.4451330
  71.6802370  23.1856720  51.9257670  63.1018600  27.1385070  51.5877420
  63.0928700  27.8714760  50.9721930  62.1816960  26.8916650  51.6804380
  58.7025240  22.3599960  52.3324180  58.0953190  23.0998860  52.3419480
  59.1774590  22.4499320  51.5062380  71.6420060  15.4807720  52.8168630
  71.0133220  15.5853390  52.1026860  71.1471980  15.7004500  53.6062510
  66.0878200  27.2013310  50.2502610  66.1890180  26.9977300  49.3204590
  65.1879940  26.9471590  50.4550390  63.6104090  17.7593670  54.2326510
  62.9020240  18.2280010  54.6740120  63.8948570  17.1015680  54.8671700
  67.6419520  14.4844330  55.6722300  67.5187300  14.5030460  54.7231810
  68.5904080  14.5323270  55.7920700  64.7296310  29.7199630  54.9450280
  64.9837810  29.6821020  54.0229650  63.7808790  29.5932960  54.9378530
  61.8139110  16.0678750  51.6077220  62.6629640  16.5048900  51.5417410
  61.4470380  16.3799010  52.4349280  70.7348890  20.6391510  56.5208790
  69.7939030  20.6541740  56.6956480  71.0492960  19.8527470  56.9669090
  60.7130530  22.3211110  50.0812750  61.4793800  22.2092470  50.6438180
  60.7905220  21.6249080  49.4289520  59.4077290  19.7536180  50.7645640
  59.4880880  18.8063690  50.8763040  60.2997040  20.0843060  50.8706300
  60.2092000  29.9031570  57.8680180  60.9454480  29.3547030  58.1388750
  60.5932920  30.7687580  57.7286170  57.0937480  25.9705140  53.7421690
  56.1677260  26.2126280  53.7327100  57.5593910  26.7979400  53.6206440
  63.3194310  29.0761880  49.6905750  64.1122920  29.3650710  49.2387540
  62.7998660  28.6454050  49.0118230  72.3724480  28.3032010  51.1142490
  72.0865990  27.8897150  50.2996670  72.1744030  29.2319720  50.9943010
  63.8371710  24.2965290  49.5548100  63.7322350  23.6817640  50.2809480
  63.6695930  23.7731180  48.7711110  67.0774440  23.3585320  50.1590090
  66.5284540  23.8054620  50.8032830  67.6993700  22.8534570  50.6827760
  62.7449560  22.3176240  52.0555390  63.1665980  22.1516110  52.8986780
  62.8700400  21.5076470  51.5610530  65.2577200  21.3413850  49.3032490
  65.7782860  20.6262870  48.9373640  65.9045600  21.9799720  49.6033000
  61.6408460  18.3909470  49.0013550  61.4397520  17.5276830  49.3626890
  61.4700510  18.3042830  48.0635150  69.1196770  13.2017700  51.5300430
  69.3999060  12.3585600  51.8859850  68.3462500  13.4340810  52.0439180
  60.4391260  15.4910090  48.9891430  60.7417160  15.4977520  48.0810580
  61.1785850  15.1407950  49.4859090  63.6576190  14.4344710  49.9747630
  63.3098190  13.7568700  49.3950080  63.8588960  13.9734220  50.7891020
  65.8225230  29.4225460  51.5934230  66.7176020  29.7610430  51.6152990
  65.8542860  28.7004870  50.9658510  59.4621390  24.7952510  49.8221230
  59.8996260  25.3382180  50.4778810  59.9469120  23.9699460  49.8317570
  56.6767190  27.5841540  57.2741490  57.0070200  26.7162600  57.0420130
  57.1058190  27.7900060  58.1046450  61.2729110  25.9150550  54.9343460
  60.9724650  25.7915520  55.8347370  61.1666600  25.0559140  54.5259190
  56.9981830  20.9632360  56.3712000  56.3430670  20.6944000  55.7271700
  57.8359780  20.8536840  55.9213980  69.9472270  15.7573650  50.5930490
  70.3657150  15.5704630  49.7527150  69.6408330  14.9052700  50.9033420
  56.2119910  18.1731290  52.3137330  55.3083990  18.4361490  52.1388990
  56.6960530  18.4442460  51.5337290  58.7547120  17.2296830  50.2231710
  59.4638820  16.8080050  49.7378990  58.0387060  17.2972060  49.5915060
  58.4021280  13.2836160  49.2634360  59.1249410  13.8245100  49.5815580
  58.6745800  13.0099580  48.3875900  72.2112930  18.1528630  53.5305940
  72.7072050  17.9199500  54.3154820  72.0129000  17.3140470  53.1143580
  71.5447270  29.4299710  55.9244860  72.1406340  29.1084280  55.2479280
  71.8025420  28.9571530  56.7158130  71.0348780  13.7205040  58.3805300
  71.4756870  13.6650140  57.5326900  70.7656370  14.6363050  58.4515480
  57.2040100  29.4912640  55.3538070  57.0362140  28.8583320  56.0519960
  56.3374610  29.6972040  55.0032260  57.8268120  13.3229420  52.8569930
  58.5847480  13.4358300  52.2833960  57.3645290  14.1598620  52.8113360
  64.3681930  15.4368690  55.8472240  63.5556440  15.0625580  55.5068120
  64.8723570  14.6813770  56.1493430  68.8706910  12.1011140  57.0855310
  69.4736280  12.6731350  57.5603830  68.1299900  12.6650580  56.8629210
  72.0141510  12.5032700  52.3595590  72.2092140  13.4016150  52.6263020
  71.2271380  12.2719780  52.8528540  58.8102800  28.1845870  52.7988210
  58.2850420  28.5653900  52.0950170  58.7347380  28.8096640  53.5197920
  60.1993270  13.8493470  51.3971900  60.7286030  13.0623270  51.2679850
  60.8321590  14.5284660  51.6307430  62.3931110  13.5868610  54.4517290
  61.7633850  12.8855920  54.6187420  61.8536250  14.3472740  54.2350450
  61.4095770  30.1328250  51.6737460  62.1414590  29.8487530  51.1261350
  61.6689440  29.8941530  52.5636840  60.5710560  26.2492980  51.6783790
  59.9419440  26.7178080  52.2269620  60.6858390  25.4042200  52.1129980
  68.0260280  20.2998640  37.8284990  67.9454330  19.3853250  37.5576700
  67.6124700  20.7965710  37.1224700  66.1578320  22.0777660  39.7094260
  65.3820420  21.5978100  39.9992830  66.8091250  21.3983310  39.5350420
  60.1744150  22.3897470  40.5870020  59.3429030  22.1346180  40.9866530
  60.7825130  22.4608240  41.3227940  70.1785750  26.4837850  38.4893390
  69.7167280  25.7125090  38.8180560  70.9911300  26.5103920  38.9945840
  60.1545410  26.4237560  40.7828040  60.4573450  25.5335300  40.6038260
  60.8989000  26.9807780  40.5550290  58.5836100  17.3499360  34.3712410
  57.6952800  17.6915330  34.2692290  58.8677290  17.1499680  33.4793240
  56.5469110  19.9505010  40.2552110  57.1185220  19.1827210  40.2555750
  56.5470650  20.2493770  39.3458720  66.4049060  28.7695860  38.1097380
  65.7860500  29.2253360  37.5391820  67.2600840  28.9247320  37.7087080
  65.5987310  24.7534850  39.7164420  65.5295590  23.8124790  39.5553550
  66.3607170  24.8436260  40.2886990  57.7893980  15.3589370  42.0421040
  57.6096820  14.4615120  42.3223800  57.3874060  15.9061240  42.7167990
  66.6292480  17.5605230  39.9433350  67.0057300  16.6877110  39.8307020
  66.5311990  17.8963930  39.0523790  60.7597490  15.9330860  35.4050790
  60.8664240  16.8334590  35.7119550  59.8489850  15.8848830  35.1145440
  70.4116600  15.0555670  36.8761690  71.2326220  14.5652240  36.9187170
  70.4450680  15.6453330  37.6293530  58.4080650  17.8549870  40.6503380
  59.0890760  18.1188240  41.2690780  58.0928700  17.0150740  40.9841390
  62.6005220  18.9017230  39.7375970  63.1083440  19.3998200  40.3780990
  63.1318460  18.1252430  39.5615330  60.8841320  13.5415790  44.0039390
  60.8859760  14.0588180  43.1985290  60.0545630  13.0645970  43.9809320
  67.2712410  23.6535100  35.5029290  66.6529680  24.1184550  34.9392010
  67.7835660  24.3462580  35.9198800  62.1344170  23.1810970  42.1812890
  61.8013550  23.8079890  42.8233960  62.3110850  23.7072850  41.4014560
  70.6478080  16.9956050  39.6489230  69.9433650  17.2840940  40.2292340
  71.0090240  17.8056160  39.2888790  60.5656650  15.2525750  42.0109840
  60.9073460  16.0967800  41.7163710  59.6272460  15.4009490  42.1275180
  61.3463270  25.1491770  43.9962070  61.9637270  25.8242850  43.7146520
  60.4856390  25.5579750  43.9049570  56.6395610  24.3391630  32.8768920
  56.2623590  24.8278730  32.1453820  56.8968680  25.0116910  33.5075450
  64.2484540  12.7408020  38.3354430  64.5559520  12.1854910  37.6189930
  63.3185240  12.8752480  38.1527420  69.7999600  28.4575310  40.6261890
  69.8126760  28.0537600  39.7584150  69.2474820  29.2322600  40.5223320
  71.0945020  25.1791530  35.7152060  70.9841350  24.2365860  35.8401480
  71.0913270  25.5407170  36.6014820  69.1985040  23.3605150  41.9544500
  69.6153830  23.1465260  41.1197960  69.9224860  23.6177940  42.5253120
  66.6365300  20.8056850  35.0714550  65.7094580  20.7394230  35.3003020
  66.7890120  21.7436980  34.9569790  66.6234380  17.0773850  32.0681710
  65.6838050  17.2387810  32.1534170  66.9417640  17.7959530  31.5217700
  70.6662590  22.3677150  35.5749800  70.0475010  22.0296700  34.9276100
  70.6487040  21.7236910  36.2828990  70.1089150  18.5461690  42.9915610
  69.6960330  19.3715400  43.2455600  69.3765100  17.9606730  42.7991970
  62.2421940  21.3321590  37.8534280  61.8378940  20.6198840  37.3580180
  62.3285060  20.9874830  38.7422320  62.7103640  25.0189150  40.0173490
  62.4131930  24.4134620  39.3381270  63.6603460  25.0566460  39.9062850
  60.9550560  18.1064800  41.6333320  61.5065150  18.2160140  40.8586570
  61.4694070  18.4802400  42.3488550  70.7989250  28.5921020  43.6796590
  70.3219810  29.3993210  43.4869200  70.1151040  27.9399350  43.8322800
  61.8022070  24.7570840  46.6681290  60.9050600  24.9810810  46.9154690
  61.8274940  24.8805780  45.7192690  68.8427290  21.6063960  32.5822550
  69.2820570  20.7686390  32.4360370  69.5555710  22.2393360  32.6686690
  60.6293290  21.6284160  45.2438660  60.4901060  22.5006960  45.6126060
  59.7474650  21.2856970  45.0986600  66.9522670  26.5460030  36.5503790
  67.3918580  27.2884360  36.1359180  66.8909560  26.7886600  37.4742750
  62.4273640  27.5705860  47.4523810  62.3989070  27.9748810  46.5852240
  62.2638610  26.6416220  47.2895410  58.9426570  20.2266570  35.3540930
  58.8224170  20.9528660  34.7422200  58.6327460  19.4569480  34.8768840
  56.5811940  23.3981710  41.1609570  56.6592360  23.5330480  40.2165290
  57.1953620  22.6897600  41.3537690  57.8259570  25.0981900  37.5715750
  57.4187650  25.2396490  36.7169350  58.7172580  24.8142060  37.3686960
  67.6438450  29.2473810  44.4782800  68.1583120  29.1581820  45.2805230
  66.8007530  29.5933510  44.7710710  69.6192850  29.5329150  33.9066800
  69.4593990  29.2432090  34.8048630  69.4539560  28.7569280  33.3712030
  62.0981230  29.3127680  35.6838420  61.9223710  28.3963220  35.4706220
  61.2436970  29.6714970  35.9236220  69.3218980  27.0416710  32.4664800
  68.6284140  27.0394000  31.8067080  70.0641840  26.6176030  32.0358970
  68.8868910  28.6679420  36.5413290  69.3425860  27.8868800  36.8551910
  69.2261430  29.3786240  37.0854470  56.6371460  24.4395880  43.7004030
  56.8002500  23.9701240  42.8823400  57.1023910  23.9319440  44.3652870
  61.4090230  13.5701640  38.7364600  60.9658380  14.3511180  38.4049120
  61.9675220  13.8931530  39.4435540  65.6960040  16.4370160  44.3399920
  65.2339410  16.6453180  45.1519860  65.2938150  15.6229510  44.0370590
  70.6964550  17.6579110  45.4696580  69.8458140  17.3584860  45.7905650
  70.5366340  17.9021120  44.5580400  67.7914260  19.1580860  47.5695370
  68.1167670  18.3244610  47.2297600  68.5794590  19.6809380  47.7173700
  64.5249050  13.1912340  33.6170430  63.9003230  13.1872210  34.3423740
  64.4379170  12.3243300  33.2206400  63.4466130  14.1148970  40.5954200
  63.7438460  15.0211800  40.5146220  63.9951690  13.6267750  39.9813770
  61.2004450  18.6935210  36.4645850  60.9745370  18.4772380  37.3692470
  60.4196980  19.1263670  36.1191820  68.4302210  18.6998580  35.0636500
  67.8311100  19.4234380  34.8800120  68.9781820  18.6375360  34.2812950
  63.6403660  19.5920790  47.1306120  63.5447260  18.6515520  46.9806520
  64.4835640  19.8135860  46.7354190  67.0367080  17.3362120  37.0939780
  67.4296650  17.6534320  36.2808470  67.3983930  16.4574000  37.2084300
  58.7714200  16.0034460  45.2839900  58.3777590  16.8509670  45.4912680
  58.0832600  15.3660830  45.4748540  65.3459250  16.0869430  48.3536640
  64.6557570  15.8941630  48.9882730  66.0891550  16.3704070  48.8860940
  56.0731250  13.9262920  39.3169980  55.7844300  14.4965780  40.0294960
  56.8177010  13.4467370  39.6801210  56.2601480  17.8683040  30.5272700
  56.1776150  18.8113800  30.6687690  55.9084540  17.7257950  29.6485050
  67.6222220  19.9267870  41.1890560  66.8903340  20.4354680  41.5380660
  67.2246560  19.1097850  40.8879340  64.0599610  16.6022070  39.5943050
  64.0635670  16.1612020  38.7447590  64.9550730  16.9239400  39.7014870
  59.9101990  16.4848560  38.5537260  59.5702040  16.9623790  39.3104310
  59.1479310  16.0313680  38.1938360  64.1219760  17.6034150  32.5849810
  64.2432580  17.5620630  33.5335630  63.7368270  18.4658300  32.4296540
  68.0848130  15.3801550  40.6013500  68.1020870  15.8310200  41.4455350
  67.8363710  14.4807190  40.8146940  63.1341260  19.9135290  31.9833110
  62.5658160  19.4653540  31.3569020  63.8430260  20.2728070  31.4498260
  71.5118880  12.7933730  46.4399880  71.8364650  12.0623390  46.9657860
  71.5475390  12.4747370  45.5380870  58.2110440  23.8147310  45.8599840
  57.8265230  23.1740980  46.4582800  58.5222630  24.5183430  46.4294570
  64.3607580  20.6623850  41.3408460  64.7277710  20.1882420  42.0869800
  64.1712640  21.5365420  41.6816800  57.2248070  15.4067540  37.4701930
  56.9394990  15.0423210  38.3080550  57.1626930  14.6748000  36.8565070
  62.1506950  19.7032490  43.6592670  61.8464020  20.5824470  43.8843030
  63.1053410  19.7632280  43.6950110  60.6788740  23.9093480  34.2559520
  59.9051000  23.3691100  34.0958240  61.4083370  23.3900090  33.9177280
  71.4376720  22.9058840  40.0485910  72.1575840  23.4014130  39.6582020
  71.2358540  22.2276730  39.4039780  66.8986660  14.2996800  34.1915300
  66.0851270  13.8009970  34.1160610  66.7048610  15.1395050  33.7751650
  66.8195520  22.9767900  45.9354910  66.7532830  22.0563570  45.6812500
  66.1900660  23.0743340  46.6499550  69.6135050  18.6716450  32.4877460
  70.5014670  18.9833680  32.3128800  69.5840140  17.7988700  32.0958040
  60.7226140  23.5773860  37.8938330  61.2404810  22.7742120  37.8395220
  60.2710160  23.5153000  38.7355160  65.6095640  24.8440140  33.1665630
  65.9511340  25.5882370  32.6708950  64.7808350  25.1571260  33.5290460
  58.2070680  20.5435230  44.8064030  57.8485620  21.2089080  45.3937370
  57.9125240  19.7118780  45.1776650  61.4083800  21.0019470  47.6903580
  61.1083940  21.1476650  46.7931400  62.1795040  20.4424760  47.5976970
  66.7512250  25.7988470  45.6858710  66.7656790  24.8669430  45.4677620
  66.0437350  25.8848230  46.3248480  71.8849320  19.9828290  31.9557320
  71.8013040  20.4142510  31.1053760  72.6043510  20.4426640  32.3884140
  68.4923050  24.1655980  38.5311140  68.8446870  23.5684110  37.8712510
  67.6085380  23.8400210  38.7019390  64.5786330  24.9253670  35.9381550
  65.2657460  25.4722880  36.3189140  63.7918750  25.4694400  35.9731160
  56.7178730  20.5426490  31.4298630  57.5873580  20.8251290  31.7134550
  56.2269050  21.3562360  31.3147440  63.8813540  21.9299700  35.5506910
  64.3376320  22.7404950  35.7767100  63.5301750  21.6122840  36.3825400
  66.1846150  27.4406040  42.7799210  66.8288370  27.6465420  43.4572630
  66.5475590  26.6794440  42.3270060  59.7825320  12.2737350  36.0229430
  59.6539950  12.2655250  36.9714350  58.9587340  12.6120440  35.6720440
  67.4578230  25.4438390  41.4976660  68.1000460  24.7431550  41.6108830
  67.9827580  26.2236830  41.3173550  71.3033950  25.7287010  31.2215800
  71.0771530  25.0117450  31.8140440  70.9130150  25.4799450  30.3837550
  69.2315850  26.2433290  44.7012720  69.5672090  26.8299980  45.3790640
  68.3116190  26.1126000  44.9310510  57.0849980  29.7553870  31.9960260
  57.4447620  30.3543210  31.3417530  56.9442320  30.3013760  32.7695290
  56.7819250  14.0328470  45.4836130  56.0677770  14.2325390  46.0888740
  57.2014290  13.2568040  45.8550930  70.8850200  23.6458950  32.8829960
  70.5971900  24.1071640  33.6707840  71.6802370  23.1856720  33.1514180
  57.0691840  28.0208730  46.4702660  57.1782960  27.0803470  46.3298050
  56.4172400  28.2863480  45.8216390  65.0604430  26.2924620  47.8700780
  64.7401300  25.5733860  48.4146470  64.3862790  26.9679690  47.9436840
  63.1018600  27.1385070  32.8133930  63.0928700  27.8714760  32.1978440
  62.1816960  26.8916650  32.9060890  58.7025240  22.3599960  33.5580690
  58.0953190  23.0998860  33.5675990  59.1774590  22.4499320  32.7318890
  68.2758030  16.5250780  43.2337580  68.6438850  15.7045990  43.5617150
  67.4156230  16.5852670  43.6493230  71.6420060  15.4807720  34.0425140
  71.0133220  15.5853390  33.3283370  71.1471980  15.7004500  34.8319020
  66.0878200  27.2013310  31.4759120  66.1890180  26.9977300  30.5461100
  65.1879940  26.9471590  31.6806900  63.6104090  17.7593670  35.4583020
  62.9020240  18.2280010  35.8996630  63.8948570  17.1015680  36.0928210
  65.2360020  19.1790370  43.4575550  65.7345270  19.6536190  44.1227400
  65.3782970  18.2553890  43.6645580  67.6419520  14.4844330  36.8978810
  67.5187300  14.5030460  35.9488320  68.5904080  14.5323270  37.0177210
  64.7296310  29.7199630  36.1706790  64.9837810  29.6821020  35.2486160
  63.7808790  29.5932960  36.1635040  61.8139110  16.0678750  32.8333730
  62.6629640  16.5048900  32.7673920  61.4470380  16.3799010  33.6605790
  70.7348890  20.6391510  37.7465300  69.7939030  20.6541740  37.9212990
  71.0492960  19.8527470  38.1925600  60.7130530  22.3211110  31.3069260
  61.4793800  22.2092470  31.8694690  60.7905220  21.6249080  30.6546030
  59.4077290  19.7536180  31.9902150  59.4880880  18.8063690  32.1019550
  60.2997040  20.0843060  32.0962810  60.2092000  29.9031570  39.0936690
  60.9454480  29.3547030  39.3645260  60.5932920  30.7687580  38.9542680
  57.0937480  25.9705140  34.9678200  56.1677260  26.2126280  34.9583610
  57.5593910  26.7979400  34.8462950  59.2150280  29.0877640  48.2822270
  60.0163010  29.4089690  48.6957670  58.7002100  28.7273220  49.0042180
  63.3194310  29.0761880  30.9162260  64.1122920  29.3650710  30.4644050
  62.7998660  28.6454050  30.2374740  68.0514910  25.1957510  48.2297680
  67.4453070  25.2189110  47.4893430  67.7469020  24.4640550  48.7664930
  69.4815280  28.9237800  46.8407090  70.4337030  28.8395820  46.7907330
  69.3343500  29.5879510  47.5140880  72.3724480  28.3032010  32.3399000
  72.0865990  27.8897150  31.5253180  72.1744030  29.2319720  32.2199520
  56.9348090  21.5751100  47.2258320  57.4387110  20.9958380  47.7974550
  56.1955510  21.8591330  47.7634690  63.8371710  24.2965290  30.7804610
  63.7322350  23.6817640  31.5065990  63.6695930  23.7731180  29.9967620
  63.9886030  22.9822090  46.7593840  63.2231700  23.5507090  46.6748510
  64.1701990  22.6898300  45.8662070  67.0774440  23.3585320  31.3846600
  66.5284540  23.8054620  32.0289340  67.6993700  22.8534570  31.9084270
  71.1309380  24.7127420  47.3168860  71.8718850  25.0503180  46.8136320
  70.3682060  24.8819480  46.7638630  58.9671170  19.7180690  48.1208390
  59.0076510  19.4194560  49.0293620  59.8216670  20.1188300  47.9615910
  62.7449560  22.3176240  33.2811900  63.1665980  22.1516110  34.1243290
  62.8700400  21.5076470  32.7867040  60.9076980  18.2972790  46.0882880
  60.3773440  17.8063740  45.4606220  61.5765050  18.7256990  45.5540810
  65.2577200  21.3413850  30.5289000  65.7782860  20.6262870  30.1630150
  65.9045600  21.9799720  30.8289510  69.8055040  22.7642250  45.8524070
  70.2196060  22.9187330  46.7014490  68.8706040  22.8897470  46.0149850
  70.2777210  20.1038410  47.8563220  70.8597980  19.3490730  47.7683700
  70.4538980  20.6345850  47.0794700  61.3949280  15.2635160  46.1680170
  61.3006150  14.6455910  45.4431040  60.8146670  15.9901450  45.9410080
  64.1610720  13.8208400  43.2007560  63.7128020  13.8432660  42.3553110
  63.5275920  13.4227420  43.7977860  64.5670270  22.7162730  43.8220000
  64.9858380  23.5595460  43.6496240  63.6478900  22.8534770  43.5926780
  66.9034170  20.4478910  45.2057840  67.0230380  19.8520050  45.9452680
  67.7628170  20.4848600  44.7859140  69.2422070  21.0016100  43.7820350
  68.7157290  21.5258720  43.1785490  69.5853410  21.6343490  44.4130080
  61.6408460  18.3909470  30.2270060  61.4397520  17.5276830  30.5883400
  61.4700510  18.3042830  29.2891660  62.4177690  29.0215740  44.9377730
  61.8798780  29.7461800  44.6186430  62.6711650  28.5446080  44.1475070
  63.6702940  16.9900260  46.4633660  64.2602630  16.6816110  47.1511480
  62.8523180  16.5180010  46.6193560  68.4896370  16.6066070  46.6966680
  67.8011890  15.9447610  46.6316670  69.2102390  16.1604340  47.1415140
  69.1196770  13.2017700  32.7556940  69.3999060  12.3585600  33.1116360
  68.3462500  13.4340810  33.2695690  60.4391260  15.4910090  30.2147940
  60.7417160  15.4977520  29.3067090  61.1785850  15.1407950  30.7115600
  65.2739900  30.2566950  45.1964380  65.1998600  31.1602090  45.5036750
  64.3718740  29.9378850  45.1686450  63.6576190  14.4344710  31.2004140
  63.3098190  13.7568700  30.6206590  63.8588960  13.9734220  32.0147530
  65.8225230  29.4225460  32.8190740  66.7176020  29.7610430  32.8409500
  65.8542860  28.7004870  32.1915020  59.4621390  24.7952510  31.0477740
  59.8996260  25.3382180  31.7035320  59.9469120  23.9699460  31.0574080
  56.6767190  27.5841540  38.4998000  57.0070200  26.7162600  38.2676640
  57.1058190  27.7900060  39.3302960  61.2729110  25.9150550  36.1599970
  60.9724650  25.7915520  37.0603880  61.1666600  25.0559140  35.7515700
  57.1657400  28.4512130  41.2379630  56.7288390  28.6312930  42.0703780
  57.7335080  29.2086750  41.0961350  56.9981830  20.9632360  37.5968510
  56.3430670  20.6944000  36.9528210  57.8359780  20.8536840  37.1470490
  71.4871220  24.6781110  43.6233100  70.6731060  25.1078270  43.8858890
  71.8945420  25.2899520  43.0102150  69.9472270  15.7573650  31.8187000
  70.3657150  15.5704630  30.9783660  69.6408330  14.9052700  32.1289930
  58.0357760  21.3484930  42.1371850  58.4030800  21.2612330  43.0167870
  57.4668580  20.5851480  42.0378710  57.5873760  18.2594020  46.0430270
  56.6929810  18.2260780  46.3823980  58.1271310  18.4580810  46.8081520
  71.2749690  15.0425740  47.9282020  72.1519870  15.0509140  48.3116020
  71.2870530  14.3056580  47.3174370  56.2119910  18.1731290  33.5393840
  55.3083990  18.4361490  33.3645500  56.6960530  18.4442460  32.7593800
  58.7547120  17.2296830  31.4488220  59.4638820  16.8080050  30.9635500
  58.0387060  17.2972060  30.8171570  58.4021280  13.2836160  30.4890870
  59.1249410  13.8245100  30.8072090  58.6745800  13.0099580  29.6132410
  72.2112930  18.1528630  34.7562450  72.7072050  17.9199500  35.5411330
  72.0129000  17.3140470  34.3400090  58.0913470  12.5342350  40.3913490
  58.7389660  11.9839730  39.9508650  58.5115310  12.7885500  41.2129300
  71.9865810  12.7283710  43.7483130  72.6238030  13.3417850  44.1142320
  72.1340700  12.7644370  42.8032360  71.5447270  29.4299710  37.1501370
  72.1406340  29.1084280  36.4735790  71.8025420  28.9571530  37.9414640
  57.8445470  12.6898020  43.1338810  57.4960290  13.1461840  43.8996990
  57.5133170  11.7955150  43.2161240  59.4509840  25.8617620  47.2992000
  59.4079470  25.4910530  48.1806460  59.5820850  26.7995190  47.4393820
  63.1515870  27.4177210  42.9001720  62.9107230  27.6851770  42.0132240
  64.0918510  27.5882940  42.9552580  65.3570290  13.8809900  46.6558230
  65.2959180  14.4731730  47.4053640  66.2970670  13.7735860  46.5108490
  67.9944850  13.5379960  46.2950520  68.6085260  13.8559250  45.6331600
  68.5394410  13.0528550  46.9146380  58.5166110  12.2174220  46.4089580
  59.0649100  12.0362270  45.6455690  58.5821420  11.4268330  46.9445890
  59.2897870  28.8079870  44.4189780  58.6958190  28.6764570  45.1579820
  59.2821710  27.9718010  43.9531880  68.7352890  12.1012100  42.6219810
  67.8612730  12.4347210  42.4192740  68.6263640  11.6285280  43.4471680
  69.6424870  14.3082970  44.0061530  69.3138230  13.4934730  43.6263260
  70.5907170  14.2652780  43.8827220  72.0959480  30.0795010  40.9799100
  71.6362450  30.8310820  40.6057120  71.4671940  29.3601480  40.9213900
  58.9210100  26.1738250  43.3697820  58.1944160  25.5543540  43.3023770
  58.9819250  26.5678860  42.4995900  62.5255200  28.3883250  40.1547230
  63.0420220  27.7770610  39.6295490  63.1752580  28.8912030  40.6458240
  65.2650700  29.2791740  40.9816210  65.5528510  29.0246040  40.1049220
  65.7773920  28.7269100  41.5721780  66.4827710  13.0181940  41.5612720
  65.6999500  13.4927440  41.8409480  66.1890640  12.1136770  41.4525900
  71.0348780  13.7205040  39.6061810  71.4756870  13.6650140  38.7583410
  70.7656370  14.6363050  39.6771990  57.2040100  29.4912640  36.5794580
  57.0362140  28.8583320  37.2776470  56.3374610  29.6972040  36.2288770
  57.8268120  13.3229420  34.0826440  58.5847480  13.4358300  33.5090470
  57.3645290  14.1598620  34.0369870  64.3681930  15.4368690  37.0728750
  63.5556440  15.0625580  36.7324630  64.8723570  14.6813770  37.3749940
  68.8706910  12.1011140  38.3111820  69.4736280  12.6731350  38.7860340
  68.1299900  12.6650580  38.0885720  72.0141510  12.5032700  33.5852100
  72.2092140  13.4016150  33.8519530  71.2271380  12.2719780  34.0785050
  58.8102800  28.1845870  34.0244720  58.2850420  28.5653900  33.3206680
  58.7347380  28.8096640  34.7454430  60.1993270  13.8493470  32.6228410
  60.7286030  13.0623270  32.4936360  60.8321590  14.5284660  32.8563940
  62.3931110  13.5868610  35.6773800  61.7633850  12.8855920  35.8443930
  61.8536250  14.3472740  35.4606960  65.3323060  30.2007840  48.3484410
  66.2590370  29.9652110  48.3920370  65.3173490  31.0279840  47.8670440
  62.5186670  12.8652590  48.1126290  62.2370940  13.3686190  47.3487110
  62.9006370  12.0674340  47.7468420  61.4095770  30.1328250  32.8993970
  62.1414590  29.8487530  32.3517860  61.6689440  29.8941530  33.7893350
  60.5710560  26.2492980  32.9040300  59.9419440  26.7178080  33.4526130
  60.6858390  25.4042200  33.3386490  69.1202130  12.2806170  48.6906760
  69.0067580  12.6000780  49.5858280  69.9371870  12.6818680  48.3944040
  71.9000620  29.4277700  48.1725450  72.6925940  28.9326930  47.9651410
  72.1933770  30.1067840  48.7801060  68.0260280  20.2998640  19.0541500
  67.9454330  19.3853250  18.7833210  67.6124700  20.7965710  18.3481210
  66.1578320  22.0777660  20.9350770  65.3820420  21.5978100  21.2249340
  66.8091250  21.3983310  20.7606930  60.1744150  22.3897470  21.8126530
  59.3429030  22.1346180  22.2123040  60.7825130  22.4608240  22.5484450
  70.1785750  26.4837850  19.7149900  69.7167280  25.7125090  20.0437070
  70.9911300  26.5103920  20.2202350  60.1545410  26.4237560  22.0084550
  60.4573450  25.5335300  21.8294770  60.8989000  26.9807780  21.7806800
  58.5836100  17.3499360  15.5968920  57.6952800  17.6915330  15.4948800
  58.8677290  17.1499680  14.7049750  56.5469110  19.9505010  21.4808620
  57.1185220  19.1827210  21.4812260  56.5470650  20.2493770  20.5715230
  66.4049060  28.7695860  19.3353890  65.7860500  29.2253360  18.7648330
  67.2600840  28.9247320  18.9343590  65.5987310  24.7534850  20.9420930
  65.5295590  23.8124790  20.7810060  66.3607170  24.8436260  21.5143500
  57.7893980  15.3589370  23.2677550  57.6096820  14.4615120  23.5480310
  57.3874060  15.9061240  23.9424500  66.6292480  17.5605230  21.1689860
  67.0057300  16.6877110  21.0563530  66.5311990  17.8963930  20.2780300
  60.7597490  15.9330860  16.6307300  60.8664240  16.8334590  16.9376060
  59.8489850  15.8848830  16.3401950  70.4116600  15.0555670  18.1018200
  71.2326220  14.5652240  18.1443680  70.4450680  15.6453330  18.8550040
  58.4080650  17.8549870  21.8759890  59.0890760  18.1188240  22.4947290
  58.0928700  17.0150740  22.2097900  62.6005220  18.9017230  20.9632480
  63.1083440  19.3998200  21.6037500  63.1318460  18.1252430  20.7871840
  60.8841320  13.5415790  25.2295900  60.8859760  14.0588180  24.4241800
  60.0545630  13.0645970  25.2065830  67.2712410  23.6535100  16.7285800
  66.6529680  24.1184550  16.1648520  67.7835660  24.3462580  17.1455310
  62.1344170  23.1810970  23.4069400  61.8013550  23.8079890  24.0490470
  62.3110850  23.7072850  22.6271070  70.6478080  16.9956050  20.8745740
  69.9433650  17.2840940  21.4548850  71.0090240  17.8056160  20.5145300
  60.5656650  15.2525750  23.2366350  60.9073460  16.0967800  22.9420220
  59.6272460  15.4009490  23.3531690  61.3463270  25.1491770  25.2218580
  61.9637270  25.8242850  24.9403030  60.4856390  25.5579750  25.1306080
  56.6395610  24.3391630  14.1025430  56.2623590  24.8278730  13.3710330
  56.8968680  25.0116910  14.7331960  64.2484540  12.7408020  19.5610940
  64.5559520  12.1854910  18.8446440  63.3185240  12.8752480  19.3783930
  69.7999600  28.4575310  21.8518400  69.8126760  28.0537600  20.9840660
  69.2474820  29.2322600  21.7479830  71.0945020  25.1791530  16.9408570
  70.9841350  24.2365860  17.0657990  71.0913270  25.5407170  17.8271330
  69.1985040  23.3605150  23.1801010  69.6153830  23.1465260  22.3454470
  69.9224860  23.6177940  23.7509630  66.6365300  20.8056850  16.2971060
  65.7094580  20.7394230  16.5259530  66.7890120  21.7436980  16.1826300
  66.6234380  17.0773850  13.2938220  65.6838050  17.2387810  13.3790680
  66.9417640  17.7959530  12.7474210  70.6662590  22.3677150  16.8006310
  70.0475010  22.0296700  16.1532610  70.6487040  21.7236910  17.5085500
  70.1089150  18.5461690  24.2172120  69.6960330  19.3715400  24.4712110
  69.3765100  17.9606730  24.0248480  62.2421940  21.3321590  19.0790790
  61.8378940  20.6198840  18.5836690  62.3285060  20.9874830  19.9678830
  62.7103640  25.0189150  21.2430000  62.4131930  24.4134620  20.5637780
  63.6603460  25.0566460  21.1319360  60.9550560  18.1064800  22.8589830
  61.5065150  18.2160140  22.0843080  61.4694070  18.4802400  23.5745060
  70.7989250  28.5921020  24.9053100  70.3219810  29.3993210  24.7125710
  70.1151040  27.9399350  25.0579310  61.8022070  24.7570840  27.8937800
  60.9050600  24.9810810  28.1411200  61.8274940  24.8805780  26.9449200
  68.8427290  21.6063960  13.8079060  69.2820570  20.7686390  13.6616880
  69.5555710  22.2393360  13.8943200  60.6293290  21.6284160  26.4695170
  60.4901060  22.5006960  26.8382570  59.7474650  21.2856970  26.3243110
  66.9522670  26.5460030  17.7760300  67.3918580  27.2884360  17.3615690
  66.8909560  26.7886600  18.6999260  62.4273640  27.5705860  28.6780320
  62.3989070  27.9748810  27.8108750  62.2638610  26.6416220  28.5151920
  58.9426570  20.2266570  16.5797440  58.8224170  20.9528660  15.9678710
  58.6327460  19.4569480  16.1025350  56.5811940  23.3981710  22.3866080
  56.6592360  23.5330480  21.4421800  57.1953620  22.6897600  22.5794200
  57.8259570  25.0981900  18.7972260  57.4187650  25.2396490  17.9425860
  58.7172580  24.8142060  18.5943470  67.6438450  29.2473810  25.7039310
  68.1583120  29.1581820  26.5061740  66.8007530  29.5933510  25.9967220
  69.6192850  29.5329150  15.1323310  69.4593990  29.2432090  16.0305140
  69.4539560  28.7569280  14.5968540  62.0981230  29.3127680  16.9094930
  61.9223710  28.3963220  16.6962730  61.2436970  29.6714970  17.1492730
  69.3218980  27.0416710  13.6921310  68.6284140  27.0394000  13.0323590
  70.0641840  26.6176030  13.2615480  68.8868910  28.6679420  17.7669800
  69.3425860  27.8868800  18.0808420  69.2261430  29.3786240  18.3110980
  56.6371460  24.4395880  24.9260540  56.8002500  23.9701240  24.1079910
  57.1023910  23.9319440  25.5909380  61.4090230  13.5701640  19.9621110
  60.9658380  14.3511180  19.6305630  61.9675220  13.8931530  20.6692050
  65.6960040  16.4370160  25.5656430  65.2339410  16.6453180  26.3776370
  65.2938150  15.6229510  25.2627100  70.6964550  17.6579110  26.6953090
  69.8458140  17.3584860  27.0162160  70.5366340  17.9021120  25.7836910
  67.7914260  19.1580860  28.7951880  68.1167670  18.3244610  28.4554110
  68.5794590  19.6809380  28.9430210  64.5249050  13.1912340  14.8426940
  63.9003230  13.1872210  15.5680250  64.4379170  12.3243300  14.4462910
  63.4466130  14.1148970  21.8210710  63.7438460  15.0211800  21.7402730
  63.9951690  13.6267750  21.2070280  61.2004450  18.6935210  17.6902360
  60.9745370  18.4772380  18.5948980  60.4196980  19.1263670  17.3448330
  68.4302210  18.6998580  16.2893010  67.8311100  19.4234380  16.1056630
  68.9781820  18.6375360  15.5069460  63.6403660  19.5920790  28.3562630
  63.5447260  18.6515520  28.2063030  64.4835640  19.8135860  27.9610700
  67.0367080  17.3362120  18.3196290  67.4296650  17.6534320  17.5064980
  67.3983930  16.4574000  18.4340810  58.7714200  16.0034460  26.5096410
  58.3777590  16.8509670  26.7169190  58.0832600  15.3660830  26.7005050
  65.3459250  16.0869430  29.5793150  64.6557570  15.8941630  30.2139240
  66.0891550  16.3704070  30.1117450  56.0731250  13.9262920  20.5426490
  55.7844300  14.4965780  21.2551470  56.8177010  13.4467370  20.9057720
  56.2601480  17.8683040  11.7529210  56.1776150  18.8113800  11.8944200
  55.9084540  17.7257950  10.8741560  67.6222220  19.9267870  22.4147070
  66.8903340  20.4354680  22.7637170  67.2246560  19.1097850  22.1135850
  64.0599610  16.6022070  20.8199560  64.0635670  16.1612020  19.9704100
  64.9550730  16.9239400  20.9271380  59.9101990  16.4848560  19.7793770
  59.5702040  16.9623790  20.5360820  59.1479310  16.0313680  19.4194870
  64.1219760  17.6034150  13.8106320  64.2432580  17.5620630  14.7592140
  63.7368270  18.4658300  13.6553050  68.0848130  15.3801550  21.8270010
  68.1020870  15.8310200  22.6711860  67.8363710  14.4807190  22.0403450
  63.1341260  19.9135290  13.2089620  62.5658160  19.4653540  12.5825530
  63.8430260  20.2728070  12.6754770  71.5118880  12.7933730  27.6656390
  71.8364650  12.0623390  28.1914370  71.5475390  12.4747370  26.7637380
  58.2110440  23.8147310  27.0856350  57.8265230  23.1740980  27.6839310
  58.5222630  24.5183430  27.6551080  64.3607580  20.6623850  22.5664970
  64.7277710  20.1882420  23.3126310  64.1712640  21.5365420  22.9073310
  57.2248070  15.4067540  18.6958440  56.9394990  15.0423210  19.5337060
  57.1626930  14.6748000  18.0821580  62.1506950  19.7032490  24.8849180
  61.8464020  20.5824470  25.1099540  63.1053410  19.7632280  24.9206620
  60.6788740  23.9093480  15.4816030  59.9051000  23.3691100  15.3214750
  61.4083370  23.3900090  15.1433790  71.4376720  22.9058840  21.2742420
  72.1575840  23.4014130  20.8838530  71.2358540  22.2276730  20.6296290
  66.8986660  14.2996800  15.4171810  66.0851270  13.8009970  15.3417120
  66.7048610  15.1395050  15.0008160  66.8195520  22.9767900  27.1611420
  66.7532830  22.0563570  26.9069010  66.1900660  23.0743340  27.8756060
  69.6135050  18.6716450  13.7133970  70.5014670  18.9833680  13.5385310
  69.5840140  17.7988700  13.3214550  60.7226140  23.5773860  19.1194840
  61.2404810  22.7742120  19.0651730  60.2710160  23.5153000  19.9611670
  65.6095640  24.8440140  14.3922140  65.9511340  25.5882370  13.8965460
  64.7808350  25.1571260  14.7546970  58.2070680  20.5435230  26.0320540
  57.8485620  21.2089080  26.6193880  57.9125240  19.7118780  26.4033160
  61.4083800  21.0019470  28.9160090  61.1083940  21.1476650  28.0187910
  62.1795040  20.4424760  28.8233480  66.7512250  25.7988470  26.9115220
  66.7656790  24.8669430  26.6934130  66.0437350  25.8848230  27.5504990
  71.8849320  19.9828290  13.1813830  71.8013040  20.4142510  12.3310270
  72.6043510  20.4426640  13.6140650  68.4923050  24.1655980  19.7567650
  68.8446870  23.5684110  19.0969020  67.6085380  23.8400210  19.9275900
  64.5786330  24.9253670  17.1638060  65.2657460  25.4722880  17.5445650
  63.7918750  25.4694400  17.1987670  56.7178730  20.5426490  12.6555140
  57.5873580  20.8251290  12.9391060  56.2269050  21.3562360  12.5403950
  63.8813540  21.9299700  16.7763420  64.3376320  22.7404950  17.0023610
  63.5301750  21.6122840  17.6081910  66.1846150  27.4406040  24.0055720
  66.8288370  27.6465420  24.6829140  66.5475590  26.6794440  23.5526570
  59.7825320  12.2737350  17.2485940  59.6539950  12.2655250  18.1970860
  58.9587340  12.6120440  16.8976950  67.4578230  25.4438390  22.7233170
  68.1000460  24.7431550  22.8365340  67.9827580  26.2236830  22.5430060
  71.3033950  25.7287010  12.4472310  71.0771530  25.0117450  13.0396950
  70.9130150  25.4799450  11.6094060  69.2315850  26.2433290  25.9269230
  69.5672090  26.8299980  26.6047150  68.3116190  26.1126000  26.1567020
  57.0849980  29.7553870  13.2216770  57.4447620  30.3543210  12.5674040
  56.9442320  30.3013760  13.9951800  56.7819250  14.0328470  26.7092640
  56.0677770  14.2325390  27.3145250  57.2014290  13.2568040  27.0807440
  70.8850200  23.6458950  14.1086470  70.5971900  24.1071640  14.8964350
  71.6802370  23.1856720  14.3770690  65.0604430  26.2924620  29.0957290
  64.7401300  25.5733860  29.6402980  64.3862790  26.9679690  29.1693350
  63.1018600  27.1385070  14.0390440  63.0928700  27.8714760  13.4234950
  62.1816960  26.8916650  14.1317400  58.7025240  22.3599960  14.7837200
  58.0953190  23.0998860  14.7932500  59.1774590  22.4499320  13.9575400
  68.2758030  16.5250780  24.4594090  68.6438850  15.7045990  24.7873660
  67.4156230  16.5852670  24.8749740  71.6420060  15.4807720  15.2681650
  71.0133220  15.5853390  14.5539880  71.1471980  15.7004500  16.0575530
  66.0878200  27.2013310  12.7015630  66.1890180  26.9977300  11.7717610
  65.1879940  26.9471590  12.9063410  63.6104090  17.7593670  16.6839530
  62.9020240  18.2280010  17.1253140  63.8948570  17.1015680  17.3184720
  65.2360020  19.1790370  24.6832060  65.7345270  19.6536190  25.3483910
  65.3782970  18.2553890  24.8902090  67.6419520  14.4844330  18.1235320
  67.5187300  14.5030460  17.1744830  68.5904080  14.5323270  18.2433720
  64.7296310  29.7199630  17.3963300  64.9837810  29.6821020  16.4742670
  63.7808790  29.5932960  17.3891550  61.8139110  16.0678750  14.0590240
  62.6629640  16.5048900  13.9930430  61.4470380  16.3799010  14.8862300
  70.7348890  20.6391510  18.9721810  69.7939030  20.6541740  19.1469500
  71.0492960  19.8527470  19.4182110  60.7130530  22.3211110  12.5325770
  61.4793800  22.2092470  13.0951200  60.7905220  21.6249080  11.8802540
  59.4077290  19.7536180  13.2158660  59.4880880  18.8063690  13.3276060
  60.2997040  20.0843060  13.3219320  60.2092000  29.9031570  20.3193200
  60.9454480  29.3547030  20.5901770  60.5932920  30.7687580  20.1799190
  57.0937480  25.9705140  16.1934710  56.1677260  26.2126280  16.1840120
  57.5593910  26.7979400  16.0719460  63.3194310  29.0761880  12.1418770
  64.1122920  29.3650710  11.6900560  62.7998660  28.6454050  11.4631250
  68.0514910  25.1957510  29.4554190  67.4453070  25.2189110  28.7149940
  67.7469020  24.4640550  29.9921440  69.4815280  28.9237800  28.0663600
  70.4337030  28.8395820  28.0163840  69.3343500  29.5879510  28.7397390
  72.3724480  28.3032010  13.5655510  72.0865990  27.8897150  12.7509690
  72.1744030  29.2319720  13.4456030  56.9348090  21.5751100  28.4514830
  57.4387110  20.9958380  29.0231060  56.1955510  21.8591330  28.9891200
  63.8371710  24.2965290  12.0061120  63.7322350  23.6817640  12.7322500
  63.6695930  23.7731180  11.2224130  63.9886030  22.9822090  27.9850350
  63.2231700  23.5507090  27.9005020  64.1701990  22.6898300  27.0918580
  67.0774440  23.3585320  12.6103110  66.5284540  23.8054620  13.2545850
  67.6993700  22.8534570  13.1340780  71.1309380  24.7127420  28.5425370
  71.8718850  25.0503180  28.0392830  70.3682060  24.8819480  27.9895140
  58.9671170  19.7180690  29.3464900  59.0076510  19.4194560  30.2550130
  59.8216670  20.1188300  29.1872420  62.7449560  22.3176240  14.5068410
  63.1665980  22.1516110  15.3499800  62.8700400  21.5076470  14.0123550
  60.9076980  18.2972790  27.3139390  60.3773440  17.8063740  26.6862730
  61.5765050  18.7256990  26.7797320  65.2577200  21.3413850  11.7545510
  65.7782860  20.6262870  11.3886660  65.9045600  21.9799720  12.0546020
  69.8055040  22.7642250  27.0780580  70.2196060  22.9187330  27.9271000
  68.8706040  22.8897470  27.2406360  70.2777210  20.1038410  29.0819730
  70.8597980  19.3490730  28.9940210  70.4538980  20.6345850  28.3051210
  61.3949280  15.2635160  27.3936680  61.3006150  14.6455910  26.6687550
  60.8146670  15.9901450  27.1666590  64.1610720  13.8208400  24.4264070
  63.7128020  13.8432660  23.5809620  63.5275920  13.4227420  25.0234370
  64.5670270  22.7162730  25.0476510  64.9858380  23.5595460  24.8752750
  63.6478900  22.8534770  24.8183290  66.9034170  20.4478910  26.4314350
  67.0230380  19.8520050  27.1709190  67.7628170  20.4848600  26.0115650
  69.2422070  21.0016100  25.0076860  68.7157290  21.5258720  24.4042000
  69.5853410  21.6343490  25.6386590  61.6408460  18.3909470  11.4526570
  61.4397520  17.5276830  11.8139910  61.4700510  18.3042830  10.5148170
  62.4177690  29.0215740  26.1634240  61.8798780  29.7461800  25.8442940
  62.6711650  28.5446080  25.3731580  63.6702940  16.9900260  27.6890170
  64.2602630  16.6816110  28.3767990  62.8523180  16.5180010  27.8450070
  68.4896370  16.6066070  27.9223190  67.8011890  15.9447610  27.8573180
  69.2102390  16.1604340  28.3671650  69.1196770  13.2017700  13.9813450
  69.3999060  12.3585600  14.3372870  68.3462500  13.4340810  14.4952200
  60.4391260  15.4910090  11.4404450  60.7417160  15.4977520  10.5323600
  61.1785850  15.1407950  11.9372110  65.2739900  30.2566950  26.4220890
  65.1998600  31.1602090  26.7293260  64.3718740  29.9378850  26.3942960
  63.6576190  14.4344710  12.4260650  63.3098190  13.7568700  11.8463100
  63.8588960  13.9734220  13.2404040  65.8225230  29.4225460  14.0447250
  66.7176020  29.7610430  14.0666010  65.8542860  28.7004870  13.4171530
  59.4621390  24.7952510  12.2734250  59.8996260  25.3382180  12.9291830
  59.9469120  23.9699460  12.2830590  56.6767190  27.5841540  19.7254510
  57.0070200  26.7162600  19.4933150  57.1058190  27.7900060  20.5559470
  61.2729110  25.9150550  17.3856480  60.9724650  25.7915520  18.2860390
  61.1666600  25.0559140  16.9772210  57.1657400  28.4512130  22.4636140
  56.7288390  28.6312930  23.2960290  57.7335080  29.2086750  22.3217860
  56.9981830  20.9632360  18.8225020  56.3430670  20.6944000  18.1784720
  57.8359780  20.8536840  18.3727000  71.4871220  24.6781110  24.8489610
  70.6731060  25.1078270  25.1115400  71.8945420  25.2899520  24.2358660
  69.9472270  15.7573650  13.0443510  70.3657150  15.5704630  12.2040170
  69.6408330  14.9052700  13.3546440  58.0357760  21.3484930  23.3628360
  58.4030800  21.2612330  24.2424380  57.4668580  20.5851480  23.2635220
  57.5873760  18.2594020  27.2686780  56.6929810  18.2260780  27.6080490
  58.1271310  18.4580810  28.0338030  71.2749690  15.0425740  29.1538530
  72.1519870  15.0509140  29.5372530  71.2870530  14.3056580  28.5430880
  56.2119910  18.1731290  14.7650350  55.3083990  18.4361490  14.5902010
  56.6960530  18.4442460  13.9850310  58.7547120  17.2296830  12.6744730
  59.4638820  16.8080050  12.1892010  58.0387060  17.2972060  12.0428080
  58.4021280  13.2836160  11.7147380  59.1249410  13.8245100  12.0328600
  58.6745800  13.0099580  10.8388920  72.2112930  18.1528630  15.9818960
  72.7072050  17.9199500  16.7667840  72.0129000  17.3140470  15.5656600
  58.0913470  12.5342350  21.6170000  58.7389660  11.9839730  21.1765160
  58.5115310  12.7885500  22.4385810  71.9865810  12.7283710  24.9739640
  72.6238030  13.3417850  25.3398830  72.1340700  12.7644370  24.0288870
  71.5447270  29.4299710  18.3757880  72.1406340  29.1084280  17.6992300
  71.8025420  28.9571530  19.1671150  57.8445470  12.6898020  24.3595320
  57.4960290  13.1461840  25.1253500  57.5133170  11.7955150  24.4417750
  59.4509840  25.8617620  28.5248510  59.4079470  25.4910530  29.4062970
  59.5820850  26.7995190  28.6650330  63.1515870  27.4177210  24.1258230
  62.9107230  27.6851770  23.2388750  64.0918510  27.5882940  24.1809090
  65.3570290  13.8809900  27.8814740  65.2959180  14.4731730  28.6310150
  66.2970670  13.7735860  27.7365000  67.9944850  13.5379960  27.5207030
  68.6085260  13.8559250  26.8588110  68.5394410  13.0528550  28.1402890
  58.5166110  12.2174220  27.6346090  59.0649100  12.0362270  26.8712200
  58.5821420  11.4268330  28.1702400  59.2897870  28.8079870  25.6446290
  58.6958190  28.6764570  26.3836330  59.2821710  27.9718010  25.1788390
  68.7352890  12.1012100  23.8476320  67.8612730  12.4347210  23.6449250
  68.6263640  11.6285280  24.6728190  69.6424870  14.3082970  25.2318040
  69.3138230  13.4934730  24.8519770  70.5907170  14.2652780  25.1083730
  72.0959480  30.0795010  22.2055610  71.6362450  30.8310820  21.8313630
  71.4671940  29.3601480  22.1470410  58.9210100  26.1738250  24.5954330
  58.1944160  25.5543540  24.5280280  58.9819250  26.5678860  23.7252410
  62.5255200  28.3883250  21.3803740  63.0420220  27.7770610  20.8552000
  63.1752580  28.8912030  21.8714750  65.2650700  29.2791740  22.2072720
  65.5528510  29.0246040  21.3305730  65.7773920  28.7269100  22.7978290
  66.4827710  13.0181940  22.7869230  65.6999500  13.4927440  23.0665990
  66.1890640  12.1136770  22.6782410  71.0348780  13.7205040  20.8318320
  71.4756870  13.6650140  19.9839920  70.7656370  14.6363050  20.9028500
  57.2040100  29.4912640  17.8051090  57.0362140  28.8583320  18.5032980
  56.3374610  29.6972040  17.4545280  57.8268120  13.3229420  15.3082950
  58.5847480  13.4358300  14.7346980  57.3645290  14.1598620  15.2626380
  64.3681930  15.4368690  18.2985260  63.5556440  15.0625580  17.9581140
  64.8723570  14.6813770  18.6006450  68.8706910  12.1011140  19.5368330
  69.4736280  12.6731350  20.0116850  68.1299900  12.6650580  19.3142230
  72.0141510  12.5032700  14.8108610  72.2092140  13.4016150  15.0776040
  71.2271380  12.2719780  15.3041560  58.8102800  28.1845870  15.2501230
  58.2850420  28.5653900  14.5463190  58.7347380  28.8096640  15.9710940
  60.1993270  13.8493470  13.8484920  60.7286030  13.0623270  13.7192870
  60.8321590  14.5284660  14.0820450  62.3931110  13.5868610  16.9030310
  61.7633850  12.8855920  17.0700440  61.8536250  14.3472740  16.6863470
  65.3323060  30.2007840  29.5740920  66.2590370  29.9652110  29.6176880
  65.3173490  31.0279840  29.0926950  62.5186670  12.8652590  29.3382800
  62.2370940  13.3686190  28.5743620  62.9006370  12.0674340  28.9724930
  61.4095770  30.1328250  14.1250480  62.1414590  29.8487530  13.5774370
  61.6689440  29.8941530  15.0149860  60.5710560  26.2492980  14.1296810
  59.9419440  26.7178080  14.6782640  60.6858390  25.4042200  14.5643000
  69.1202130  12.2806170  29.9163270  69.0067580  12.6000780  30.8114790
  69.9371870  12.6818680  29.6200550  71.9000620  29.4277700  29.3981960
  72.6925940  28.9326930  29.1907920  72.1933770  30.1067840  30.0057570
  66.1578320  22.0777660   2.1607280  65.3820420  21.5978100   2.4505850
  66.8091250  21.3983310   1.9863440  60.1744150  22.3897470   3.0383040
  59.3429030  22.1346180   3.4379550  60.7825130  22.4608240   3.7740960
  60.1545410  26.4237560   3.2341060  60.4573450  25.5335300   3.0551280
  60.8989000  26.9807780   3.0063310  56.5469110  19.9505010   2.7065130
  57.1185220  19.1827210   2.7068770  56.5470650  20.2493770   1.7971740
  65.5987310  24.7534850   2.1677440  65.5295590  23.8124790   2.0066570
  66.3607170  24.8436260   2.7400010  57.7893980  15.3589370   4.4934060
  57.6096820  14.4615120   4.7736820  57.3874060  15.9061240   5.1681010
  58.4080650  17.8549870   3.1016400  59.0890760  18.1188240   3.7203800
  58.0928700  17.0150740   3.4354410  62.6005220  18.9017230   2.1888990
  63.1083440  19.3998200   2.8294010  63.1318460  18.1252430   2.0128350
  60.8841320  13.5415790   6.4552410  60.8859760  14.0588180   5.6498310
  60.0545630  13.0645970   6.4322340  62.1344170  23.1810970   4.6325910
  61.8013550  23.8079890   5.2746980  62.3110850  23.7072850   3.8527580
  70.6478080  16.9956050   2.1002250  69.9433650  17.2840940   2.6805360
  71.0090240  17.8056160   1.7401810  60.5656650  15.2525750   4.4622860
  60.9073460  16.0967800   4.1676730  59.6272460  15.4009490   4.5788200
  61.3463270  25.1491770   6.4475090  61.9637270  25.8242850   6.1659540
  60.4856390  25.5579750   6.3562590  69.7999600  28.4575310   3.0774910
  69.8126760  28.0537600   2.2097170  69.2474820  29.2322600   2.9736340
  69.1985040  23.3605150   4.4057520  69.6153830  23.1465260   3.5710980
  69.9224860  23.6177940   4.9766140  70.1089150  18.5461690   5.4428630
  69.6960330  19.3715400   5.6968620  69.3765100  17.9606730   5.2504990
  62.7103640  25.0189150   2.4686510  62.4131930  24.4134620   1.7894290
  63.6603460  25.0566460   2.3575870  60.9550560  18.1064800   4.0846340
  61.5065150  18.2160140   3.3099590  61.4694070  18.4802400   4.8001570
  70.7989250  28.5921020   6.1309610  70.3219810  29.3993210   5.9382220
  70.1151040  27.9399350   6.2835820  61.8022070  24.7570840   9.1194310
  60.9050600  24.9810810   9.3667710  61.8274940  24.8805780   8.1705710
  60.6293290  21.6284160   7.6951680  60.4901060  22.5006960   8.0639080
  59.7474650  21.2856970   7.5499620  62.4273640  27.5705860   9.9036830
  62.3989070  27.9748810   9.0365260  62.2638610  26.6416220   9.7408430
  56.5811940  23.3981710   3.6122590  56.6592360  23.5330480   2.6678310
  57.1953620  22.6897600   3.8050710  67.6438450  29.2473810   6.9295820
  68.1583120  29.1581820   7.7318250  66.8007530  29.5933510   7.2223730
  56.6371460  24.4395880   6.1517050  56.8002500  23.9701240   5.3336420
  57.1023910  23.9319440   6.8165890  65.6960040  16.4370160   6.7912940
  65.2339410  16.6453180   7.6032880  65.2938150  15.6229510   6.4883610
  70.6964550  17.6579110   7.9209600  69.8458140  17.3584860   8.2418670
  70.5366340  17.9021120   7.0093420  67.7914260  19.1580860  10.0208390
  68.1167670  18.3244610   9.6810620  68.5794590  19.6809380  10.1686720
  63.4466130  14.1148970   3.0467220  63.7438460  15.0211800   2.9659240
  63.9951690  13.6267750   2.4326790  63.6403660  19.5920790   9.5819140
  63.5447260  18.6515520   9.4319540  64.4835640  19.8135860   9.1867210
  58.7714200  16.0034460   7.7352920  58.3777590  16.8509670   7.9425700
  58.0832600  15.3660830   7.9261560  65.3459250  16.0869430  10.8049660
  64.6557570  15.8941630  11.4395750  66.0891550  16.3704070  11.3373960
  56.0731250  13.9262920   1.7683000  55.7844300  14.4965780   2.4807980
  56.8177010  13.4467370   2.1314230  67.6222220  19.9267870   3.6403580
  66.8903340  20.4354680   3.9893680  67.2246560  19.1097850   3.3392360
  68.0848130  15.3801550   3.0526520  68.1020870  15.8310200   3.8968370
  67.8363710  14.4807190   3.2659960  71.5118880  12.7933730   8.8912900
  71.8364650  12.0623390   9.4170880  71.5475390  12.4747370   7.9893890
  58.2110440  23.8147310   8.3112860  57.8265230  23.1740980   8.9095820
  58.5222630  24.5183430   8.8807590  64.3607580  20.6623850   3.7921480
  64.7277710  20.1882420   4.5382820  64.1712640  21.5365420   4.1329820
  62.1506950  19.7032490   6.1105690  61.8464020  20.5824470   6.3356050
  63.1053410  19.7632280   6.1463130  71.4376720  22.9058840   2.4998930
  72.1575840  23.4014130   2.1095040  71.2358540  22.2276730   1.8552800
  66.8195520  22.9767900   8.3867930  66.7532830  22.0563570   8.1325520
  66.1900660  23.0743340   9.1012570  58.2070680  20.5435230   7.2577050
  57.8485620  21.2089080   7.8450390  57.9125240  19.7118780   7.6289670
  61.4083800  21.0019470  10.1416600  61.1083940  21.1476650   9.2444420
  62.1795040  20.4424760  10.0489990  66.7512250  25.7988470   8.1371730
  66.7656790  24.8669430   7.9190640  66.0437350  25.8848230   8.7761500
  66.1846150  27.4406040   5.2312230  66.8288370  27.6465420   5.9085650
  66.5475590  26.6794440   4.7783080  67.4578230  25.4438390   3.9489680
  68.1000460  24.7431550   4.0621850  67.9827580  26.2236830   3.7686570
  69.2315850  26.2433290   7.1525740  69.5672090  26.8299980   7.8303660
  68.3116190  26.1126000   7.3823530  56.7819250  14.0328470   7.9349150
  56.0677770  14.2325390   8.5401760  57.2014290  13.2568040   8.3063950
  57.0691840  28.0208730   8.9215680  57.1782960  27.0803470   8.7811070
  56.4172400  28.2863480   8.2729410  65.0604430  26.2924620  10.3213800
  64.7401300  25.5733860  10.8659490  64.3862790  26.9679690  10.3949860
  68.2758030  16.5250780   5.6850600  68.6438850  15.7045990   6.0130170
  67.4156230  16.5852670   6.1006250  65.2360020  19.1790370   5.9088570
  65.7345270  19.6536190   6.5740420  65.3782970  18.2553890   6.1158600
  59.2150280  29.0877640  10.7335290  60.0163010  29.4089690  11.1470690
  58.7002100  28.7273220  11.4555200  68.0514910  25.1957510  10.6810700
  67.4453070  25.2189110   9.9406450  67.7469020  24.4640550  11.2177950
  69.4815280  28.9237800   9.2920110  70.4337030  28.8395820   9.2420350
  69.3343500  29.5879510   9.9653900  56.9348090  21.5751100   9.6771340
  57.4387110  20.9958380  10.2487570  56.1955510  21.8591330  10.2147710
  63.9886030  22.9822090   9.2106860  63.2231700  23.5507090   9.1261530
  64.1701990  22.6898300   8.3175090  71.1309380  24.7127420   9.7681880
  71.8718850  25.0503180   9.2649340  70.3682060  24.8819480   9.2151650
  58.9671170  19.7180690  10.5721410  59.0076510  19.4194560  11.4806640
  59.8216670  20.1188300  10.4128930  60.9076980  18.2972790   8.5395900
  60.3773440  17.8063740   7.9119240  61.5765050  18.7256990   8.0053830
  69.8055040  22.7642250   8.3037090  70.2196060  22.9187330   9.1527510
  68.8706040  22.8897470   8.4662870  70.2777210  20.1038410  10.3076240
  70.8597980  19.3490730  10.2196720  70.4538980  20.6345850   9.5307720
  61.3949280  15.2635160   8.6193190  61.3006150  14.6455910   7.8944060
  60.8146670  15.9901450   8.3923100  64.1610720  13.8208400   5.6520580
  63.7128020  13.8432660   4.8066130  63.5275920  13.4227420   6.2490880
  64.5670270  22.7162730   6.2733020  64.9858380  23.5595460   6.1009260
  63.6478900  22.8534770   6.0439800  66.9034170  20.4478910   7.6570860
  67.0230380  19.8520050   8.3965700  67.7628170  20.4848600   7.2372160
  69.2422070  21.0016100   6.2333370  68.7157290  21.5258720   5.6298510
  69.5853410  21.6343490   6.8643100  62.4177690  29.0215740   7.3890750
  61.8798780  29.7461800   7.0699450  62.6711650  28.5446080   6.5988090
  63.6702940  16.9900260   8.9146680  64.2602630  16.6816110   9.6024500
  62.8523180  16.5180010   9.0706580  68.4896370  16.6066070   9.1479700
  67.8011890  15.9447610   9.0829690  69.2102390  16.1604340   9.5928160
  65.2739900  30.2566950   7.6477400  65.1998600  31.1602090   7.9549770
  64.3718740  29.9378850   7.6199470  57.1657400  28.4512130   3.6892650
  56.7288390  28.6312930   4.5216800  57.7335080  29.2086750   3.5474370
  71.4871220  24.6781110   6.0746120  70.6731060  25.1078270   6.3371910
  71.8945420  25.2899520   5.4615170  58.0357760  21.3484930   4.5884870
  58.4030800  21.2612330   5.4680890  57.4668580  20.5851480   4.4891730
  57.5873760  18.2594020   8.4943290  56.6929810  18.2260780   8.8337000
  58.1271310  18.4580810   9.2594540  71.2749690  15.0425740  10.3795040
  72.1519870  15.0509140  10.7629040  71.2870530  14.3056580   9.7687390
  58.0913470  12.5342350   2.8426510  58.7389660  11.9839730   2.4021670
  58.5115310  12.7885500   3.6642320  71.9865810  12.7283710   6.1996150
  72.6238030  13.3417850   6.5655340  72.1340700  12.7644370   5.2545380
  57.8445470  12.6898020   5.5851830  57.4960290  13.1461840   6.3510010
  57.5133170  11.7955150   5.6674260  59.4509840  25.8617620   9.7505020
  59.4079470  25.4910530  10.6319480  59.5820850  26.7995190   9.8906840
  63.1515870  27.4177210   5.3514740  62.9107230  27.6851770   4.4645260
  64.0918510  27.5882940   5.4065600  65.3570290  13.8809900   9.1071250
  65.2959180  14.4731730   9.8566660  66.2970670  13.7735860   8.9621510
  67.9944850  13.5379960   8.7463540  68.6085260  13.8559250   8.0844620
  68.5394410  13.0528550   9.3659400  58.5166110  12.2174220   8.8602600
  59.0649100  12.0362270   8.0968710  58.5821420  11.4268330   9.3958910
  59.2897870  28.8079870   6.8702800  58.6958190  28.6764570   7.6092840
  59.2821710  27.9718010   6.4044900  68.7352890  12.1012100   5.0732830
  67.8612730  12.4347210   4.8705760  68.6263640  11.6285280   5.8984700
  69.6424870  14.3082970   6.4574550  69.3138230  13.4934730   6.0776280
  70.5907170  14.2652780   6.3340240  72.0959480  30.0795010   3.4312120
  71.6362450  30.8310820   3.0570140  71.4671940  29.3601480   3.3726920
  58.9210100  26.1738250   5.8210840  58.1944160  25.5543540   5.7536790
  58.9819250  26.5678860   4.9508920  62.5255200  28.3883250   2.6060250
  63.0420220  27.7770610   2.0808510  63.1752580  28.8912030   3.0971260
  65.2650700  29.2791740   3.4329230  65.5528510  29.0246040   2.5562240
  65.7773920  28.7269100   4.0234800  66.4827710  13.0181940   4.0125740
  65.6999500  13.4927440   4.2922500  66.1890640  12.1136770   3.9038920
  65.3323060  30.2007840  10.7997430  66.2590370  29.9652110  10.8433390
  65.3173490  31.0279840  10.3183460  62.5186670  12.8652590  10.5639310
  62.2370940  13.3686190   9.8000130  62.9006370  12.0674340  10.1981440
  69.1202130  12.2806170  11.1419780  69.0067580  12.6000780  12.0371300
  69.9371870  12.6818680  10.8457060  71.9000620  29.4277700  10.6238470
  72.6925940  28.9326930  10.4164430  72.1933770  30.1067840  11.2314080
  70.1785750   7.7094360  57.2636880  69.7167280   6.9381600  57.5924050
  70.9911300   7.7360430  57.7689330  66.4049060   9.9952370  56.8840870
  65.7860500  10.4509870  56.3135310  67.2600840  10.1503830  56.4830570
  67.2712410   4.8791610  54.2772780  66.6529680   5.3441060  53.7135500
  67.7835660   5.5719090  54.6942290  56.6395610   5.5648140  51.6512410
  56.2623590   6.0535240  50.9197310  56.8968680   6.2373420  52.2818940
  71.0945020   6.4048040  54.4895550  70.9841350   5.4622370  54.6144970
  71.0913270   6.7663680  55.3758310  66.6365300   2.0313360  53.8458040
  65.7094580   1.9650740  54.0746510  66.7890120   2.9693490  53.7313280
  70.6662590   3.5933660  54.3493290  70.0475010   3.2553210  53.7019590
  70.6487040   2.9493420  55.0572480  62.2421940   2.5578100  56.6277770
  61.8378940   1.8455350  56.1323670  62.3285060   2.2131340  57.5165810
  68.8427290   2.8320470  51.3566040  69.2820570   1.9942900  51.2103860
  69.5555710   3.4649870  51.4430180  66.9522670   7.7716540  55.3247280
  67.3918580   8.5140870  54.9102670  66.8909560   8.0143110  56.2486240
  57.8259570   6.3238410  56.3459240  57.4187650   6.4653000  55.4912840
  58.7172580   6.0398570  56.1430450  69.6192850  10.7585660  52.6810290
  69.4593990  10.4688600  53.5792120  69.4539560   9.9825790  52.1455520
  62.0981230  10.5384190  54.4581910  61.9223710   9.6219730  54.2449710
  61.2436970  10.8971480  54.6979710  69.3218980   8.2673220  51.2408290
  68.6284140   8.2650510  50.5810570  70.0641840   7.8432540  50.8102460
  68.8868910   9.8935930  55.3156780  69.3425860   9.1125310  55.6295400
  69.2261430  10.6042750  55.8597960  60.6788740   5.1349990  53.0303010
  59.9051000   4.5947610  52.8701730  61.4083370   4.6156600  52.6920770
  60.7226140   4.8030370  56.6681820  61.2404810   3.9998630  56.6138710
  60.2710160   4.7409510  57.5098650  65.6095640   6.0696650  51.9409120
  65.9511340   6.8138880  51.4452440  64.7808350   6.3827770  52.3033950
  68.4923050   5.3912490  57.3054630  68.8446870   4.7940620  56.6456000
  67.6085380   5.0656720  57.4762880  64.5786330   6.1510180  54.7125040
  65.2657460   6.6979390  55.0932630  63.7918750   6.6950910  54.7474650
  56.7178730   1.7683000  50.2042120  57.5873580   2.0507800  50.4878040
  56.2269050   2.5818870  50.0890930  63.8813540   3.1556210  54.3250400
  64.3376320   3.9661460  54.5510590  63.5301750   2.8379350  55.1568890
  71.3033950   6.9543520  49.9959290  71.0771530   6.2373960  50.5883930
  70.9130150   6.7055960  49.1581040  57.0849980  10.9810380  50.7703750
  57.4447620  11.5799720  50.1161020  56.9442320  11.5270270  51.5438780
  70.8850200   4.8715460  51.6573450  70.5971900   5.3328150  52.4451330
  71.6802370   4.4113230  51.9257670  63.1018600   8.3641580  51.5877420
  63.0928700   9.0971270  50.9721930  62.1816960   8.1173160  51.6804380
  58.7025240   3.5856470  52.3324180  58.0953190   4.3255370  52.3419480
  59.1774590   3.6755830  51.5062380  66.0878200   8.4269820  50.2502610
  66.1890180   8.2233810  49.3204590  65.1879940   8.1728100  50.4550390
  64.7296310  10.9456140  54.9450280  64.9837810  10.9077530  54.0229650
  63.7808790  10.8189470  54.9378530  60.7130530   3.5467620  50.0812750
  61.4793800   3.4348980  50.6438180  60.7905220   2.8505590  49.4289520
  60.2092000  11.1288080  57.8680180  60.9454480  10.5803540  58.1388750
  60.5932920  11.9944090  57.7286170  57.0937480   7.1961650  53.7421690
  56.1677260   7.4382790  53.7327100  57.5593910   8.0235910  53.6206440
  63.3194310  10.3018390  49.6905750  64.1122920  10.5907220  49.2387540
  62.7998660   9.8710560  49.0118230  72.3724480   9.5288520  51.1142490
  72.0865990   9.1153660  50.2996670  72.1744030  10.4576230  50.9943010
  63.8371710   5.5221800  49.5548100  63.7322350   4.9074150  50.2809480
  63.6695930   4.9987690  48.7711110  67.0774440   4.5841830  50.1590090
  66.5284540   5.0311130  50.8032830  67.6993700   4.0791080  50.6827760
  62.7449560   3.5432750  52.0555390  63.1665980   3.3772620  52.8986780
  62.8700400   2.7332980  51.5610530  65.2577200   2.5670360  49.3032490
  65.7782860   1.8519380  48.9373640  65.9045600   3.2056230  49.6033000
  65.8225230  10.6481970  51.5934230  66.7176020  10.9866940  51.6152990
  65.8542860   9.9261380  50.9658510  59.4621390   6.0209020  49.8221230
  59.8996260   6.5638690  50.4778810  59.9469120   5.1955970  49.8317570
  56.6767190   8.8098050  57.2741490  57.0070200   7.9419110  57.0420130
  57.1058190   9.0156570  58.1046450  61.2729110   7.1407060  54.9343460
  60.9724650   7.0172030  55.8347370  61.1666600   6.2815650  54.5259190
  56.9981830   2.1888870  56.3712000  56.3430670   1.9200510  55.7271700
  57.8359780   2.0793350  55.9213980  71.5447270  10.6556220  55.9244860
  72.1406340  10.3340790  55.2479280  71.8025420  10.1828040  56.7158130
  57.2040100  10.7169150  55.3538070  57.0362140  10.0839830  56.0519960
  56.3374610  10.9228550  55.0032260  58.8102800   9.4102380  52.7988210
  58.2850420   9.7910410  52.0950170  58.7347380  10.0353150  53.5197920
  61.4095770  11.3584760  51.6737460  62.1414590  11.0744040  51.1261350
  61.6689440  11.1198040  52.5636840  60.5710560   7.4749490  51.6783790
  59.9419440   7.9434590  52.2269620  60.6858390   6.6298710  52.1129980
  66.1578320   3.3034170  39.7094260  65.3820420   2.8234610  39.9992830
  66.8091250   2.6239820  39.5350420  60.1744150   3.6153980  40.5870020
  59.3429030   3.3602690  40.9866530  60.7825130   3.6864750  41.3227940
  70.1785750   7.7094360  38.4893390  69.7167280   6.9381600  38.8180560
  70.9911300   7.7360430  38.9945840  60.1545410   7.6494070  40.7828040
  60.4573450   6.7591810  40.6038260  60.8989000   8.2064290  40.5550290
  66.4049060   9.9952370  38.1097380  65.7860500  10.4509870  37.5391820
  67.2600840  10.1503830  37.7087080  65.5987310   5.9791360  39.7164420
  65.5295590   5.0381300  39.5553550  66.3607170   6.0692770  40.2886990
  67.2712410   4.8791610  35.5029290  66.6529680   5.3441060  34.9392010
  67.7835660   5.5719090  35.9198800  62.1344170   4.4067480  42.1812890
  61.8013550   5.0336400  42.8233960  62.3110850   4.9329360  41.4014560
  61.3463270   6.3748280  43.9962070  61.9637270   7.0499360  43.7146520
  60.4856390   6.7836260  43.9049570  56.6395610   5.5648140  32.8768920
  56.2623590   6.0535240  32.1453820  56.8968680   6.2373420  33.5075450
  69.7999600   9.6831820  40.6261890  69.8126760   9.2794110  39.7584150
  69.2474820  10.4579110  40.5223320  71.0945020   6.4048040  35.7152060
  70.9841350   5.4622370  35.8401480  71.0913270   6.7663680  36.6014820
  69.1985040   4.5861660  41.9544500  69.6153830   4.3721770  41.1197960
  69.9224860   4.8434450  42.5253120  66.6365300   2.0313360  35.0714550
  65.7094580   1.9650740  35.3003020  66.7890120   2.9693490  34.9569790
  70.6662590   3.5933660  35.5749800  70.0475010   3.2553210  34.9276100
  70.6487040   2.9493420  36.2828990  62.2421940   2.5578100  37.8534280
  61.8378940   1.8455350  37.3580180  62.3285060   2.2131340  38.7422320
  62.7103640   6.2445660  40.0173490  62.4131930   5.6391130  39.3381270
  63.6603460   6.2822970  39.9062850  70.7989250   9.8177530  43.6796590
  70.3219810  10.6249720  43.4869200  70.1151040   9.1655860  43.8322800
  61.8022070   5.9827350  46.6681290  60.9050600   6.2067320  46.9154690
  61.8274940   6.1062290  45.7192690  68.8427290   2.8320470  32.5822550
  69.2820570   1.9942900  32.4360370  69.5555710   3.4649870  32.6686690
  60.6293290   2.8540670  45.2438660  60.4901060   3.7263470  45.6126060
  59.7474650   2.5113480  45.0986600  66.9522670   7.7716540  36.5503790
  67.3918580   8.5140870  36.1359180  66.8909560   8.0143110  37.4742750
  62.4273640   8.7962370  47.4523810  62.3989070   9.2005320  46.5852240
  62.2638610   7.8672730  47.2895410  56.5811940   4.6238220  41.1609570
  56.6592360   4.7586990  40.2165290  57.1953620   3.9154110  41.3537690
  57.8259570   6.3238410  37.5715750  57.4187650   6.4653000  36.7169350
  58.7172580   6.0398570  37.3686960  67.6438450  10.4730320  44.4782800
  68.1583120  10.3838330  45.2805230  66.8007530  10.8190020  44.7710710
  69.6192850  10.7585660  33.9066800  69.4593990  10.4688600  34.8048630
  69.4539560   9.9825790  33.3712030  62.0981230  10.5384190  35.6838420
  61.9223710   9.6219730  35.4706220  61.2436970  10.8971480  35.9236220
  69.3218980   8.2673220  32.4664800  68.6284140   8.2650510  31.8067080
  70.0641840   7.8432540  32.0358970  68.8868910   9.8935930  36.5413290
  69.3425860   9.1125310  36.8551910  69.2261430  10.6042750  37.0854470
  56.6371460   5.6652390  43.7004030  56.8002500   5.1957750  42.8823400
  57.1023910   5.1575950  44.3652870  58.2110440   5.0403820  45.8599840
  57.8265230   4.3997490  46.4582800  58.5222630   5.7439940  46.4294570
  64.3607580   1.8880360  41.3408460  64.7277710   1.4138930  42.0869800
  64.1712640   2.7621930  41.6816800  60.6788740   5.1349990  34.2559520
  59.9051000   4.5947610  34.0958240  61.4083370   4.6156600  33.9177280
  71.4376720   4.1315350  40.0485910  72.1575840   4.6270640  39.6582020
  71.2358540   3.4533240  39.4039780  66.8195520   4.2024410  45.9354910
  66.7532830   3.2820080  45.6812500  66.1900660   4.2999850  46.6499550
  60.7226140   4.8030370  37.8938330  61.2404810   3.9998630  37.8395220
  60.2710160   4.7409510  38.7355160  65.6095640   6.0696650  33.1665630
  65.9511340   6.8138880  32.6708950  64.7808350   6.3827770  33.5290460
  61.4083800   2.2275980  47.6903580  61.1083940   2.3733160  46.7931400
  62.1795040   1.6681270  47.5976970  66.7512250   7.0244980  45.6858710
  66.7656790   6.0925940  45.4677620  66.0437350   7.1104740  46.3248480
  68.4923050   5.3912490  38.5311140  68.8446870   4.7940620  37.8712510
  67.6085380   5.0656720  38.7019390  64.5786330   6.1510180  35.9381550
  65.2657460   6.6979390  36.3189140  63.7918750   6.6950910  35.9731160
  56.7178730   1.7683000  31.4298630  57.5873580   2.0507800  31.7134550
  56.2269050   2.5818870  31.3147440  63.8813540   3.1556210  35.5506910
  64.3376320   3.9661460  35.7767100  63.5301750   2.8379350  36.3825400
  66.1846150   8.6662550  42.7799210  66.8288370   8.8721930  43.4572630
  66.5475590   7.9050950  42.3270060  67.4578230   6.6694900  41.4976660
  68.1000460   5.9688060  41.6108830  67.9827580   7.4493340  41.3173550
  71.3033950   6.9543520  31.2215800  71.0771530   6.2373960  31.8140440
  70.9130150   6.7055960  30.3837550  69.2315850   7.4689800  44.7012720
  69.5672090   8.0556490  45.3790640  68.3116190   7.3382510  44.9310510
  57.0849980  10.9810380  31.9960260  57.4447620  11.5799720  31.3417530
  56.9442320  11.5270270  32.7695290  70.8850200   4.8715460  32.8829960
  70.5971900   5.3328150  33.6707840  71.6802370   4.4113230  33.1514180
  57.0691840   9.2465240  46.4702660  57.1782960   8.3059980  46.3298050
  56.4172400   9.5119990  45.8216390  65.0604430   7.5181130  47.8700780
  64.7401300   6.7990370  48.4146470  64.3862790   8.1936200  47.9436840
  63.1018600   8.3641580  32.8133930  63.0928700   9.0971270  32.1978440
  62.1816960   8.1173160  32.9060890  58.7025240   3.5856470  33.5580690
  58.0953190   4.3255370  33.5675990  59.1774590   3.6755830  32.7318890
  66.0878200   8.4269820  31.4759120  66.1890180   8.2233810  30.5461100
  65.1879940   8.1728100  31.6806900  64.7296310  10.9456140  36.1706790
  64.9837810  10.9077530  35.2486160  63.7808790  10.8189470  36.1635040
  60.7130530   3.5467620  31.3069260  61.4793800   3.4348980  31.8694690
  60.7905220   2.8505590  30.6546030  60.2092000  11.1288080  39.0936690
  60.9454480  10.5803540  39.3645260  60.5932920  11.9944090  38.9542680
  57.0937480   7.1961650  34.9678200  56.1677260   7.4382790  34.9583610
  57.5593910   8.0235910  34.8462950  59.2150280  10.3134150  48.2822270
  60.0163010  10.6346200  48.6957670  58.7002100   9.9529730  49.0042180
  63.3194310  10.3018390  30.9162260  64.1122920  10.5907220  30.4644050
  62.7998660   9.8710560  30.2374740  68.0514910   6.4214020  48.2297680
  67.4453070   6.4445620  47.4893430  67.7469020   5.6897060  48.7664930
  69.4815280  10.1494310  46.8407090  70.4337030  10.0652330  46.7907330
  69.3343500  10.8136020  47.5140880  72.3724480   9.5288520  32.3399000
  72.0865990   9.1153660  31.5253180  72.1744030  10.4576230  32.2199520
  56.9348090   2.8007610  47.2258320  57.4387110   2.2214890  47.7974550
  56.1955510   3.0847840  47.7634690  63.8371710   5.5221800  30.7804610
  63.7322350   4.9074150  31.5065990  63.6695930   4.9987690  29.9967620
  63.9886030   4.2078600  46.7593840  63.2231700   4.7763600  46.6748510
  64.1701990   3.9154810  45.8662070  67.0774440   4.5841830  31.3846600
  66.5284540   5.0311130  32.0289340  67.6993700   4.0791080  31.9084270
  71.1309380   5.9383930  47.3168860  71.8718850   6.2759690  46.8136320
  70.3682060   6.1075990  46.7638630  62.7449560   3.5432750  33.2811900
  63.1665980   3.3772620  34.1243290  62.8700400   2.7332980  32.7867040
  65.2577200   2.5670360  30.5289000  65.7782860   1.8519380  30.1630150
  65.9045600   3.2056230  30.8289510  69.8055040   3.9898760  45.8524070
  70.2196060   4.1443840  46.7014490  68.8706040   4.1153980  46.0149850
  64.5670270   3.9419240  43.8220000  64.9858380   4.7851970  43.6496240
  63.6478900   4.0791280  43.5926780  69.2422070   2.2272610  43.7820350
  68.7157290   2.7515230  43.1785490  69.5853410   2.8600000  44.4130080
  62.4177690  10.2472250  44.9377730  61.8798780  10.9718310  44.6186430
  62.6711650   9.7702590  44.1475070  65.2739900  11.4823460  45.1964380
  65.1998600  12.3858600  45.5036750  64.3718740  11.1635360  45.1686450
  65.8225230  10.6481970  32.8190740  66.7176020  10.9866940  32.8409500
  65.8542860   9.9261380  32.1915020  59.4621390   6.0209020  31.0477740
  59.8996260   6.5638690  31.7035320  59.9469120   5.1955970  31.0574080
  56.6767190   8.8098050  38.4998000  57.0070200   7.9419110  38.2676640
  57.1058190   9.0156570  39.3302960  61.2729110   7.1407060  36.1599970
  60.9724650   7.0172030  37.0603880  61.1666600   6.2815650  35.7515700
  57.1657400   9.6768640  41.2379630  56.7288390   9.8569440  42.0703780
  57.7335080  10.4343260  41.0961350  56.9981830   2.1888870  37.5968510
  56.3430670   1.9200510  36.9528210  57.8359780   2.0793350  37.1470490
  71.4871220   5.9037620  43.6233100  70.6731060   6.3334780  43.8858890
  71.8945420   6.5156030  43.0102150  58.0357760   2.5741440  42.1371850
  58.4030800   2.4868840  43.0167870  57.4668580   1.8107990  42.0378710
  71.5447270  10.6556220  37.1501370  72.1406340  10.3340790  36.4735790
  71.8025420  10.1828040  37.9414640  59.4509840   7.0874130  47.2992000
  59.4079470   6.7167040  48.1806460  59.5820850   8.0251700  47.4393820
  63.1515870   8.6433720  42.9001720  62.9107230   8.9108280  42.0132240
  64.0918510   8.8139450  42.9552580  59.2897870  10.0336380  44.4189780
  58.6958190   9.9021080  45.1579820  59.2821710   9.1974520  43.9531880
  72.0959480  11.3051520  40.9799100  71.6362450  12.0567330  40.6057120
  71.4671940  10.5857990  40.9213900  58.9210100   7.3994760  43.3697820
  58.1944160   6.7800050  43.3023770  58.9819250   7.7935370  42.4995900
  62.5255200   9.6139760  40.1547230  63.0420220   9.0027120  39.6295490
  63.1752580  10.1168540  40.6458240  65.2650700  10.5048250  40.9816210
  65.5528510  10.2502550  40.1049220  65.7773920   9.9525610  41.5721780
  57.2040100  10.7169150  36.5794580  57.0362140  10.0839830  37.2776470
  56.3374610  10.9228550  36.2288770  58.8102800   9.4102380  34.0244720
  58.2850420   9.7910410  33.3206680  58.7347380  10.0353150  34.7454430
  65.3323060  11.4264350  48.3484410  66.2590370  11.1908620  48.3920370
  65.3173490  12.2536350  47.8670440  61.4095770  11.3584760  32.8993970
  62.1414590  11.0744040  32.3517860  61.6689440  11.1198040  33.7893350
  60.5710560   7.4749490  32.9040300  59.9419440   7.9434590  33.4526130
  60.6858390   6.6298710  33.3386490  71.9000620  10.6534210  48.1725450
  72.6925940  10.1583440  47.9651410  72.1933770  11.3324350  48.7801060
  66.1578320   3.3034170  20.9350770  65.3820420   2.8234610  21.2249340
  66.8091250   2.6239820  20.7606930  60.1744150   3.6153980  21.8126530
  59.3429030   3.3602690  22.2123040  60.7825130   3.6864750  22.5484450
  70.1785750   7.7094360  19.7149900  69.7167280   6.9381600  20.0437070
  70.9911300   7.7360430  20.2202350  60.1545410   7.6494070  22.0084550
  60.4573450   6.7591810  21.8294770  60.8989000   8.2064290  21.7806800
  66.4049060   9.9952370  19.3353890  65.7860500  10.4509870  18.7648330
  67.2600840  10.1503830  18.9343590  65.5987310   5.9791360  20.9420930
  65.5295590   5.0381300  20.7810060  66.3607170   6.0692770  21.5143500
  67.2712410   4.8791610  16.7285800  66.6529680   5.3441060  16.1648520
  67.7835660   5.5719090  17.1455310  62.1344170   4.4067480  23.4069400
  61.8013550   5.0336400  24.0490470  62.3110850   4.9329360  22.6271070
  61.3463270   6.3748280  25.2218580  61.9637270   7.0499360  24.9403030
  60.4856390   6.7836260  25.1306080  56.6395610   5.5648140  14.1025430
  56.2623590   6.0535240  13.3710330  56.8968680   6.2373420  14.7331960
  69.7999600   9.6831820  21.8518400  69.8126760   9.2794110  20.9840660
  69.2474820  10.4579110  21.7479830  71.0945020   6.4048040  16.9408570
  70.9841350   5.4622370  17.0657990  71.0913270   6.7663680  17.8271330
  69.1985040   4.5861660  23.1801010  69.6153830   4.3721770  22.3454470
  69.9224860   4.8434450  23.7509630  66.6365300   2.0313360  16.2971060
  65.7094580   1.9650740  16.5259530  66.7890120   2.9693490  16.1826300
  70.6662590   3.5933660  16.8006310  70.0475010   3.2553210  16.1532610
  70.6487040   2.9493420  17.5085500  62.2421940   2.5578100  19.0790790
  61.8378940   1.8455350  18.5836690  62.3285060   2.2131340  19.9678830
  62.7103640   6.2445660  21.2430000  62.4131930   5.6391130  20.5637780
  63.6603460   6.2822970  21.1319360  70.7989250   9.8177530  24.9053100
  70.3219810  10.6249720  24.7125710  70.1151040   9.1655860  25.0579310
  61.8022070   5.9827350  27.8937800  60.9050600   6.2067320  28.1411200
  61.8274940   6.1062290  26.9449200  68.8427290   2.8320470  13.8079060
  69.2820570   1.9942900  13.6616880  69.5555710   3.4649870  13.8943200
  60.6293290   2.8540670  26.4695170  60.4901060   3.7263470  26.8382570
  59.7474650   2.5113480  26.3243110  66.9522670   7.7716540  17.7760300
  67.3918580   8.5140870  17.3615690  66.8909560   8.0143110  18.6999260
  62.4273640   8.7962370  28.6780320  62.3989070   9.2005320  27.8108750
  62.2638610   7.8672730  28.5151920  56.5811940   4.6238220  22.3866080
  56.6592360   4.7586990  21.4421800  57.1953620   3.9154110  22.5794200
  57.8259570   6.3238410  18.7972260  57.4187650   6.4653000  17.9425860
  58.7172580   6.0398570  18.5943470  67.6438450  10.4730320  25.7039310
  68.1583120  10.3838330  26.5061740  66.8007530  10.8190020  25.9967220
  69.6192850  10.7585660  15.1323310  69.4593990  10.4688600  16.0305140
  69.4539560   9.9825790  14.5968540  62.0981230  10.5384190  16.9094930
  61.9223710   9.6219730  16.6962730  61.2436970  10.8971480  17.1492730
  69.3218980   8.2673220  13.6921310  68.6284140   8.2650510  13.0323590
  70.0641840   7.8432540  13.2615480  68.8868910   9.8935930  17.7669800
  69.3425860   9.1125310  18.0808420  69.2261430  10.6042750  18.3110980
  56.6371460   5.6652390  24.9260540  56.8002500   5.1957750  24.1079910
  57.1023910   5.1575950  25.5909380  58.2110440   5.0403820  27.0856350
  57.8265230   4.3997490  27.6839310  58.5222630   5.7439940  27.6551080
  64.3607580   1.8880360  22.5664970  64.7277710   1.4138930  23.3126310
  64.1712640   2.7621930  22.9073310  60.6788740   5.1349990  15.4816030
  59.9051000   4.5947610  15.3214750  61.4083370   4.6156600  15.1433790
  71.4376720   4.1315350  21.2742420  72.1575840   4.6270640  20.8838530
  71.2358540   3.4533240  20.6296290  66.8195520   4.2024410  27.1611420
  66.7532830   3.2820080  26.9069010  66.1900660   4.2999850  27.8756060
  60.7226140   4.8030370  19.1194840  61.2404810   3.9998630  19.0651730
  60.2710160   4.7409510  19.9611670  65.6095640   6.0696650  14.3922140
  65.9511340   6.8138880  13.8965460  64.7808350   6.3827770  14.7546970
  61.4083800   2.2275980  28.9160090  61.1083940   2.3733160  28.0187910
  62.1795040   1.6681270  28.8233480  66.7512250   7.0244980  26.9115220
  66.7656790   6.0925940  26.6934130  66.0437350   7.1104740  27.5504990
  68.4923050   5.3912490  19.7567650  68.8446870   4.7940620  19.0969020
  67.6085380   5.0656720  19.9275900  64.5786330   6.1510180  17.1638060
  65.2657460   6.6979390  17.5445650  63.7918750   6.6950910  17.1987670
  56.7178730   1.7683000  12.6555140  57.5873580   2.0507800  12.9391060
  56.2269050   2.5818870  12.5403950  63.8813540   3.1556210  16.7763420
  64.3376320   3.9661460  17.0023610  63.5301750   2.8379350  17.6081910
  66.1846150   8.6662550  24.0055720  66.8288370   8.8721930  24.6829140
  66.5475590   7.9050950  23.5526570  67.4578230   6.6694900  22.7233170
  68.1000460   5.9688060  22.8365340  67.9827580   7.4493340  22.5430060
  71.3033950   6.9543520  12.4472310  71.0771530   6.2373960  13.0396950
  70.9130150   6.7055960  11.6094060  69.2315850   7.4689800  25.9269230
  69.5672090   8.0556490  26.6047150  68.3116190   7.3382510  26.1567020
  57.0849980  10.9810380  13.2216770  57.4447620  11.5799720  12.5674040
  56.9442320  11.5270270  13.9951800  70.8850200   4.8715460  14.1086470
  70.5971900   5.3328150  14.8964350  71.6802370   4.4113230  14.3770690
  57.0691840   9.2465240  27.6959170  57.1782960   8.3059980  27.5554560
  56.4172400   9.5119990  27.0472900  65.0604430   7.5181130  29.0957290
  64.7401300   6.7990370  29.6402980  64.3862790   8.1936200  29.1693350
  63.1018600   8.3641580  14.0390440  63.0928700   9.0971270  13.4234950
  62.1816960   8.1173160  14.1317400  58.7025240   3.5856470  14.7837200
  58.0953190   4.3255370  14.7932500  59.1774590   3.6755830  13.9575400
  66.0878200   8.4269820  12.7015630  66.1890180   8.2233810  11.7717610
  65.1879940   8.1728100  12.9063410  64.7296310  10.9456140  17.3963300
  64.9837810  10.9077530  16.4742670  63.7808790  10.8189470  17.3891550
  60.7130530   3.5467620  12.5325770  61.4793800   3.4348980  13.0951200
  60.7905220   2.8505590  11.8802540  60.2092000  11.1288080  20.3193200
  60.9454480  10.5803540  20.5901770  60.5932920  11.9944090  20.1799190
  57.0937480   7.1961650  16.1934710  56.1677260   7.4382790  16.1840120
  57.5593910   8.0235910  16.0719460  59.2150280  10.3134150  29.5078780
  60.0163010  10.6346200  29.9214180  58.7002100   9.9529730  30.2298690
  63.3194310  10.3018390  12.1418770  64.1122920  10.5907220  11.6900560
  62.7998660   9.8710560  11.4631250  68.0514910   6.4214020  29.4554190
  67.4453070   6.4445620  28.7149940  67.7469020   5.6897060  29.9921440
  69.4815280  10.1494310  28.0663600  70.4337030  10.0652330  28.0163840
  69.3343500  10.8136020  28.7397390  72.3724480   9.5288520  13.5655510
  72.0865990   9.1153660  12.7509690  72.1744030  10.4576230  13.4456030
  56.9348090   2.8007610  28.4514830  57.4387110   2.2214890  29.0231060
  56.1955510   3.0847840  28.9891200  63.8371710   5.5221800  12.0061120
  63.7322350   4.9074150  12.7322500  63.6695930   4.9987690  11.2224130
  63.9886030   4.2078600  27.9850350  63.2231700   4.7763600  27.9005020
  64.1701990   3.9154810  27.0918580  67.0774440   4.5841830  12.6103110
  66.5284540   5.0311130  13.2545850  67.6993700   4.0791080  13.1340780
  71.1309380   5.9383930  28.5425370  71.8718850   6.2759690  28.0392830
  70.3682060   6.1075990  27.9895140  62.7449560   3.5432750  14.5068410
  63.1665980   3.3772620  15.3499800  62.8700400   2.7332980  14.0123550
  65.2577200   2.5670360  11.7545510  65.7782860   1.8519380  11.3886660
  65.9045600   3.2056230  12.0546020  69.8055040   3.9898760  27.0780580
  70.2196060   4.1443840  27.9271000  68.8706040   4.1153980  27.2406360
  64.5670270   3.9419240  25.0476510  64.9858380   4.7851970  24.8752750
  63.6478900   4.0791280  24.8183290  69.2422070   2.2272610  25.0076860
  68.7157290   2.7515230  24.4042000  69.5853410   2.8600000  25.6386590
  62.4177690  10.2472250  26.1634240  61.8798780  10.9718310  25.8442940
  62.6711650   9.7702590  25.3731580  65.2739900  11.4823460  26.4220890
  65.1998600  12.3858600  26.7293260  64.3718740  11.1635360  26.3942960
  65.8225230  10.6481970  14.0447250  66.7176020  10.9866940  14.0666010
  65.8542860   9.9261380  13.4171530  59.4621390   6.0209020  12.2734250
  59.8996260   6.5638690  12.9291830  59.9469120   5.1955970  12.2830590
  56.6767190   8.8098050  19.7254510  57.0070200   7.9419110  19.4933150
  57.1058190   9.0156570  20.5559470  61.2729110   7.1407060  17.3856480
  60.9724650   7.0172030  18.2860390  61.1666600   6.2815650  16.9772210
  57.1657400   9.6768640  22.4636140  56.7288390   9.8569440  23.2960290
  57.7335080  10.4343260  22.3217860  56.9981830   2.1888870  18.8225020
  56.3430670   1.9200510  18.1784720  57.8359780   2.0793350  18.3727000
  71.4871220   5.9037620  24.8489610  70.6731060   6.3334780  25.1115400
  71.8945420   6.5156030  24.2358660  58.0357760   2.5741440  23.3628360
  58.4030800   2.4868840  24.2424380  57.4668580   1.8107990  23.2635220
  71.5447270  10.6556220  18.3757880  72.1406340  10.3340790  17.6992300
  71.8025420  10.1828040  19.1671150  59.4509840   7.0874130  28.5248510
  59.4079470   6.7167040  29.4062970  59.5820850   8.0251700  28.6650330
  63.1515870   8.6433720  24.1258230  62.9107230   8.9108280  23.2388750
  64.0918510   8.8139450  24.1809090  59.2897870  10.0336380  25.6446290
  58.6958190   9.9021080  26.3836330  59.2821710   9.1974520  25.1788390
  72.0959480  11.3051520  22.2055610  71.6362450  12.0567330  21.8313630
  71.4671940  10.5857990  22.1470410  58.9210100   7.3994760  24.5954330
  58.1944160   6.7800050  24.5280280  58.9819250   7.7935370  23.7252410
  62.5255200   9.6139760  21.3803740  63.0420220   9.0027120  20.8552000
  63.1752580  10.1168540  21.8714750  65.2650700  10.5048250  22.2072720
  65.5528510  10.2502550  21.3305730  65.7773920   9.9525610  22.7978290
  57.2040100  10.7169150  17.8051090  57.0362140  10.0839830  18.5032980
  56.3374610  10.9228550  17.4545280  58.8102800   9.4102380  15.2501230
  58.2850420   9.7910410  14.5463190  58.7347380  10.0353150  15.9710940
  65.3323060  11.4264350  29.5740920  66.2590370  11.1908620  29.6176880
  65.3173490  12.2536350  29.0926950  61.4095770  11.3584760  14.1250480
  62.1414590  11.0744040  13.5774370  61.6689440  11.1198040  15.0149860
  60.5710560   7.4749490  14.1296810  59.9419440   7.9434590  14.6782640
  60.6858390   6.6298710  14.5643000  71.9000620  10.6534210  29.3981960
  72.6925940  10.1583440  29.1907920  72.1933770  11.3324350  30.0057570
  66.1578320   3.3034170   2.1607280  65.3820420   2.8234610   2.4505850
  66.8091250   2.6239820   1.9863440  60.1744150   3.6153980   3.0383040
  59.3429030   3.3602690   3.4379550  60.7825130   3.6864750   3.7740960
  60.1545410   7.6494070   3.2341060  60.4573450   6.7591810   3.0551280
  60.8989000   8.2064290   3.0063310  65.5987310   5.9791360   2.1677440
  65.5295590   5.0381300   2.0066570  66.3607170   6.0692770   2.7400010
  62.1344170   4.4067480   4.6325910  61.8013550   5.0336400   5.2746980
  62.3110850   4.9329360   3.8527580  61.3463270   6.3748280   6.4475090
  61.9637270   7.0499360   6.1659540  60.4856390   6.7836260   6.3562590
  69.7999600   9.6831820   3.0774910  69.8126760   9.2794110   2.2097170
  69.2474820  10.4579110   2.9736340  69.1985040   4.5861660   4.4057520
  69.6153830   4.3721770   3.5710980  69.9224860   4.8434450   4.9766140
  62.7103640   6.2445660   2.4686510  62.4131930   5.6391130   1.7894290
  63.6603460   6.2822970   2.3575870  70.7989250   9.8177530   6.1309610
  70.3219810  10.6249720   5.9382220  70.1151040   9.1655860   6.2835820
  61.8022070   5.9827350   9.1194310  60.9050600   6.2067320   9.3667710
  61.8274940   6.1062290   8.1705710  60.6293290   2.8540670   7.6951680
  60.4901060   3.7263470   8.0639080  59.7474650   2.5113480   7.5499620
  62.4273640   8.7962370   9.9036830  62.3989070   9.2005320   9.0365260
  62.2638610   7.8672730   9.7408430  56.5811940   4.6238220   3.6122590
  56.6592360   4.7586990   2.6678310  57.1953620   3.9154110   3.8050710
  67.6438450  10.4730320   6.9295820  68.1583120  10.3838330   7.7318250
  66.8007530  10.8190020   7.2223730  56.6371460   5.6652390   6.1517050
  56.8002500   5.1957750   5.3336420  57.1023910   5.1575950   6.8165890
  58.2110440   5.0403820   8.3112860  57.8265230   4.3997490   8.9095820
  58.5222630   5.7439940   8.8807590  64.3607580   1.8880360   3.7921480
  64.7277710   1.4138930   4.5382820  64.1712640   2.7621930   4.1329820
  71.4376720   4.1315350   2.4998930  72.1575840   4.6270640   2.1095040
  71.2358540   3.4533240   1.8552800  66.8195520   4.2024410   8.3867930
  66.7532830   3.2820080   8.1325520  66.1900660   4.2999850   9.1012570
  61.4083800   2.2275980  10.1416600  61.1083940   2.3733160   9.2444420
  62.1795040   1.6681270  10.0489990  66.7512250   7.0244980   8.1371730
  66.7656790   6.0925940   7.9190640  66.0437350   7.1104740   8.7761500
  66.1846150   8.6662550   5.2312230  66.8288370   8.8721930   5.9085650
  66.5475590   7.9050950   4.7783080  67.4578230   6.6694900   3.9489680
  68.1000460   5.9688060   4.0621850  67.9827580   7.4493340   3.7686570
  69.2315850   7.4689800   7.1525740  69.5672090   8.0556490   7.8303660
  68.3116190   7.3382510   7.3823530  57.0691840   9.2465240   8.9215680
  57.1782960   8.3059980   8.7811070  56.4172400   9.5119990   8.2729410
  65.0604430   7.5181130  10.3213800  64.7401300   6.7990370  10.8659490
  64.3862790   8.1936200  10.3949860  59.2150280  10.3134150  10.7335290
  60.0163010  10.6346200  11.1470690  58.7002100   9.9529730  11.4555200
  68.0514910   6.4214020  10.6810700  67.4453070   6.4445620   9.9406450
  67.7469020   5.6897060  11.2177950  69.4815280  10.1494310   9.2920110
  70.4337030  10.0652330   9.2420350  69.3343500  10.8136020   9.9653900
  56.9348090   2.8007610   9.6771340  57.4387110   2.2214890  10.2487570
  56.1955510   3.0847840  10.2147710  63.9886030   4.2078600   9.2106860
  63.2231700   4.7763600   9.1261530  64.1701990   3.9154810   8.3175090
  71.1309380   5.9383930   9.7681880  71.8718850   6.2759690   9.2649340
  70.3682060   6.1075990   9.2151650  69.8055040   3.9898760   8.3037090
  70.2196060   4.1443840   9.1527510  68.8706040   4.1153980   8.4662870
  64.5670270   3.9419240   6.2733020  64.9858380   4.7851970   6.1009260
  63.6478900   4.0791280   6.0439800  69.2422070   2.2272610   6.2333370
  68.7157290   2.7515230   5.6298510  69.5853410   2.8600000   6.8643100
  62.4177690  10.2472250   7.3890750  61.8798780  10.9718310   7.0699450
  62.6711650   9.7702590   6.5988090  65.2739900  11.4823460   7.6477400
  65.1998600  12.3858600   7.9549770  64.3718740  11.1635360   7.6199470
  57.1657400   9.6768640   3.6892650  56.7288390   9.8569440   4.5216800
  57.7335080  10.4343260   3.5474370  71.4871220   5.9037620   6.0746120
  70.6731060   6.3334780   6.3371910  71.8945420   6.5156030   5.4615170
  58.0357760   2.5741440   4.5884870  58.4030800   2.4868840   5.4680890
  57.4668580   1.8107990   4.4891730  59.4509840   7.0874130   9.7505020
  59.4079470   6.7167040  10.6319480  59.5820850   8.0251700   9.8906840
  63.1515870   8.6433720   5.3514740  62.9107230   8.9108280   4.4645260
  64.0918510   8.8139450   5.4065600  59.2897870  10.0336380   6.8702800
  58.6958190   9.9021080   7.6092840  59.2821710   9.1974520   6.4044900
  72.0959480  11.3051520   3.4312120  71.6362450  12.0567330   3.0570140
  71.4671940  10.5857990   3.3726920  58.9210100   7.3994760   5.8210840
  58.1944160   6.7800050   5.7536790  58.9819250   7.7935370   4.9508920
  62.5255200   9.6139760   2.6060250  63.0420220   9.0027120   2.0808510
  63.1752580  10.1168540   3.0971260  65.2650700  10.5048250   3.4329230
  65.5528510  10.2502550   2.5562240  65.7773920   9.9525610   4.0234800
  65.3323060  11.4264350  10.7997430  66.2590370  11.1908620  10.8433390
  65.3173490  12.2536350  10.3183460  71.9000620  10.6534210  10.6238470
  72.6925940  10.1583440  10.4164430  72.1933770  11.3324350  11.2314080
  49.2516790  57.8485620  56.6028480  49.1710840  56.9340230  56.3320190
  48.8381210  58.3452690  55.8968190  39.8092610  54.8986340  53.1455900
  38.9209310  55.2402310  53.0435780  40.0933800  54.6986660  52.2536730
  41.9854000  53.4817840  54.1794280  42.0920750  54.3821570  54.4863040
  41.0746360  53.4335810  53.8888930  51.6373110  52.6042650  55.6505180
  52.4582730  52.1139220  55.6930660  51.6707190  53.1940310  56.4037020
  45.4741050  50.2895000  57.1097920  45.7816030  49.7341890  56.3933420
  44.5441750  50.4239460  56.9270910  47.8621810  58.3543830  53.8458040
  46.9351090  58.2881210  54.0746510  48.0146630  59.2923960  53.7313280
  47.8490890  54.6260830  50.8425200  46.9094560  54.7874790  50.9277660
  48.1674150  55.3446510  50.2961190  43.4678450  58.8808570  56.6277770
  43.0635450  58.1685820  56.1323670  43.5541570  58.5361810  57.5165810
  53.6500940  50.4093750  49.6707080  53.3373600  50.5020580  50.5706150
  54.4113410  50.9874780  49.6204510  40.1683080  57.7753550  54.1284420
  40.0480680  58.5015640  53.5165690  39.8583970  57.0056460  53.6512330
  42.6346740  51.1188620  57.5108090  42.1914890  51.8998160  57.1792610
  43.1931730  51.4418510  58.2179030  45.7505560  50.7399320  52.3913920
  45.1259740  50.7359190  53.1167230  45.6635680  49.8730280  51.9949890
  42.4260960  56.2422190  55.2389340  42.2001880  56.0259360  56.1435960
  41.6453490  56.6750650  54.8935310  49.6558720  56.2485560  53.8379990
  49.0567610  56.9721360  53.6543610  50.2038330  56.1862340  53.0556440
  48.2623590  54.8849100  55.8683270  48.6553160  55.2021300  55.0551960
  48.6240440  54.0060980  55.9827790  37.4857990  55.4170020  49.3016190
  37.4032660  56.3600780  49.4431180  37.1341050  55.2744930  48.4228540
  45.2856120  54.1509050  58.3686540  45.2892180  53.7099000  57.5191080
  46.1807240  54.4726380  58.4758360  41.1358500  54.0335540  57.3280750
  40.7958550  54.5110770  58.0847800  40.3735820  53.5800660  56.9681850
  45.3476270  55.1521130  51.3593300  45.4689090  55.1107610  52.3079120
  44.9624780  56.0145280  51.2040030  44.3597770  57.4622270  50.7576600
  43.7914670  57.0140520  50.1312510  45.0686770  57.8215050  50.2241750
  38.4504580  52.9554520  56.2445420  38.1651500  52.5910190  57.0824040
  38.3883440  52.2234980  55.6308560  48.1243170  51.8483780  52.9658790
  47.3107780  51.3496950  52.8904100  47.9305120  52.6882030  52.5495140
  50.8391560  56.2203430  51.2620950  51.7271180  56.5320660  51.0872290
  50.8096650  55.3475680  50.8701530  53.1105830  57.5315270  50.7300810
  53.0269550  57.9629490  49.8797250  53.8300020  57.9913620  51.1627630
  37.9435240  58.0913470  50.2042120  38.8130090  58.3738270  50.4878040
  37.4525560  58.9049340  50.0890930  41.0081830  49.8224330  54.7972920
  40.8796460  49.8142230  55.7457840  40.1843850  50.1607420  54.4463930
  52.8676570  53.0294700  52.8168630  52.2389730  53.1340370  52.1026860
  52.3728490  53.2491480  53.6062510  44.8360600  55.3080650  54.2326510
  44.1276750  55.7766990  54.6740120  45.1205080  54.6502660  54.8671700
  48.8676030  52.0331310  55.6722300  48.7443810  52.0517440  54.7231810
  49.8160590  52.0810250  55.7920700  43.0395620  53.6165730  51.6077220
  43.8886150  54.0535880  51.5417410  42.6726890  53.9285990  52.4349280
  51.9605400  58.1878490  56.5208790  51.0195540  58.2028720  56.6956480
  52.2749470  57.4014450  56.9669090  40.6333800  57.3023160  50.7645640
  40.7137390  56.3550670  50.8763040  41.5253550  57.6330040  50.8706300
  46.4833710  58.8900830  49.3032490  47.0039370  58.1749850  48.9373640
  47.1302110  59.5286700  49.6033000  42.8664970  55.9396450  49.0013550
  42.6654030  55.0763810  49.3626890  42.6957020  55.8529810  48.0635150
  50.3453280  50.7504680  51.5300430  50.6255570  49.9072580  51.8859850
  49.5719010  50.9827790  52.0439180  41.6647770  53.0397070  48.9891430
  41.9673670  53.0464500  48.0810580  42.4042360  52.6894930  49.4859090
  44.8832700  51.9831690  49.9747630  44.5354700  51.3055680  49.3950080
  45.0845470  51.5221200  50.7891020  38.2238340  58.5119340  56.3712000
  37.5687180  58.2430980  55.7271700  39.0616290  58.4023820  55.9213980
  51.1728780  53.3060630  50.5930490  51.5913660  53.1191610  49.7527150
  50.8664840  52.4539680  50.9033420  54.6718510  58.2184770  54.2906290
  54.2962110  57.4512700  53.8587580  53.9421630  58.6007470  54.7781220
  37.4376420  55.7218270  52.3137330  36.5340500  55.9848470  52.1388990
  37.9217040  55.9929440  51.5337290  53.9469470  56.4442260  57.5913530
  54.4706950  55.9504910  56.9603700  54.5328890  56.5792620  58.3361100
  39.9803630  54.7783810  50.2231710  40.6895330  54.3567030  49.7378990
  39.2643570  54.8459040  49.5915060  39.6277790  50.8323140  49.2634360
  40.3505920  51.3732080  49.5815580  39.9002310  50.5586560  48.3875900
  53.4369440  55.7015610  53.5305940  53.9328560  55.4686480  54.3154820
  53.2385510  54.8627450  53.1143580  54.8656600  54.3376560  56.0643620
  54.7555880  54.1832600  57.0025890  55.6264190  53.8097500  55.8219030
  55.7546870  52.1684480  49.3049760  56.6796180  52.0365660  49.0968050
  55.7322660  52.2477300  50.2586210  55.8285360  52.9395140  51.9306470
  55.0336860  52.8740260  52.4599380  56.0328640  53.8745780  51.9191820
  52.2605290  51.2692020  58.3805300  52.7013380  51.2137120  57.5326900
  51.9912880  52.1850030  58.4515480  54.1243860  50.9007260  56.3914120
  54.0632260  49.9568480  56.2445140  54.9035890  51.0087350  56.9367580
  39.0524630  50.8716400  52.8569930  39.8103990  50.9845280  52.2833960
  38.5901800  51.7085600  52.8113360  45.5938440  52.9855670  55.8472240
  44.7812950  52.6112560  55.5068120  46.0980080  52.2300750  56.1493430
  50.0963420  49.6498120  57.0855310  50.6992790  50.2218330  57.5603830
  49.3556410  50.2137560  56.8629210  53.2398020  50.0519680  52.3595590
  53.4348650  50.9503130  52.6263020  52.4527890  49.8206760  52.8528540
  41.4249780  51.3980450  51.3971900  41.9542540  50.6110250  51.2679850
  42.0578100  52.0771640  51.6307430  43.6187620  51.1355590  54.4517290
  42.9890360  50.4342900  54.6187420  43.0792760  51.8959720  54.2350450
  49.2516790  57.8485620  37.8284990  49.1710840  56.9340230  37.5576700
  48.8381210  58.3452690  37.1224700  47.3834830  59.6264640  39.7094260
  46.6076930  59.1465080  39.9992830  48.0347760  58.9470290  39.5350420
  39.8092610  54.8986340  34.3712410  38.9209310  55.2402310  34.2692290
  40.0933800  54.6986660  33.4793240  37.7725620  57.4991990  40.2552110
  38.3441730  56.7314190  40.2555750  37.7727160  57.7980750  39.3458720
  39.0150490  52.9076350  42.0421040  38.8353330  52.0102100  42.3223800
  38.6130570  53.4548220  42.7167990  47.8548990  55.1092210  39.9433350
  48.2313810  54.2364090  39.8307020  47.7568500  55.4450910  39.0523790
  41.9854000  53.4817840  35.4050790  42.0920750  54.3821570  35.7119550
  41.0746360  53.4335810  35.1145440  51.6373110  52.6042650  36.8761690
  52.4582730  52.1139220  36.9187170  51.6707190  53.1940310  37.6293530
  39.6337160  55.4036850  40.6503380  40.3147270  55.6675220  41.2690780
  39.3185210  54.5637720  40.9841390  43.8261730  56.4504210  39.7375970
  44.3339950  56.9485180  40.3780990  44.3574970  55.6739410  39.5615330
  55.9272660  54.6209400  43.4405320  55.2224830  55.0091110  42.9220430
  56.1930580  55.3159690  44.0426250  42.1097830  51.0902770  44.0039390
  42.1116270  51.6075160  43.1985290  41.2802140  50.6132950  43.9809320
  51.8734590  54.5443030  39.6489230  51.1690160  54.8327920  40.2292340
  52.2346750  55.3543140  39.2888790  41.7913160  52.8012730  42.0109840
  42.1329970  53.6454780  41.7163710  40.8528970  52.9496470  42.1275180
  54.9421510  53.9897820  40.0398440  53.9946420  54.0236800  40.1713870
  55.2671500  54.8036770  40.4247800  45.4741050  50.2895000  38.3354430
  45.7816030  49.7341890  37.6189930  44.5441750  50.4239460  38.1527420
  47.8621810  58.3543830  35.0714550  46.9351090  58.2881210  35.3003020
  48.0146630  59.2923960  34.9569790  47.8490890  54.6260830  32.0681710
  46.9094560  54.7874790  32.1534170  48.1674150  55.3446510  31.5217700
  51.3345660  56.0948670  42.9915610  50.9216840  56.9202380  43.2455600
  50.6021610  55.5093710  42.7991970  43.4678450  58.8808570  37.8534280
  43.0635450  58.1685820  37.3580180  43.5541570  58.5361810  38.7422320
  42.1807070  55.6551780  41.6333320  42.7321660  55.7647120  40.8586570
  42.6950580  56.0289380  42.3488550  53.6500940  50.4093750  30.8963590
  53.3373600  50.5020580  31.7962660  54.4113410  50.9874780  30.8461020
  40.1683080  57.7753550  35.3540930  40.0480680  58.5015640  34.7422200
  39.8583970  57.0056460  34.8768840  54.8602230  55.1465250  46.8737730
  54.2446500  55.6544920  46.3453190  54.5398650  54.2463580  46.8163670
  42.6346740  51.1188620  38.7364600  42.1914890  51.8998160  38.4049120
  43.1931730  51.4418510  39.4435540  46.9216550  53.9857140  44.3399920
  46.4595920  54.1940160  45.1519860  46.5194660  53.1716490  44.0370590
  51.9221060  55.2066090  45.4696580  51.0714650  54.9071840  45.7905650
  51.7622850  55.4508100  44.5580400  49.0170770  56.7067840  47.5695370
  49.3424180  55.8731590  47.2297600  49.8051100  57.2296360  47.7173700
  45.7505560  50.7399320  33.6170430  45.1259740  50.7359190  34.3423740
  45.6635680  49.8730280  33.2206400  44.6722640  51.6635950  40.5954200
  44.9694970  52.5698780  40.5146220  45.2208200  51.1754730  39.9813770
  42.4260960  56.2422190  36.4645850  42.2001880  56.0259360  37.3692470
  41.6453490  56.6750650  36.1191820  49.6558720  56.2485560  35.0636500
  49.0567610  56.9721360  34.8800120  50.2038330  56.1862340  34.2812950
  44.8660170  57.1407770  47.1306120  44.7703770  56.2002500  46.9806520
  45.7092150  57.3622840  46.7354190  48.2623590  54.8849100  37.0939780
  48.6553160  55.2021300  36.2808470  48.6240440  54.0060980  37.2084300
  39.9970710  53.5521440  45.2839900  39.6034100  54.3996650  45.4912680
  39.3089110  52.9147810  45.4748540  46.5715760  53.6356410  48.3536640
  45.8814080  53.4428610  48.9882730  47.3148060  53.9191050  48.8860940
  37.2987760  51.4749900  39.3169980  37.0100810  52.0452760  40.0294960
  38.0433520  50.9954350  39.6801210  37.4857990  55.4170020  30.5272700
  37.4032660  56.3600780  30.6687690  37.1341050  55.2744930  29.6485050
  48.8478730  57.4754850  41.1890560  48.1159850  57.9841660  41.5380660
  48.4503070  56.6584830  40.8879340  45.2856120  54.1509050  39.5943050
  45.2892180  53.7099000  38.7447590  46.1807240  54.4726380  39.7014870
  41.1358500  54.0335540  38.5537260  40.7958550  54.5110770  39.3104310
  40.3735820  53.5800660  38.1938360  45.3476270  55.1521130  32.5849810
  45.4689090  55.1107610  33.5335630  44.9624780  56.0145280  32.4296540
  49.3104640  52.9288530  40.6013500  49.3277380  53.3797180  41.4455350
  49.0620220  52.0294170  40.8146940  44.3597770  57.4622270  31.9833110
  43.7914670  57.0140520  31.3569020  45.0686770  57.8215050  31.4498260
  52.7375390  50.3420710  46.4399880  53.0621160  49.6110370  46.9657860
  52.7731900  50.0234350  45.5380870  45.5864090  58.2110830  41.3408460
  45.9534220  57.7369400  42.0869800  45.3969150  59.0852400  41.6816800
  38.4504580  52.9554520  37.4701930  38.1651500  52.5910190  38.3080550
  38.3883440  52.2234980  36.8565070  43.3763460  57.2519470  43.6592670
  43.0720530  58.1311450  43.8843030  44.3309920  57.3119260  43.6950110
  48.1243170  51.8483780  34.1915300  47.3107780  51.3496950  34.1160610
  47.9305120  52.6882030  33.7751650  50.8391560  56.2203430  32.4877460
  51.7271180  56.5320660  32.3128800  50.8096650  55.3475680  32.0958040
  39.4327190  58.0922210  44.8064030  39.0742130  58.7576060  45.3937370
  39.1381750  57.2605760  45.1776650  42.6340310  58.5506450  47.6903580
  42.3340450  58.6963630  46.7931400  43.4051550  57.9911740  47.5976970
  53.1105830  57.5315270  31.9557320  53.0269550  57.9629490  31.1053760
  53.8300020  57.9913620  32.3884140  37.9435240  58.0913470  31.4298630
  38.8130090  58.3738270  31.7134550  37.4525560  58.9049340  31.3147440
  41.0081830  49.8224330  36.0229430  40.8796460  49.8142230  36.9714350
  40.1843850  50.1607420  35.6720440  38.0075760  51.5815450  45.4836130
  37.2934280  51.7812370  46.0888740  38.4270800  50.8055020  45.8550930
  49.5014540  54.0737760  43.2337580  49.8695360  53.2532970  43.5617150
  48.6412740  54.1339650  43.6493230  52.8676570  53.0294700  34.0425140
  52.2389730  53.1340370  33.3283370  52.3728490  53.2491480  34.8319020
  44.8360600  55.3080650  35.4583020  44.1276750  55.7766990  35.8996630
  45.1205080  54.6502660  36.0928210  46.4616530  56.7277350  43.4575550
  46.9601780  57.2023170  44.1227400  46.6039480  55.8040870  43.6645580
  48.8676030  52.0331310  36.8978810  48.7443810  52.0517440  35.9488320
  49.8160590  52.0810250  37.0177210  43.0395620  53.6165730  32.8333730
  43.8886150  54.0535880  32.7673920  42.6726890  53.9285990  33.6605790
  53.6683390  52.9445310  44.3003940  53.1656990  53.6850710  44.6397750
  54.4840050  53.3329310  43.9840730  51.9605400  58.1878490  37.7465300
  51.0195540  58.2028720  37.9212990  52.2749470  57.4014450  38.1925600
  40.6333800  57.3023160  31.9902150  40.7137390  56.3550670  32.1019550
  41.5253550  57.6330040  32.0962810  38.1604600  59.1238080  47.2258320
  38.6643620  58.5445360  47.7974550  37.4212020  59.4078310  47.7634690
  40.1927680  57.2667670  48.1208390  40.2333020  56.9681540  49.0293620
  41.0473180  57.6675280  47.9615910  42.1333490  55.8459770  46.0882880
  41.6029950  55.3550720  45.4606220  42.8021560  56.2743970  45.5540810
  46.4833710  58.8900830  30.5289000  47.0039370  58.1749850  30.1630150
  47.1302110  59.5286700  30.8289510  51.5033720  57.6525390  47.8563220
  52.0854490  56.8977710  47.7683700  51.6795490  58.1832830  47.0794700
  42.6205790  52.8122140  46.1680170  42.5262660  52.1942890  45.4431040
  42.0403180  53.5388430  45.9410080  45.3867230  51.3695380  43.2007560
  44.9384530  51.3919640  42.3553110  44.7532430  50.9714400  43.7977860
  48.1290680  57.9965890  45.2057840  48.2486890  57.4007030  45.9452680
  48.9884680  58.0335580  44.7859140  50.4678580  58.5503080  43.7820350
  49.9413800  59.0745700  43.1785490  50.8109920  59.1830470  44.4130080
  42.8664970  55.9396450  30.2270060  42.6654030  55.0763810  30.5883400
  42.6957020  55.8529810  29.2891660  44.8959450  54.5387240  46.4633660
  45.4859140  54.2303090  47.1511480  44.0779690  54.0666990  46.6193560
  49.7152880  54.1553050  46.6966680  49.0268400  53.4934590  46.6316670
  50.4358900  53.7091320  47.1415140  50.3453280  50.7504680  32.7556940
  50.6255570  49.9072580  33.1116360  49.5719010  50.9827790  33.2695690
  41.6647770  53.0397070  30.2147940  41.9673670  53.0464500  29.3067090
  42.4042360  52.6894930  30.7115600  44.8832700  51.9831690  31.2004140
  44.5354700  51.3055680  30.6206590  45.0845470  51.5221200  32.0147530
  38.2238340  58.5119340  37.5968510  37.5687180  58.2430980  36.9528210
  39.0616290  58.4023820  37.1470490  51.1728780  53.3060630  31.8187000
  51.5913660  53.1191610  30.9783660  50.8664840  52.4539680  32.1289930
  54.6718510  58.2184770  35.5162800  54.2962110  57.4512700  35.0844090
  53.9421630  58.6007470  36.0037730  39.2614270  58.8971910  42.1371850
  39.6287310  58.8099310  43.0167870  38.6925090  58.1338460  42.0378710
  54.0618130  57.3656290  45.1502320  53.8304220  57.1369040  44.2500270
  54.3222680  58.2855840  45.1047210  38.8130270  55.8081000  46.0430270
  37.9186320  55.7747760  46.3823980  39.3527820  56.0067790  46.8081520
  52.5006200  52.5912720  47.9282020  53.3776380  52.5996120  48.3116020
  52.5127040  51.8543560  47.3174370  37.4376420  55.7218270  33.5393840
  36.5340500  55.9848470  33.3645500  37.9217040  55.9929440  32.7593800
  53.9469470  56.4442260  38.8170040  54.4706950  55.9504910  38.1860210
  54.5328890  56.5792620  39.5617610  54.1259190  56.5282130  42.3389590
  53.1761900  56.4945670  42.4534580  54.3072200  57.4382240  42.1039360
  39.9803630  54.7783810  31.4488220  40.6895330  54.3567030  30.9635500
  39.2643570  54.8459040  30.8171570  39.6277790  50.8323140  30.4890870
  40.3505920  51.3732080  30.8072090  39.9002310  50.5586560  29.6132410
  53.4369440  55.7015610  34.7562450  53.9328560  55.4686480  35.5411330
  53.2385510  54.8627450  34.3400090  39.3169980  50.0829330  40.3913490
  39.9646170  49.5326710  39.9508650  39.7371820  50.3372480  41.2129300
  54.8656600  54.3376560  37.2900130  54.7555880  54.1832600  38.2282400
  55.6264190  53.8097500  37.0475540  53.2122320  50.2770690  43.7483130
  53.8494540  50.8904830  44.1142320  53.3597210  50.3131350  42.8032360
  55.7546870  52.1684480  30.5306270  56.6796180  52.0365660  30.3224560
  55.7322660  52.2477300  31.4842720  55.8285360  52.9395140  33.1562980
  55.0336860  52.8740260  33.6855890  56.0328640  53.8745780  33.1448330
  39.0701980  50.2385000  43.1338810  38.7216800  50.6948820  43.8996990
  38.7389680  49.3442130  43.2161240  46.5826800  51.4296880  46.6558230
  46.5215690  52.0218710  47.4053640  47.5227180  51.3222840  46.5108490
  49.2201360  51.0866940  46.2950520  49.8341770  51.4046230  45.6331600
  49.7650920  50.6015530  46.9146380  39.7422620  49.7661200  46.4089580
  40.2905610  49.5849250  45.6455690  39.8077930  48.9755310  46.9445890
  49.9609400  49.6499080  42.6219810  49.0869240  49.9834190  42.4192740
  49.8520150  49.1772260  43.4471680  50.8681380  51.8569950  44.0061530
  50.5394740  51.0421710  43.6263260  51.8163680  51.8139760  43.8827220
  47.7084220  50.5668920  41.5612720  46.9256010  51.0414420  41.8409480
  47.4147150  49.6623750  41.4525900  52.2605290  51.2692020  39.6061810
  52.7013380  51.2137120  38.7583410  51.9912880  52.1850030  39.6771990
  54.1243860  50.9007260  37.6170630  54.0632260  49.9568480  37.4701650
  54.9035890  51.0087350  38.1624090  39.0524630  50.8716400  34.0826440
  39.8103990  50.9845280  33.5090470  38.5901800  51.7085600  34.0369870
  45.5938440  52.9855670  37.0728750  44.7812950  52.6112560  36.7324630
  46.0980080  52.2300750  37.3749940  50.0963420  49.6498120  38.3111820
  50.6992790  50.2218330  38.7860340  49.3556410  50.2137560  38.0885720
  53.2398020  50.0519680  33.5852100  53.4348650  50.9503130  33.8519530
  52.4527890  49.8206760  34.0785050  41.4249780  51.3980450  32.6228410
  41.9542540  50.6110250  32.4936360  42.0578100  52.0771640  32.8563940
  43.6187620  51.1355590  35.6773800  42.9890360  50.4342900  35.8443930
  43.0792760  51.8959720  35.4606960  43.7443180  50.4139570  48.1126290
  43.4627450  50.9173170  47.3487110  44.1262880  49.6161320  47.7468420
  50.3458640  49.8293150  48.6906760  50.2324090  50.1487760  49.5858280
  51.1628380  50.2305660  48.3944040  49.2516790  57.8485620  19.0541500
  49.1710840  56.9340230  18.7833210  48.8381210  58.3452690  18.3481210
  47.3834830  59.6264640  20.9350770  46.6076930  59.1465080  21.2249340
  48.0347760  58.9470290  20.7606930  39.8092610  54.8986340  15.5968920
  38.9209310  55.2402310  15.4948800  40.0933800  54.6986660  14.7049750
  37.7725620  57.4991990  21.4808620  38.3441730  56.7314190  21.4812260
  37.7727160  57.7980750  20.5715230  39.0150490  52.9076350  23.2677550
  38.8353330  52.0102100  23.5480310  38.6130570  53.4548220  23.9424500
  47.8548990  55.1092210  21.1689860  48.2313810  54.2364090  21.0563530
  47.7568500  55.4450910  20.2780300  41.9854000  53.4817840  16.6307300
  42.0920750  54.3821570  16.9376060  41.0746360  53.4335810  16.3401950
  51.6373110  52.6042650  18.1018200  52.4582730  52.1139220  18.1443680
  51.6707190  53.1940310  18.8550040  39.6337160  55.4036850  21.8759890
  40.3147270  55.6675220  22.4947290  39.3185210  54.5637720  22.2097900
  43.8261730  56.4504210  20.9632480  44.3339950  56.9485180  21.6037500
  44.3574970  55.6739410  20.7871840  55.9272660  54.6209400  24.6661830
  55.2224830  55.0091110  24.1476940  56.1930580  55.3159690  25.2682760
  42.1097830  51.0902770  25.2295900  42.1116270  51.6075160  24.4241800
  41.2802140  50.6132950  25.2065830  51.8734590  54.5443030  20.8745740
  51.1690160  54.8327920  21.4548850  52.2346750  55.3543140  20.5145300
  41.7913160  52.8012730  23.2366350  42.1329970  53.6454780  22.9420220
  40.8528970  52.9496470  23.3531690  54.9421510  53.9897820  21.2654950
  53.9946420  54.0236800  21.3970380  55.2671500  54.8036770  21.6504310
  45.4741050  50.2895000  19.5610940  45.7816030  49.7341890  18.8446440
  44.5441750  50.4239460  19.3783930  47.8621810  58.3543830  16.2971060
  46.9351090  58.2881210  16.5259530  48.0146630  59.2923960  16.1826300
  47.8490890  54.6260830  13.2938220  46.9094560  54.7874790  13.3790680
  48.1674150  55.3446510  12.7474210  51.3345660  56.0948670  24.2172120
  50.9216840  56.9202380  24.4712110  50.6021610  55.5093710  24.0248480
  43.4678450  58.8808570  19.0790790  43.0635450  58.1685820  18.5836690
  43.5541570  58.5361810  19.9678830  42.1807070  55.6551780  22.8589830
  42.7321660  55.7647120  22.0843080  42.6950580  56.0289380  23.5745060
  53.6500940  50.4093750  12.1220100  53.3373600  50.5020580  13.0219170
  54.4113410  50.9874780  12.0717530  40.1683080  57.7753550  16.5797440
  40.0480680  58.5015640  15.9678710  39.8583970  57.0056460  16.1025350
  54.8602230  55.1465250  28.0994240  54.2446500  55.6544920  27.5709700
  54.5398650  54.2463580  28.0420180  42.6346740  51.1188620  19.9621110
  42.1914890  51.8998160  19.6305630  43.1931730  51.4418510  20.6692050
  46.9216550  53.9857140  25.5656430  46.4595920  54.1940160  26.3776370
  46.5194660  53.1716490  25.2627100  51.9221060  55.2066090  26.6953090
  51.0714650  54.9071840  27.0162160  51.7622850  55.4508100  25.7836910
  49.0170770  56.7067840  28.7951880  49.3424180  55.8731590  28.4554110
  49.8051100  57.2296360  28.9430210  45.7505560  50.7399320  14.8426940
  45.1259740  50.7359190  15.5680250  45.6635680  49.8730280  14.4462910
  44.6722640  51.6635950  21.8210710  44.9694970  52.5698780  21.7402730
  45.2208200  51.1754730  21.2070280  42.4260960  56.2422190  17.6902360
  42.2001880  56.0259360  18.5948980  41.6453490  56.6750650  17.3448330
  49.6558720  56.2485560  16.2893010  49.0567610  56.9721360  16.1056630
  50.2038330  56.1862340  15.5069460  44.8660170  57.1407770  28.3562630
  44.7703770  56.2002500  28.2063030  45.7092150  57.3622840  27.9610700
  48.2623590  54.8849100  18.3196290  48.6553160  55.2021300  17.5064980
  48.6240440  54.0060980  18.4340810  39.9970710  53.5521440  26.5096410
  39.6034100  54.3996650  26.7169190  39.3089110  52.9147810  26.7005050
  46.5715760  53.6356410  29.5793150  45.8814080  53.4428610  30.2139240
  47.3148060  53.9191050  30.1117450  37.2987760  51.4749900  20.5426490
  37.0100810  52.0452760  21.2551470  38.0433520  50.9954350  20.9057720
  37.4857990  55.4170020  11.7529210  37.4032660  56.3600780  11.8944200
  37.1341050  55.2744930  10.8741560  48.8478730  57.4754850  22.4147070
  48.1159850  57.9841660  22.7637170  48.4503070  56.6584830  22.1135850
  45.2856120  54.1509050  20.8199560  45.2892180  53.7099000  19.9704100
  46.1807240  54.4726380  20.9271380  41.1358500  54.0335540  19.7793770
  40.7958550  54.5110770  20.5360820  40.3735820  53.5800660  19.4194870
  45.3476270  55.1521130  13.8106320  45.4689090  55.1107610  14.7592140
  44.9624780  56.0145280  13.6553050  49.3104640  52.9288530  21.8270010
  49.3277380  53.3797180  22.6711860  49.0620220  52.0294170  22.0403450
  44.3597770  57.4622270  13.2089620  43.7914670  57.0140520  12.5825530
  45.0686770  57.8215050  12.6754770  52.7375390  50.3420710  27.6656390
  53.0621160  49.6110370  28.1914370  52.7731900  50.0234350  26.7637380
  45.5864090  58.2110830  22.5664970  45.9534220  57.7369400  23.3126310
  45.3969150  59.0852400  22.9073310  38.4504580  52.9554520  18.6958440
  38.1651500  52.5910190  19.5337060  38.3883440  52.2234980  18.0821580
  43.3763460  57.2519470  24.8849180  43.0720530  58.1311450  25.1099540
  44.3309920  57.3119260  24.9206620  48.1243170  51.8483780  15.4171810
  47.3107780  51.3496950  15.3417120  47.9305120  52.6882030  15.0008160
  50.8391560  56.2203430  13.7133970  51.7271180  56.5320660  13.5385310
  50.8096650  55.3475680  13.3214550  39.4327190  58.0922210  26.0320540
  39.0742130  58.7576060  26.6193880  39.1381750  57.2605760  26.4033160
  42.6340310  58.5506450  28.9160090  42.3340450  58.6963630  28.0187910
  43.4051550  57.9911740  28.8233480  53.1105830  57.5315270  13.1813830
  53.0269550  57.9629490  12.3310270  53.8300020  57.9913620  13.6140650
  37.9435240  58.0913470  12.6555140  38.8130090  58.3738270  12.9391060
  37.4525560  58.9049340  12.5403950  41.0081830  49.8224330  17.2485940
  40.8796460  49.8142230  18.1970860  40.1843850  50.1607420  16.8976950
  38.0075760  51.5815450  26.7092640  37.2934280  51.7812370  27.3145250
  38.4270800  50.8055020  27.0807440  49.5014540  54.0737760  24.4594090
  49.8695360  53.2532970  24.7873660  48.6412740  54.1339650  24.8749740
  52.8676570  53.0294700  15.2681650  52.2389730  53.1340370  14.5539880
  52.3728490  53.2491480  16.0575530  44.8360600  55.3080650  16.6839530
  44.1276750  55.7766990  17.1253140  45.1205080  54.6502660  17.3184720
  46.4616530  56.7277350  24.6832060  46.9601780  57.2023170  25.3483910
  46.6039480  55.8040870  24.8902090  48.8676030  52.0331310  18.1235320
  48.7443810  52.0517440  17.1744830  49.8160590  52.0810250  18.2433720
  43.0395620  53.6165730  14.0590240  43.8886150  54.0535880  13.9930430
  42.6726890  53.9285990  14.8862300  53.6683390  52.9445310  25.5260450
  53.1656990  53.6850710  25.8654260  54.4840050  53.3329310  25.2097240
  51.9605400  58.1878490  18.9721810  51.0195540  58.2028720  19.1469500
  52.2749470  57.4014450  19.4182110  40.6333800  57.3023160  13.2158660
  40.7137390  56.3550670  13.3276060  41.5253550  57.6330040  13.3219320
  38.1604600  59.1238080  28.4514830  38.6643620  58.5445360  29.0231060
  37.4212020  59.4078310  28.9891200  40.1927680  57.2667670  29.3464900
  40.2333020  56.9681540  30.2550130  41.0473180  57.6675280  29.1872420
  42.1333490  55.8459770  27.3139390  41.6029950  55.3550720  26.6862730
  42.8021560  56.2743970  26.7797320  46.4833710  58.8900830  11.7545510
  47.0039370  58.1749850  11.3886660  47.1302110  59.5286700  12.0546020
  51.5033720  57.6525390  29.0819730  52.0854490  56.8977710  28.9940210
  51.6795490  58.1832830  28.3051210  42.6205790  52.8122140  27.3936680
  42.5262660  52.1942890  26.6687550  42.0403180  53.5388430  27.1666590
  45.3867230  51.3695380  24.4264070  44.9384530  51.3919640  23.5809620
  44.7532430  50.9714400  25.0234370  48.1290680  57.9965890  26.4314350
  48.2486890  57.4007030  27.1709190  48.9884680  58.0335580  26.0115650
  50.4678580  58.5503080  25.0076860  49.9413800  59.0745700  24.4042000
  50.8109920  59.1830470  25.6386590  42.8664970  55.9396450  11.4526570
  42.6654030  55.0763810  11.8139910  42.6957020  55.8529810  10.5148170
  44.8959450  54.5387240  27.6890170  45.4859140  54.2303090  28.3767990
  44.0779690  54.0666990  27.8450070  49.7152880  54.1553050  27.9223190
  49.0268400  53.4934590  27.8573180  50.4358900  53.7091320  28.3671650
  50.3453280  50.7504680  13.9813450  50.6255570  49.9072580  14.3372870
  49.5719010  50.9827790  14.4952200  41.6647770  53.0397070  11.4404450
  41.9673670  53.0464500  10.5323600  42.4042360  52.6894930  11.9372110
  44.8832700  51.9831690  12.4260650  44.5354700  51.3055680  11.8463100
  45.0845470  51.5221200  13.2404040  38.2238340  58.5119340  18.8225020
  37.5687180  58.2430980  18.1784720  39.0616290  58.4023820  18.3727000
  51.1728780  53.3060630  13.0443510  51.5913660  53.1191610  12.2040170
  50.8664840  52.4539680  13.3546440  54.6718510  58.2184770  16.7419310
  54.2962110  57.4512700  16.3100600  53.9421630  58.6007470  17.2294240
  39.2614270  58.8971910  23.3628360  39.6287310  58.8099310  24.2424380
  38.6925090  58.1338460  23.2635220  54.0618130  57.3656290  26.3758830
  53.8304220  57.1369040  25.4756780  54.3222680  58.2855840  26.3303720
  38.8130270  55.8081000  27.2686780  37.9186320  55.7747760  27.6080490
  39.3527820  56.0067790  28.0338030  52.5006200  52.5912720  29.1538530
  53.3776380  52.5996120  29.5372530  52.5127040  51.8543560  28.5430880
  37.4376420  55.7218270  14.7650350  36.5340500  55.9848470  14.5902010
  37.9217040  55.9929440  13.9850310  53.9469470  56.4442260  20.0426550
  54.4706950  55.9504910  19.4116720  54.5328890  56.5792620  20.7874120
  54.1259190  56.5282130  23.5646100  53.1761900  56.4945670  23.6791090
  54.3072200  57.4382240  23.3295870  39.9803630  54.7783810  12.6744730
  40.6895330  54.3567030  12.1892010  39.2643570  54.8459040  12.0428080
  39.6277790  50.8323140  11.7147380  40.3505920  51.3732080  12.0328600
  39.9002310  50.5586560  10.8388920  53.4369440  55.7015610  15.9818960
  53.9328560  55.4686480  16.7667840  53.2385510  54.8627450  15.5656600
  39.3169980  50.0829330  21.6170000  39.9646170  49.5326710  21.1765160
  39.7371820  50.3372480  22.4385810  54.8656600  54.3376560  18.5156640
  54.7555880  54.1832600  19.4538910  55.6264190  53.8097500  18.2732050
  53.2122320  50.2770690  24.9739640  53.8494540  50.8904830  25.3398830
  53.3597210  50.3131350  24.0288870  55.7546870  52.1684480  11.7562780
  56.6796180  52.0365660  11.5481070  55.7322660  52.2477300  12.7099230
  55.8285360  52.9395140  14.3819490  55.0336860  52.8740260  14.9112400
  56.0328640  53.8745780  14.3704840  39.0701980  50.2385000  24.3595320
  38.7216800  50.6948820  25.1253500  38.7389680  49.3442130  24.4417750
  46.5826800  51.4296880  27.8814740  46.5215690  52.0218710  28.6310150
  47.5227180  51.3222840  27.7365000  49.2201360  51.0866940  27.5207030
  49.8341770  51.4046230  26.8588110  49.7650920  50.6015530  28.1402890
  39.7422620  49.7661200  27.6346090  40.2905610  49.5849250  26.8712200
  39.8077930  48.9755310  28.1702400  49.9609400  49.6499080  23.8476320
  49.0869240  49.9834190  23.6449250  49.8520150  49.1772260  24.6728190
  50.8681380  51.8569950  25.2318040  50.5394740  51.0421710  24.8519770
  51.8163680  51.8139760  25.1083730  47.7084220  50.5668920  22.7869230
  46.9256010  51.0414420  23.0665990  47.4147150  49.6623750  22.6782410
  52.2605290  51.2692020  20.8318320  52.7013380  51.2137120  19.9839920
  51.9912880  52.1850030  20.9028500  54.1243860  50.9007260  18.8427140
  54.0632260  49.9568480  18.6958160  54.9035890  51.0087350  19.3880600
  39.0524630  50.8716400  15.3082950  39.8103990  50.9845280  14.7346980
  38.5901800  51.7085600  15.2626380  45.5938440  52.9855670  18.2985260
  44.7812950  52.6112560  17.9581140  46.0980080  52.2300750  18.6006450
  50.0963420  49.6498120  19.5368330  50.6992790  50.2218330  20.0116850
  49.3556410  50.2137560  19.3142230  53.2398020  50.0519680  14.8108610
  53.4348650  50.9503130  15.0776040  52.4527890  49.8206760  15.3041560
  41.4249780  51.3980450  13.8484920  41.9542540  50.6110250  13.7192870
  42.0578100  52.0771640  14.0820450  43.6187620  51.1355590  16.9030310
  42.9890360  50.4342900  17.0700440  43.0792760  51.8959720  16.6863470
  43.7443180  50.4139570  29.3382800  43.4627450  50.9173170  28.5743620
  44.1262880  49.6161320  28.9724930  50.3458640  49.8293150  29.9163270
  50.2324090  50.1487760  30.8114790  51.1628380  50.2305660  29.6200550
  47.3834830  59.6264640   2.1607280  46.6076930  59.1465080   2.4505850
  48.0347760  58.9470290   1.9863440  37.7725620  57.4991990   2.7065130
  38.3441730  56.7314190   2.7068770  37.7727160  57.7980750   1.7971740
  39.0150490  52.9076350   4.4934060  38.8353330  52.0102100   4.7736820
  38.6130570  53.4548220   5.1681010  39.6337160  55.4036850   3.1016400
  40.3147270  55.6675220   3.7203800  39.3185210  54.5637720   3.4354410
  43.8261730  56.4504210   2.1888990  44.3339950  56.9485180   2.8294010
  44.3574970  55.6739410   2.0128350  55.9272660  54.6209400   5.8918340
  55.2224830  55.0091110   5.3733450  56.1930580  55.3159690   6.4939270
  42.1097830  51.0902770   6.4552410  42.1116270  51.6075160   5.6498310
  41.2802140  50.6132950   6.4322340  51.8734590  54.5443030   2.1002250
  51.1690160  54.8327920   2.6805360  52.2346750  55.3543140   1.7401810
  41.7913160  52.8012730   4.4622860  42.1329970  53.6454780   4.1676730
  40.8528970  52.9496470   4.5788200  54.9421510  53.9897820   2.4911460
  53.9946420  54.0236800   2.6226890  55.2671500  54.8036770   2.8760820
  51.3345660  56.0948670   5.4428630  50.9216840  56.9202380   5.6968620
  50.6021610  55.5093710   5.2504990  42.1807070  55.6551780   4.0846340
  42.7321660  55.7647120   3.3099590  42.6950580  56.0289380   4.8001570
  54.8602230  55.1465250   9.3250750  54.2446500  55.6544920   8.7966210
  54.5398650  54.2463580   9.2676690  46.9216550  53.9857140   6.7912940
  46.4595920  54.1940160   7.6032880  46.5194660  53.1716490   6.4883610
  51.9221060  55.2066090   7.9209600  51.0714650  54.9071840   8.2418670
  51.7622850  55.4508100   7.0093420  49.0170770  56.7067840  10.0208390
  49.3424180  55.8731590   9.6810620  49.8051100  57.2296360  10.1686720
  44.6722640  51.6635950   3.0467220  44.9694970  52.5698780   2.9659240
  45.2208200  51.1754730   2.4326790  44.8660170  57.1407770   9.5819140
  44.7703770  56.2002500   9.4319540  45.7092150  57.3622840   9.1867210
  39.9970710  53.5521440   7.7352920  39.6034100  54.3996650   7.9425700
  39.3089110  52.9147810   7.9261560  46.5715760  53.6356410  10.8049660
  45.8814080  53.4428610  11.4395750  47.3148060  53.9191050  11.3373960
  37.2987760  51.4749900   1.7683000  37.0100810  52.0452760   2.4807980
  38.0433520  50.9954350   2.1314230  48.8478730  57.4754850   3.6403580
  48.1159850  57.9841660   3.9893680  48.4503070  56.6584830   3.3392360
  49.3104640  52.9288530   3.0526520  49.3277380  53.3797180   3.8968370
  49.0620220  52.0294170   3.2659960  52.7375390  50.3420710   8.8912900
  53.0621160  49.6110370   9.4170880  52.7731900  50.0234350   7.9893890
  45.5864090  58.2110830   3.7921480  45.9534220  57.7369400   4.5382820
  45.3969150  59.0852400   4.1329820  43.3763460  57.2519470   6.1105690
  43.0720530  58.1311450   6.3356050  44.3309920  57.3119260   6.1463130
  39.4327190  58.0922210   7.2577050  39.0742130  58.7576060   7.8450390
  39.1381750  57.2605760   7.6289670  42.6340310  58.5506450  10.1416600
  42.3340450  58.6963630   9.2444420  43.4051550  57.9911740  10.0489990
  38.0075760  51.5815450   7.9349150  37.2934280  51.7812370   8.5401760
  38.4270800  50.8055020   8.3063950  49.5014540  54.0737760   5.6850600
  49.8695360  53.2532970   6.0130170  48.6412740  54.1339650   6.1006250
  46.4616530  56.7277350   5.9088570  46.9601780  57.2023170   6.5740420
  46.6039480  55.8040870   6.1158600  53.6683390  52.9445310   6.7516960
  53.1656990  53.6850710   7.0910770  54.4840050  53.3329310   6.4353750
  38.1604600  59.1238080   9.6771340  38.6643620  58.5445360  10.2487570
  37.4212020  59.4078310  10.2147710  40.1927680  57.2667670  10.5721410
  40.2333020  56.9681540  11.4806640  41.0473180  57.6675280  10.4128930
  42.1333490  55.8459770   8.5395900  41.6029950  55.3550720   7.9119240
  42.8021560  56.2743970   8.0053830  51.5033720  57.6525390  10.3076240
  52.0854490  56.8977710  10.2196720  51.6795490  58.1832830   9.5307720
  42.6205790  52.8122140   8.6193190  42.5262660  52.1942890   7.8944060
  42.0403180  53.5388430   8.3923100  45.3867230  51.3695380   5.6520580
  44.9384530  51.3919640   4.8066130  44.7532430  50.9714400   6.2490880
  48.1290680  57.9965890   7.6570860  48.2486890  57.4007030   8.3965700
  48.9884680  58.0335580   7.2372160  50.4678580  58.5503080   6.2333370
  49.9413800  59.0745700   5.6298510  50.8109920  59.1830470   6.8643100
  44.8959450  54.5387240   8.9146680  45.4859140  54.2303090   9.6024500
  44.0779690  54.0666990   9.0706580  49.7152880  54.1553050   9.1479700
  49.0268400  53.4934590   9.0829690  50.4358900  53.7091320   9.5928160
  39.2614270  58.8971910   4.5884870  39.6287310  58.8099310   5.4680890
  38.6925090  58.1338460   4.4891730  54.0618130  57.3656290   7.6015340
  53.8304220  57.1369040   6.7013290  54.3222680  58.2855840   7.5560230
  38.8130270  55.8081000   8.4943290  37.9186320  55.7747760   8.8337000
  39.3527820  56.0067790   9.2594540  52.5006200  52.5912720  10.3795040
  53.3776380  52.5996120  10.7629040  52.5127040  51.8543560   9.7687390
  54.1259190  56.5282130   4.7902610  53.1761900  56.4945670   4.9047600
  54.3072200  57.4382240   4.5552380  39.3169980  50.0829330   2.8426510
  39.9646170  49.5326710   2.4021670  39.7371820  50.3372480   3.6642320
  53.2122320  50.2770690   6.1996150  53.8494540  50.8904830   6.5655340
  53.3597210  50.3131350   5.2545380  39.0701980  50.2385000   5.5851830
  38.7216800  50.6948820   6.3510010  38.7389680  49.3442130   5.6674260
  46.5826800  51.4296880   9.1071250  46.5215690  52.0218710   9.8566660
  47.5227180  51.3222840   8.9621510  49.2201360  51.0866940   8.7463540
  49.8341770  51.4046230   8.0844620  49.7650920  50.6015530   9.3659400
  39.7422620  49.7661200   8.8602600  40.2905610  49.5849250   8.0968710
  39.8077930  48.9755310   9.3958910  49.9609400  49.6499080   5.0732830
  49.0869240  49.9834190   4.8705760  49.8520150  49.1772260   5.8984700
  50.8681380  51.8569950   6.4574550  50.5394740  51.0421710   6.0776280
  51.8163680  51.8139760   6.3340240  47.7084220  50.5668920   4.0125740
  46.9256010  51.0414420   4.2922500  47.4147150  49.6623750   3.9038920
  43.7443180  50.4139570  10.5639310  43.4627450  50.9173170   9.8000130
  44.1262880  49.6161320  10.1981440  50.3458640  49.8293150  11.1419780
  50.2324090  50.1487760  12.0371300  51.1628380  50.2305660  10.8457060
  49.2516790  39.0742130  56.6028480  49.1710840  38.1596740  56.3320190
  48.8381210  39.5709200  55.8968190  51.4042260  45.2581340  57.2636880
  50.9423790  44.4868580  57.5924050  52.2167810  45.2847410  57.7689330
  39.8092610  36.1242850  53.1455900  38.9209310  36.4658820  53.0435780
  40.0933800  35.9243170  52.2536730  47.6305570  47.5439350  56.8840870
  47.0117010  47.9996850  56.3135310  48.4857350  47.6990810  56.4830570
  41.9854000  34.7074350  54.1794280  42.0920750  35.6078080  54.4863040
  41.0746360  34.6592320  53.8888930  51.6373110  33.8299160  55.6505180
  52.4582730  33.3395730  55.6930660  51.6707190  34.4196820  56.4037020
  48.4968920  42.4278590  54.2772780  47.8786190  42.8928040  53.7135500
  49.0092170  43.1206070  54.6942290  37.8652120  43.1135120  51.6512410
  37.4880100  43.6022220  50.9197310  38.1225190  43.7860400  52.2818940
  45.4741050  31.5151510  57.1097920  45.7816030  30.9598400  56.3933420
  44.5441750  31.6495970  56.9270910  52.3201530  43.9535020  54.4895550
  52.2097860  43.0109350  54.6144970  52.3169780  44.3150660  55.3758310
  47.8621810  39.5800340  53.8458040  46.9351090  39.5137720  54.0746510
  48.0146630  40.5180470  53.7313280  47.8490890  35.8517340  50.8425200
  46.9094560  36.0131300  50.9277660  48.1674150  36.5703020  50.2961190
  51.8919100  41.1420640  54.3493290  51.2731520  40.8040190  53.7019590
  51.8743550  40.4980400  55.0572480  43.4678450  40.1065080  56.6277770
  43.0635450  39.3942330  56.1323670  43.5541570  39.7618320  57.5165810
  50.0683800  40.3807450  51.3566040  50.5077080  39.5429880  51.2103860
  50.7812220  41.0136850  51.4430180  48.1779180  45.3203520  55.3247280
  48.6175090  46.0627850  54.9102670  48.1166070  45.5630090  56.2486240
  53.6500940  31.6350260  49.6707080  53.3373600  31.7277090  50.5706150
  54.4113410  32.2131290  49.6204510  40.1683080  39.0010060  54.1284420
  40.0480680  39.7272150  53.5165690  39.8583970  38.2312970  53.6512330
  39.0516080  43.8725390  56.3459240  38.6444160  44.0139980  55.4912840
  39.9429090  43.5885550  56.1430450  50.8449360  48.3072640  52.6810290
  50.6850500  48.0175580  53.5792120  50.6796070  47.5312770  52.1455520
  43.3237740  48.0871170  54.4581910  43.1480220  47.1706710  54.2449710
  42.4693480  48.4458460  54.6979710  50.5475490  45.8160200  51.2408290
  49.8540650  45.8137490  50.5810570  51.2898350  45.3919520  50.8102460
  50.1125420  47.4422910  55.3156780  50.5682370  46.6612290  55.6295400
  50.4517940  48.1529730  55.8597960  42.6346740  32.3445130  57.5108090
  42.1914890  33.1254670  57.1792610  43.1931730  32.6675020  58.2179030
  45.7505560  31.9655830  52.3913920  45.1259740  31.9615700  53.1167230
  45.6635680  31.0986790  51.9949890  42.4260960  37.4678700  55.2389340
  42.2001880  37.2515870  56.1435960  41.6453490  37.9007160  54.8935310
  49.6558720  37.4742070  53.8379990  49.0567610  38.1977870  53.6543610
  50.2038330  37.4118850  53.0556440  48.2623590  36.1105610  55.8683270
  48.6553160  36.4277810  55.0551960  48.6240440  35.2317490  55.9827790
  37.4857990  36.6426530  49.3016190  37.4032660  37.5857290  49.4431180
  37.1341050  36.5001440  48.4228540  45.2856120  35.3765560  58.3686540
  45.2892180  34.9355510  57.5191080  46.1807240  35.6982890  58.4758360
  41.1358500  35.2592050  57.3280750  40.7958550  35.7367280  58.0847800
  40.3735820  34.8057170  56.9681850  45.3476270  36.3777640  51.3593300
  45.4689090  36.3364120  52.3079120  44.9624780  37.2401790  51.2040030
  44.3597770  38.6878780  50.7576600  43.7914670  38.2397030  50.1312510
  45.0686770  39.0471560  50.2241750  38.4504580  34.1811030  56.2445420
  38.1651500  33.8166700  57.0824040  38.3883440  33.4491490  55.6308560
  41.9045250  42.6836970  53.0303010  41.1307510  42.1434590  52.8701730
  42.6339880  42.1643580  52.6920770  48.1243170  33.0740290  52.9658790
  47.3107780  32.5753460  52.8904100  47.9305120  33.9138540  52.5495140
  50.8391560  37.4459940  51.2620950  51.7271180  37.7577170  51.0872290
  50.8096650  36.5732190  50.8701530  41.9482650  42.3517350  56.6681820
  42.4661320  41.5485610  56.6138710  41.4966670  42.2896490  57.5098650
  46.8352150  43.6183630  51.9409120  47.1767850  44.3625860  51.4452440
  46.0064860  43.9314750  52.3033950  53.1105830  38.7571780  50.7300810
  53.0269550  39.1886000  49.8797250  53.8300020  39.2170130  51.1627630
  54.1393080  45.6114040  53.4582940  53.4969240  44.9569660  53.7326660
  53.7523740  46.0169130  52.6823610  49.7179560  42.9399470  57.3054630
  50.0703380  42.3427600  56.6456000  48.8341890  42.6143700  57.4762880
  45.8042840  43.6997160  54.7125040  46.4913970  44.2466370  55.0932630
  45.0175260  44.2437890  54.7474650  37.9435240  39.3169980  50.2042120
  38.8130090  39.5994780  50.4878040  37.4525560  40.1305850  50.0890930
  45.1070050  40.7043190  54.3250400  45.5632830  41.5148440  54.5510590
  44.7558260  40.3866330  55.1568890  41.0081830  31.0480840  54.7972920
  40.8796460  31.0398740  55.7457840  40.1843850  31.3863930  54.4463930
  52.5290460  44.5030500  49.9959290  52.3028040  43.7860940  50.5883930
  52.1386660  44.2542940  49.1581040  38.3106490  48.5297360  50.7703750
  38.6704130  49.1286700  50.1161020  38.1698830  49.0757250  51.5438780
  52.1106710  42.4202440  51.6573450  51.8228410  42.8815130  52.4451330
  52.9058880  41.9600210  51.9257670  44.3275110  45.9128560  51.5877420
  44.3185210  46.6458250  50.9721930  43.4073470  45.6660140  51.6804380
  39.9281750  41.1343450  52.3324180  39.3209700  41.8742350  52.3419480
  40.4031100  41.2242810  51.5062380  52.8676570  34.2551210  52.8168630
  52.2389730  34.3596880  52.1026860  52.3728490  34.4747990  53.6062510
  47.3134710  45.9756800  50.2502610  47.4146690  45.7720790  49.3204590
  46.4136450  45.7215080  50.4550390  44.8360600  36.5337160  54.2326510
  44.1276750  37.0023500  54.6740120  45.1205080  35.8759170  54.8671700
  48.8676030  33.2587820  55.6722300  48.7443810  33.2773950  54.7231810
  49.8160590  33.3066760  55.7920700  45.9552820  48.4943120  54.9450280
  46.2094320  48.4564510  54.0229650  45.0065300  48.3676450  54.9378530
  43.0395620  34.8422240  51.6077220  43.8886150  35.2792390  51.5417410
  42.6726890  35.1542500  52.4349280  51.9605400  39.4135000  56.5208790
  51.0195540  39.4285230  56.6956480  52.2749470  38.6270960  56.9669090
  41.9387040  41.0954600  50.0812750  42.7050310  40.9835960  50.6438180
  42.0161730  40.3992570  49.4289520  40.6333800  38.5279670  50.7645640
  40.7137390  37.5807180  50.8763040  41.5253550  38.8586550  50.8706300
  41.4348510  48.6775060  57.8680180  42.1710990  48.1290520  58.1388750
  41.8189430  49.5431070  57.7286170  38.3193990  44.7448630  53.7421690
  37.3933770  44.9869770  53.7327100  38.7850420  45.5722890  53.6206440
  44.5450820  47.8505370  49.6905750  45.3379430  48.1394200  49.2387540
  44.0255170  47.4197540  49.0118230  53.5980990  47.0775500  51.1142490
  53.3122500  46.6640640  50.2996670  53.4000540  48.0063210  50.9943010
  45.0628220  43.0708780  49.5548100  44.9578860  42.4561130  50.2809480
  44.8952440  42.5474670  48.7711110  48.3030950  42.1328810  50.1590090
  47.7541050  42.5798110  50.8032830  48.9250210  41.6278060  50.6827760
  43.9706070  41.0919730  52.0555390  44.3922490  40.9259600  52.8986780
  44.0956910  40.2819960  51.5610530  46.4833710  40.1157340  49.3032490
  47.0039370  39.4006360  48.9373640  47.1302110  40.7543210  49.6033000
  42.8664970  37.1652960  49.0013550  42.6654030  36.3020320  49.3626890
  42.6957020  37.0786320  48.0635150  50.3453280  31.9761190  51.5300430
  50.6255570  31.1329090  51.8859850  49.5719010  32.2084300  52.0439180
  41.6647770  34.2653580  48.9891430  41.9673670  34.2721010  48.0810580
  42.4042360  33.9151440  49.4859090  44.8832700  33.2088200  49.9747630
  44.5354700  32.5312190  49.3950080  45.0845470  32.7477710  50.7891020
  47.0481740  48.1968950  51.5934230  47.9432530  48.5353920  51.6152990
  47.0799370  47.4748360  50.9658510  40.6877900  43.5696000  49.8221230
  41.1252770  44.1125670  50.4778810  41.1725630  42.7442950  49.8317570
  37.9023700  46.3585030  57.2741490  38.2326710  45.4906090  57.0420130
  38.3314700  46.5643550  58.1046450  42.4985620  44.6894040  54.9343460
  42.1981160  44.5659010  55.8347370  42.3923110  43.8302630  54.5259190
  55.2677540  44.4690440  49.6370140  54.4370500  44.5367090  50.1077370
  55.4449370  45.3594560  49.3337000  54.7234000  41.2137920  52.1404340
  55.4852910  41.7834570  52.2464030  54.7388370  40.6465120  52.9112650
  38.2238340  39.7375850  56.3712000  37.5687180  39.4687490  55.7271700
  39.0616290  39.6280330  55.9213980  55.7293970  42.0688020  56.9846270
  56.1002800  41.2855340  56.5782240  56.3695900  42.7577120  56.8063570
  54.7753170  41.5072290  49.2976860  55.0502010  42.4151170  49.1696080
  54.5863910  41.4434820  50.2338850  51.1728780  34.5317140  50.5930490
  51.5913660  34.3448120  49.7527150  50.8664840  33.6796190  50.9033420
  54.6718510  39.4441280  54.2906290  54.2962110  38.6769210  53.8587580
  53.9421630  39.8263980  54.7781220  37.4376420  36.9474780  52.3137330
  36.5340500  37.2104980  52.1388990  37.9217040  37.2185950  51.5337290
  53.9469470  37.6698770  57.5913530  54.4706950  37.1761420  56.9603700
  54.5328890  37.8049130  58.3361100  39.9803630  36.0040320  50.2231710
  40.6895330  35.5823540  49.7378990  39.2643570  36.0715550  49.5915060
  39.6277790  32.0579650  49.2634360  40.3505920  32.5988590  49.5815580
  39.9002310  31.7843070  48.3875900  53.4369440  36.9272120  53.5305940
  53.9328560  36.6942990  54.3154820  53.2385510  36.0883960  53.1143580
  54.8656600  35.5633070  56.0643620  54.7555880  35.4089110  57.0025890
  55.6264190  35.0354010  55.8219030  55.7546870  33.3940990  49.3049760
  56.6796180  33.2622170  49.0968050  55.7322660  33.4733810  50.2586210
  55.8285360  34.1651650  51.9306470  55.0336860  34.0996770  52.4599380
  56.0328640  35.1002290  51.9191820  52.7703780  48.2043200  55.9244860
  53.3662850  47.8827770  55.2479280  53.0281930  47.7315020  56.7158130
  52.2605290  32.4948530  58.3805300  52.7013380  32.4393630  57.5326900
  51.9912880  33.4106540  58.4515480  54.1243860  32.1263770  56.3914120
  54.0632260  31.1824990  56.2445140  54.9035890  32.2343860  56.9367580
  38.4296610  48.2656130  55.3538070  38.2618650  47.6326810  56.0519960
  37.5631120  48.4715530  55.0032260  39.0524630  32.0972910  52.8569930
  39.8103990  32.2101790  52.2833960  38.5901800  32.9342110  52.8113360
  45.5938440  34.2112180  55.8472240  44.7812950  33.8369070  55.5068120
  46.0980080  33.4557260  56.1493430  50.0963420  30.8754630  57.0855310
  50.6992790  31.4474840  57.5603830  49.3556410  31.4394070  56.8629210
  53.2398020  31.2776190  52.3595590  53.4348650  32.1759640  52.6263020
  52.4527890  31.0463270  52.8528540  40.0359310  46.9589360  52.7988210
  39.5106930  47.3397390  52.0950170  39.9603890  47.5840130  53.5197920
  41.4249780  32.6236960  51.3971900  41.9542540  31.8366760  51.2679850
  42.0578100  33.3028150  51.6307430  43.6187620  32.3612100  54.4517290
  42.9890360  31.6599410  54.6187420  43.0792760  33.1216230  54.2350450
  54.7924630  48.5176900  54.1202150  54.9676820  47.8314640  53.4763070
  54.0946200  49.0423950  53.7278820  42.6352280  48.9071740  51.6737460
  43.3671100  48.6231020  51.1261350  42.8945950  48.6685020  52.5636840
  41.7967070  45.0236470  51.6783790  41.1675950  45.4921570  52.2269620
  41.9114900  44.1785690  52.1129980  49.2516790  39.0742130  37.8284990
  49.1710840  38.1596740  37.5576700  48.8381210  39.5709200  37.1224700
  47.3834830  40.8521150  39.7094260  46.6076930  40.3721590  39.9992830
  48.0347760  40.1726800  39.5350420  41.4000660  41.1640960  40.5870020
  40.5685540  40.9089670  40.9866530  42.0081640  41.2351730  41.3227940
  51.4042260  45.2581340  38.4893390  50.9423790  44.4868580  38.8180560
  52.2167810  45.2847410  38.9945840  41.3801920  45.1981050  40.7828040
  41.6829960  44.3078790  40.6038260  42.1245510  45.7551270  40.5550290
  37.7725620  38.7248500  40.2552110  38.3441730  37.9570700  40.2555750
  37.7727160  39.0237260  39.3458720  47.6305570  47.5439350  38.1097380
  47.0117010  47.9996850  37.5391820  48.4857350  47.6990810  37.7087080
  46.8243820  43.5278340  39.7164420  46.7552100  42.5868280  39.5553550
  47.5863680  43.6179750  40.2886990  39.0150490  34.1332860  42.0421040
  38.8353330  33.2358610  42.3223800  38.6130570  34.6804730  42.7167990
  47.8548990  36.3348720  39.9433350  48.2313810  35.4620600  39.8307020
  47.7568500  36.6707420  39.0523790  51.6373110  33.8299160  36.8761690
  52.4582730  33.3395730  36.9187170  51.6707190  34.4196820  37.6293530
  39.6337160  36.6293360  40.6503380  40.3147270  36.8931730  41.2690780
  39.3185210  35.7894230  40.9841390  43.8261730  37.6760720  39.7375970
  44.3339950  38.1741690  40.3780990  44.3574970  36.8995920  39.5615330
  55.9272660  35.8465910  43.4405320  55.2224830  36.2347620  42.9220430
  56.1930580  36.5416200  44.0426250  42.1097830  32.3159280  44.0039390
  42.1116270  32.8331670  43.1985290  41.2802140  31.8389460  43.9809320
  48.4968920  42.4278590  35.5029290  47.8786190  42.8928040  34.9392010
  49.0092170  43.1206070  35.9198800  43.3600680  41.9554460  42.1812890
  43.0270060  42.5823380  42.8233960  43.5367360  42.4816340  41.4014560
  51.8734590  35.7699540  39.6489230  51.1690160  36.0584430  40.2292340
  52.2346750  36.5799650  39.2888790  41.7913160  34.0269240  42.0109840
  42.1329970  34.8711290  41.7163710  40.8528970  34.1752980  42.1275180
  42.5719780  43.9235260  43.9962070  43.1893780  44.5986340  43.7146520
  41.7112900  44.3323240  43.9049570  53.4897370  45.3874670  41.9116710
  52.8060890  46.0573780  41.9033380  54.0291660  45.5855320  41.1461570
  54.9421510  35.2154330  40.0398440  53.9946420  35.2493310  40.1713870
  55.2671500  36.0293280  40.4247800  51.0256110  47.2318800  40.6261890
  51.0383270  46.8281090  39.7584150  50.4731330  48.0066090  40.5223320
  52.3201530  43.9535020  35.7152060  52.2097860  43.0109350  35.8401480
  52.3169780  44.3150660  36.6014820  50.4241550  42.1348640  41.9544500
  50.8410340  41.9208750  41.1197960  51.1481370  42.3921430  42.5253120
  47.8621810  39.5800340  35.0714550  46.9351090  39.5137720  35.3003020
  48.0146630  40.5180470  34.9569790  47.8490890  35.8517340  32.0681710
  46.9094560  36.0131300  32.1534170  48.1674150  36.5703020  31.5217700
  54.3703650  40.5335860  42.0460740  53.5422280  40.6028950  41.5710870
  54.9654130  41.1190170  41.5776570  51.8919100  41.1420640  35.5749800
  51.2731520  40.8040190  34.9276100  51.8743550  40.4980400  36.2828990
  51.3345660  37.3205180  42.9915610  50.9216840  38.1458890  43.2455600
  50.6021610  36.7350220  42.7991970  43.4678450  40.1065080  37.8534280
  43.0635450  39.3942330  37.3580180  43.5541570  39.7618320  38.7422320
  43.9360150  43.7932640  40.0173490  43.6388440  43.1878110  39.3381270
  44.8859970  43.8309950  39.9062850  42.1807070  36.8808290  41.6333320
  42.7321660  36.9903630  40.8586570  42.6950580  37.2545890  42.3488550
  52.0245760  47.3664510  43.6796590  51.5476320  48.1736700  43.4869200
  51.3407550  46.7142840  43.8322800  43.0278580  43.5314330  46.6681290
  42.1307110  43.7554300  46.9154690  43.0531450  43.6549270  45.7192690
  50.0683800  40.3807450  32.5822550  50.5077080  39.5429880  32.4360370
  50.7812220  41.0136850  32.6686690  41.8549800  40.4027650  45.2438660
  41.7157570  41.2750450  45.6126060  40.9731160  40.0600460  45.0986600
  48.1779180  45.3203520  36.5503790  48.6175090  46.0627850  36.1359180
  48.1166070  45.5630090  37.4742750  43.6530150  46.3449350  47.4523810
  43.6245580  46.7492300  46.5852240  43.4895120  45.4159710  47.2895410
  55.6044970  47.1276450  48.7487980  56.0804690  47.6059340  49.4277060
  56.2252130  47.0593940  48.0233480  37.8068450  42.1725200  41.1609570
  37.8848870  42.3073970  40.2165290  38.4210130  41.4641090  41.3537690
  39.0516080  43.8725390  37.5715750  38.6444160  44.0139980  36.7169350
  39.9429090  43.5885550  37.3686960  55.0078220  44.3189300  45.9087990
  55.1341280  44.0801180  44.9905170  55.0499600  43.4873840  46.3810070
  48.8694960  48.0217300  44.4782800  49.3839630  47.9325310  45.2805230
  48.0264040  48.3677000  44.7710710  50.8449360  48.3072640  33.9066800
  50.6850500  48.0175580  34.8048630  50.6796070  47.5312770  33.3712030
  43.3237740  48.0871170  35.6838420  43.1480220  47.1706710  35.4706220
  42.4693480  48.4458460  35.9236220  50.5475490  45.8160200  32.4664800
  49.8540650  45.8137490  31.8067080  51.2898350  45.3919520  32.0358970
  50.1125420  47.4422910  36.5413290  50.5682370  46.6612290  36.8551910
  50.4517940  48.1529730  37.0854470  54.8602230  36.3721760  46.8737730
  54.2446500  36.8801430  46.3453190  54.5398650  35.4720090  46.8163670
  37.8627970  43.2139370  43.7004030  38.0259010  42.7444730  42.8823400
  38.3280420  42.7062930  44.3652870  42.6346740  32.3445130  38.7364600
  42.1914890  33.1254670  38.4049120  43.1931730  32.6675020  39.4435540
  46.9216550  35.2113650  44.3399920  46.4595920  35.4196670  45.1519860
  46.5194660  34.3973000  44.0370590  51.9221060  36.4322600  45.4696580
  51.0714650  36.1328350  45.7905650  51.7622850  36.6764610  44.5580400
  49.0170770  37.9324350  47.5695370  49.3424180  37.0988100  47.2297600
  49.8051100  38.4552870  47.7173700  44.6722640  32.8892460  40.5954200
  44.9694970  33.7955290  40.5146220  45.2208200  32.4011240  39.9813770
  49.6558720  37.4742070  35.0636500  49.0567610  38.1977870  34.8800120
  50.2038330  37.4118850  34.2812950  44.8660170  38.3664280  47.1306120
  44.7703770  37.4259010  46.9806520  45.7092150  38.5879350  46.7354190
  39.9970710  34.7777950  45.2839900  39.6034100  35.6253160  45.4912680
  39.3089110  34.1404320  45.4748540  46.5715760  34.8612920  48.3536640
  45.8814080  34.6685120  48.9882730  47.3148060  35.1447560  48.8860940
  37.2987760  32.7006410  39.3169980  37.0100810  33.2709270  40.0294960
  38.0433520  32.2210860  39.6801210  48.8478730  38.7011360  41.1890560
  48.1159850  39.2098170  41.5380660  48.4503070  37.8841340  40.8879340
  41.1358500  35.2592050  38.5537260  40.7958550  35.7367280  39.3104310
  40.3735820  34.8057170  38.1938360  49.3104640  34.1545040  40.6013500
  49.3277380  34.6053690  41.4455350  49.0620220  33.2550680  40.8146940
  44.3597770  38.6878780  31.9833110  43.7914670  38.2397030  31.3569020
  45.0686770  39.0471560  31.4498260  52.7375390  31.5677220  46.4399880
  53.0621160  30.8366880  46.9657860  52.7731900  31.2490860  45.5380870
  39.4366950  42.5890800  45.8599840  39.0521740  41.9484470  46.4582800
  39.7479140  43.2926920  46.4294570  45.5864090  39.4367340  41.3408460
  45.9534220  38.9625910  42.0869800  45.3969150  40.3108910  41.6816800
  38.4504580  34.1811030  37.4701930  38.1651500  33.8166700  38.3080550
  38.3883440  33.4491490  36.8565070  43.3763460  38.4775980  43.6592670
  43.0720530  39.3567960  43.8843030  44.3309920  38.5375770  43.6950110
  41.9045250  42.6836970  34.2559520  41.1307510  42.1434590  34.0958240
  42.6339880  42.1643580  33.9177280  52.6633230  41.6802330  40.0485910
  53.3832350  42.1757620  39.6582020  52.4615050  41.0020220  39.4039780
  48.0452030  41.7511390  45.9354910  47.9789340  40.8307060  45.6812500
  47.4157170  41.8486830  46.6499550  50.8391560  37.4459940  32.4877460
  51.7271180  37.7577170  32.3128800  50.8096650  36.5732190  32.0958040
  41.9482650  42.3517350  37.8938330  42.4661320  41.5485610  37.8395220
  41.4966670  42.2896490  38.7355160  46.8352150  43.6183630  33.1665630
  47.1767850  44.3625860  32.6708950  46.0064860  43.9314750  33.5290460
  39.4327190  39.3178720  44.8064030  39.0742130  39.9832570  45.3937370
  39.1381750  38.4862270  45.1776650  42.6340310  39.7762960  47.6903580
  42.3340450  39.9220140  46.7931400  43.4051550  39.2168250  47.5976970
  47.9768760  44.5731960  45.6858710  47.9913300  43.6412920  45.4677620
  47.2693860  44.6591720  46.3248480  53.1105830  38.7571780  31.9557320
  53.0269550  39.1886000  31.1053760  53.8300020  39.2170130  32.3884140
  54.1879970  41.2139300  45.0327290  53.4628160  41.8068080  44.8356680
  54.7155430  41.2062840  44.2340660  54.1393080  45.6114040  34.6839450
  53.4969240  44.9569660  34.9583170  53.7523740  46.0169130  33.9080120
  49.7179560  42.9399470  38.5311140  50.0703380  42.3427600  37.8712510
  48.8341890  42.6143700  38.7019390  45.8042840  43.6997160  35.9381550
  46.4913970  44.2466370  36.3189140  45.0175260  44.2437890  35.9731160
  45.1070050  40.7043190  35.5506910  45.5632830  41.5148440  35.7767100
  44.7558260  40.3866330  36.3825400  47.4102660  46.2149530  42.7799210
  48.0544880  46.4208910  43.4572630  47.7732100  45.4537930  42.3270060
  48.6834740  44.2181880  41.4976660  49.3256970  43.5175040  41.6108830
  49.2084090  44.9980320  41.3173550  52.5290460  44.5030500  31.2215800
  52.3028040  43.7860940  31.8140440  52.1386660  44.2542940  30.3837550
  50.4572360  45.0176780  44.7012720  50.7928600  45.6043470  45.3790640
  49.5372700  44.8869490  44.9310510  38.3106490  48.5297360  31.9960260
  38.6704130  49.1286700  31.3417530  38.1698830  49.0757250  32.7695290
  38.0075760  32.8071960  45.4836130  37.2934280  33.0068880  46.0888740
  38.4270800  32.0311530  45.8550930  52.1106710  42.4202440  32.8829960
  51.8228410  42.8815130  33.6707840  52.9058880  41.9600210  33.1514180
  38.2948350  46.7952220  46.4702660  38.4039470  45.8546960  46.3298050
  37.6428910  47.0606970  45.8216390  46.2860940  45.0668110  47.8700780
  45.9657810  44.3477350  48.4146470  45.6119300  45.7423180  47.9436840
  44.3275110  45.9128560  32.8133930  44.3185210  46.6458250  32.1978440
  43.4073470  45.6660140  32.9060890  49.5014540  35.2994270  43.2337580
  49.8695360  34.4789480  43.5617150  48.6412740  35.3596160  43.6493230
  52.8676570  34.2551210  34.0425140  52.2389730  34.3596880  33.3283370
  52.3728490  34.4747990  34.8319020  47.3134710  45.9756800  31.4759120
  47.4146690  45.7720790  30.5461100  46.4136450  45.7215080  31.6806900
  46.4616530  37.9533860  43.4575550  46.9601780  38.4279680  44.1227400
  46.6039480  37.0297380  43.6645580  45.9552820  48.4943120  36.1706790
  46.2094320  48.4564510  35.2486160  45.0065300  48.3676450  36.1635040
  53.6683390  34.1701820  44.3003940  53.1656990  34.9107220  44.6397750
  54.4840050  34.5585820  43.9840730  51.9605400  39.4135000  37.7465300
  51.0195540  39.4285230  37.9212990  52.2749470  38.6270960  38.1925600
  41.9387040  41.0954600  31.3069260  42.7050310  40.9835960  31.8694690
  42.0161730  40.3992570  30.6546030  53.9630980  46.5843850  39.4219560
  54.0878400  47.4075020  39.8943370  54.8296540  46.3734580  39.0743710
  41.4348510  48.6775060  39.0936690  42.1710990  48.1290520  39.3645260
  41.8189430  49.5431070  38.9542680  38.3193990  44.7448630  34.9678200
  37.3933770  44.9869770  34.9583610  38.7850420  45.5722890  34.8462950
  40.4406790  47.8621130  48.2822270  41.2419520  48.1833180  48.6957670
  39.9258610  47.5016710  49.0042180  44.5450820  47.8505370  30.9162260
  45.3379430  48.1394200  30.4644050  44.0255170  47.4197540  30.2374740
  49.2771420  43.9701000  48.2297680  48.6709580  43.9932600  47.4893430
  48.9725530  43.2384040  48.7664930  50.7071790  47.6981290  46.8407090
  51.6593540  47.6139310  46.7907330  50.5600010  48.3623000  47.5140880
  53.5980990  47.0775500  32.3399000  53.3122500  46.6640640  31.5253180
  53.4000540  48.0063210  32.2199520  38.1604600  40.3494590  47.2258320
  38.6643620  39.7701870  47.7974550  37.4212020  40.6334820  47.7634690
  45.0628220  43.0708780  30.7804610  44.9578860  42.4561130  31.5065990
  44.8952440  42.5474670  29.9967620  45.2142540  41.7565580  46.7593840
  44.4488210  42.3250580  46.6748510  45.3958500  41.4641790  45.8662070
  48.3030950  42.1328810  31.3846600  47.7541050  42.5798110  32.0289340
  48.9250210  41.6278060  31.9084270  52.3565890  43.4870910  47.3168860
  53.0975360  43.8246670  46.8136320  51.5938570  43.6562970  46.7638630
  40.1927680  38.4924180  48.1208390  40.2333020  38.1938050  49.0293620
  41.0473180  38.8931790  47.9615910  43.9706070  41.0919730  33.2811900
  44.3922490  40.9259600  34.1243290  44.0956910  40.2819960  32.7867040
  42.1333490  37.0716280  46.0882880  41.6029950  36.5807230  45.4606220
  42.8021560  37.5000480  45.5540810  46.4833710  40.1157340  30.5289000
  47.0039370  39.4006360  30.1630150  47.1302110  40.7543210  30.8289510
  51.0311550  41.5385740  45.8524070  51.4452570  41.6930820  46.7014490
  50.0962550  41.6640960  46.0149850  51.5033720  38.8781900  47.8563220
  52.0854490  38.1234220  47.7683700  51.6795490  39.4089340  47.0794700
  42.6205790  34.0378650  46.1680170  42.5262660  33.4199400  45.4431040
  42.0403180  34.7644940  45.9410080  45.3867230  32.5951890  43.2007560
  44.9384530  32.6176150  42.3553110  44.7532430  32.1970910  43.7977860
  45.7926780  41.4906220  43.8220000  46.2114890  42.3338950  43.6496240
  44.8735410  41.6278260  43.5926780  48.1290680  39.2222400  45.2057840
  48.2486890  38.6263540  45.9452680  48.9884680  39.2592090  44.7859140
  50.4678580  39.7759590  43.7820350  49.9413800  40.3002210  43.1785490
  50.8109920  40.4086980  44.4130080  42.8664970  37.1652960  30.2270060
  42.6654030  36.3020320  30.5883400  42.6957020  37.0786320  29.2891660
  43.6434200  47.7959230  44.9377730  43.1055290  48.5205290  44.6186430
  43.8968160  47.3189570  44.1475070  44.8959450  35.7643750  46.4633660
  45.4859140  35.4559600  47.1511480  44.0779690  35.2923500  46.6193560
  49.7152880  35.3809560  46.6966680  49.0268400  34.7191100  46.6316670
  50.4358900  34.9347830  47.1415140  46.4996410  49.0310440  45.1964380
  46.4255110  49.9345580  45.5036750  45.5975250  48.7122340  45.1686450
  47.0481740  48.1968950  32.8190740  47.9432530  48.5353920  32.8409500
  47.0799370  47.4748360  32.1915020  40.6877900  43.5696000  31.0477740
  41.1252770  44.1125670  31.7035320  41.1725630  42.7442950  31.0574080
  37.9023700  46.3585030  38.4998000  38.2326710  45.4906090  38.2676640
  38.3314700  46.5643550  39.3302960  42.4985620  44.6894040  36.1599970
  42.1981160  44.5659010  37.0603880  42.3923110  43.8302630  35.7515700
  38.3913910  47.2255620  41.2379630  37.9544900  47.4056420  42.0703780
  38.9591590  47.9830240  41.0961350  54.0276090  46.7272620  45.5256940
  53.4278080  46.7865180  44.7820860  54.1569990  45.7877600  45.6553790
  55.2677540  44.4690440  30.8626650  54.4370500  44.5367090  31.3333880
  55.4449370  45.3594560  30.5593510  54.7234000  41.2137920  33.3660850
  55.4852910  41.7834570  33.4720540  54.7388370  40.6465120  34.1369160
  55.7293970  42.0688020  38.2102780  56.1002800  41.2855340  37.8038750
  56.3695900  42.7577120  38.0320080  52.7127730  43.4524600  43.6233100
  51.8987570  43.8821760  43.8858890  53.1201930  44.0643010  43.0102150
  54.7753170  41.5072290  30.5233370  55.0502010  42.4151170  30.3952590
  54.5863910  41.4434820  31.4595360  54.6718510  39.4441280  35.5162800
  54.2962110  38.6769210  35.0844090  53.9421630  39.8263980  36.0037730
  39.2614270  40.1228420  42.1371850  39.6287310  40.0355820  43.0167870
  38.6925090  39.3594970  42.0378710  54.0618130  38.5912800  45.1502320
  53.8304220  38.3625550  44.2500270  54.3222680  39.5112350  45.1047210
  38.8130270  37.0337510  46.0430270  37.9186320  37.0004270  46.3823980
  39.3527820  37.2324300  46.8081520  52.5006200  33.8169230  47.9282020
  53.3776380  33.8252630  48.3116020  52.5127040  33.0800070  47.3174370
  53.9469470  37.6698770  38.8170040  54.4706950  37.1761420  38.1860210
  54.5328890  37.8049130  39.5617610  54.1259190  37.7538640  42.3389590
  53.1761900  37.7202180  42.4534580  54.3072200  38.6638750  42.1039360
  53.4369440  36.9272120  34.7562450  53.9328560  36.6942990  35.5411330
  53.2385510  36.0883960  34.3400090  39.3169980  31.3085840  40.3913490
  39.9646170  30.7583220  39.9508650  39.7371820  31.5628990  41.2129300
  54.8656600  35.5633070  37.2900130  54.7555880  35.4089110  38.2282400
  55.6264190  35.0354010  37.0475540  53.2122320  31.5027200  43.7483130
  53.8494540  32.1161340  44.1142320  53.3597210  31.5387860  42.8032360
  55.8285360  34.1651650  33.1562980  55.0336860  34.0996770  33.6855890
  56.0328640  35.1002290  33.1448330  52.7703780  48.2043200  37.1501370
  53.3662850  47.8827770  36.4735790  53.0281930  47.7315020  37.9414640
  39.0701980  31.4641510  43.1338810  38.7216800  31.9205330  43.8996990
  38.7389680  30.5698640  43.2161240  40.6766350  44.6361110  47.2992000
  40.6335980  44.2654020  48.1806460  40.8077360  45.5738680  47.4393820
  44.3772380  46.1920700  42.9001720  44.1363740  46.4595260  42.0132240
  45.3175020  46.3626430  42.9552580  46.5826800  32.6553390  46.6558230
  46.5215690  33.2475220  47.4053640  47.5227180  32.5479350  46.5108490
  49.2201360  32.3123450  46.2950520  49.8341770  32.6302740  45.6331600
  49.7650920  31.8272040  46.9146380  55.6376540  48.2115080  43.7012360
  55.1434820  48.6083950  42.9839490  55.0289830  47.5864290  44.0949640
  39.7422620  30.9917710  46.4089580  40.2905610  30.8105760  45.6455690
  39.8077930  30.2011820  46.9445890  40.5154380  47.5823360  44.4189780
  39.9214700  47.4508060  45.1579820  40.5078220  46.7461500  43.9531880
  49.9609400  30.8755590  42.6219810  49.0869240  31.2090700  42.4192740
  49.8520150  30.4028770  43.4471680  50.8681380  33.0826460  44.0061530
  50.5394740  32.2678220  43.6263260  51.8163680  33.0396270  43.8827220
  53.3215990  48.8538500  40.9799100  52.8618960  49.6054310  40.6057120
  52.6928450  48.1344970  40.9213900  40.1466610  44.9481740  43.3697820
  39.4200670  44.3287030  43.3023770  40.2075760  45.3422350  42.4995900
  43.7511710  47.1626740  40.1547230  44.2676730  46.5514100  39.6295490
  44.4009090  47.6655520  40.6458240  46.4907210  48.0535230  40.9816210
  46.7785020  47.7989530  40.1049220  47.0030430  47.5012590  41.5721780
  47.7084220  31.7925430  41.5612720  46.9256010  32.2670930  41.8409480
  47.4147150  30.8880260  41.4525900  52.2605290  32.4948530  39.6061810
  52.7013380  32.4393630  38.7583410  51.9912880  33.4106540  39.6771990
  54.1243860  32.1263770  37.6170630  54.0632260  31.1824990  37.4701650
  54.9035890  32.2343860  38.1624090  38.4296610  48.2656130  36.5794580
  38.2618650  47.6326810  37.2776470  37.5631120  48.4715530  36.2288770
  40.0359310  46.9589360  34.0244720  39.5106930  47.3397390  33.3206680
  39.9603890  47.5840130  34.7454430  46.5579570  48.9751330  48.3484410
  47.4846880  48.7395600  48.3920370  46.5430000  49.8023330  47.8670440
  54.7924630  48.5176900  35.3458660  54.9676820  47.8314640  34.7019580
  54.0946200  49.0423950  34.9535330  43.7443180  31.6396080  48.1126290
  43.4627450  32.1429680  47.3487110  44.1262880  30.8417830  47.7468420
  42.6352280  48.9071740  32.8993970  43.3671100  48.6231020  32.3517860
  42.8945950  48.6685020  33.7893350  41.7967070  45.0236470  32.9040300
  41.1675950  45.4921570  33.4526130  41.9114900  44.1785690  33.3386490
  50.3458640  31.0549660  48.6906760  50.2324090  31.3744270  49.5858280
  51.1628380  31.4562170  48.3944040  53.1257130  48.2021190  48.1725450
  53.9182450  47.7070420  47.9651410  53.4190280  48.8811330  48.7801060
  49.2516790  39.0742130  19.0541500  49.1710840  38.1596740  18.7833210
  48.8381210  39.5709200  18.3481210  47.3834830  40.8521150  20.9350770
  46.6076930  40.3721590  21.2249340  48.0347760  40.1726800  20.7606930
  51.4042260  45.2581340  19.7149900  50.9423790  44.4868580  20.0437070
  52.2167810  45.2847410  20.2202350  41.3801920  45.1981050  22.0084550
  41.6829960  44.3078790  21.8294770  42.1245510  45.7551270  21.7806800
  47.6305570  47.5439350  19.3353890  47.0117010  47.9996850  18.7648330
  48.4857350  47.6990810  18.9343590  46.8243820  43.5278340  20.9420930
  46.7552100  42.5868280  20.7810060  47.5863680  43.6179750  21.5143500
  55.9272660  35.8465910  24.6661830  55.2224830  36.2347620  24.1476940
  56.1930580  36.5416200  25.2682760  48.4968920  42.4278590  16.7285800
  47.8786190  42.8928040  16.1648520  49.0092170  43.1206070  17.1455310
  43.3600680  41.9554460  23.4069400  43.0270060  42.5823380  24.0490470
  43.5367360  42.4816340  22.6271070  42.5719780  43.9235260  25.2218580
  43.1893780  44.5986340  24.9403030  41.7112900  44.3323240  25.1306080
  37.8652120  43.1135120  14.1025430  37.4880100  43.6022220  13.3710330
  38.1225190  43.7860400  14.7331960  53.4897370  45.3874670  23.1373220
  52.8060890  46.0573780  23.1289890  54.0291660  45.5855320  22.3718080
  54.9421510  35.2154330  21.2654950  53.9946420  35.2493310  21.3970380
  55.2671500  36.0293280  21.6504310  51.0256110  47.2318800  21.8518400
  51.0383270  46.8281090  20.9840660  50.4731330  48.0066090  21.7479830
  52.3201530  43.9535020  16.9408570  52.2097860  43.0109350  17.0657990
  52.3169780  44.3150660  17.8271330  50.4241550  42.1348640  23.1801010
  50.8410340  41.9208750  22.3454470  51.1481370  42.3921430  23.7509630
  47.8621810  39.5800340  16.2971060  46.9351090  39.5137720  16.5259530
  48.0146630  40.5180470  16.1826300  47.8490890  35.8517340  13.2938220
  46.9094560  36.0131300  13.3790680  48.1674150  36.5703020  12.7474210
  54.3703650  40.5335860  23.2717250  53.5422280  40.6028950  22.7967380
  54.9654130  41.1190170  22.8033080  51.8919100  41.1420640  16.8006310
  51.2731520  40.8040190  16.1532610  51.8743550  40.4980400  17.5085500
  51.3345660  37.3205180  24.2172120  50.9216840  38.1458890  24.4712110
  50.6021610  36.7350220  24.0248480  43.9360150  43.7932640  21.2430000
  43.6388440  43.1878110  20.5637780  44.8859970  43.8309950  21.1319360
  52.0245760  47.3664510  24.9053100  51.5476320  48.1736700  24.7125710
  51.3407550  46.7142840  25.0579310  43.0278580  43.5314330  27.8937800
  42.1307110  43.7554300  28.1411200  43.0531450  43.6549270  26.9449200
  50.0683800  40.3807450  13.8079060  50.5077080  39.5429880  13.6616880
  50.7812220  41.0136850  13.8943200  41.8549800  40.4027650  26.4695170
  41.7157570  41.2750450  26.8382570  40.9731160  40.0600460  26.3243110
  48.1779180  45.3203520  17.7760300  48.6175090  46.0627850  17.3615690
  48.1166070  45.5630090  18.6999260  43.6530150  46.3449350  28.6780320
  43.6245580  46.7492300  27.8108750  43.4895120  45.4159710  28.5151920
  53.6500940  31.6350260  12.1220100  53.3373600  31.7277090  13.0219170
  54.4113410  32.2131290  12.0717530  55.6044970  47.1276450  29.9744490
  56.0804690  47.6059340  30.6533570  56.2252130  47.0593940  29.2489990
  55.0078220  44.3189300  27.1344500  55.1341280  44.0801180  26.2161680
  55.0499600  43.4873840  27.6066580  48.8694960  48.0217300  25.7039310
  49.3839630  47.9325310  26.5061740  48.0264040  48.3677000  25.9967220
  50.8449360  48.3072640  15.1323310  50.6850500  48.0175580  16.0305140
  50.6796070  47.5312770  14.5968540  43.3237740  48.0871170  16.9094930
  43.1480220  47.1706710  16.6962730  42.4693480  48.4458460  17.1492730
  50.5475490  45.8160200  13.6921310  49.8540650  45.8137490  13.0323590
  51.2898350  45.3919520  13.2615480  50.1125420  47.4422910  17.7669800
  50.5682370  46.6612290  18.0808420  50.4517940  48.1529730  18.3110980
  54.8602230  36.3721760  28.0994240  54.2446500  36.8801430  27.5709700
  54.5398650  35.4720090  28.0420180  37.8627970  43.2139370  24.9260540
  38.0259010  42.7444730  24.1079910  38.3280420  42.7062930  25.5909380
  45.7505560  31.9655830  14.8426940  45.1259740  31.9615700  15.5680250
  45.6635680  31.0986790  14.4462910  49.6558720  37.4742070  16.2893010
  49.0567610  38.1977870  16.1056630  50.2038330  37.4118850  15.5069460
  44.8660170  38.3664280  28.3562630  44.7703770  37.4259010  28.2063030
  45.7092150  38.5879350  27.9610700  37.4857990  36.6426530  11.7529210
  37.4032660  37.5857290  11.8944200  37.1341050  36.5001440  10.8741560
  45.3476270  36.3777640  13.8106320  45.4689090  36.3364120  14.7592140
  44.9624780  37.2401790  13.6553050  44.3597770  38.6878780  13.2089620
  43.7914670  38.2397030  12.5825530  45.0686770  39.0471560  12.6754770
  39.4366950  42.5890800  27.0856350  39.0521740  41.9484470  27.6839310
  39.7479140  43.2926920  27.6551080  41.9045250  42.6836970  15.4816030
  41.1307510  42.1434590  15.3214750  42.6339880  42.1643580  15.1433790
  52.6633230  41.6802330  21.2742420  53.3832350  42.1757620  20.8838530
  52.4615050  41.0020220  20.6296290  48.1243170  33.0740290  15.4171810
  47.3107780  32.5753460  15.3417120  47.9305120  33.9138540  15.0008160
  48.0452030  41.7511390  27.1611420  47.9789340  40.8307060  26.9069010
  47.4157170  41.8486830  27.8756060  50.8391560  37.4459940  13.7133970
  51.7271180  37.7577170  13.5385310  50.8096650  36.5732190  13.3214550
  46.8352150  43.6183630  14.3922140  47.1767850  44.3625860  13.8965460
  46.0064860  43.9314750  14.7546970  42.6340310  39.7762960  28.9160090
  42.3340450  39.9220140  28.0187910  43.4051550  39.2168250  28.8233480
  47.9768760  44.5731960  26.9115220  47.9913300  43.6412920  26.6934130
  47.2693860  44.6591720  27.5504990  53.1105830  38.7571780  13.1813830
  53.0269550  39.1886000  12.3310270  53.8300020  39.2170130  13.6140650
  54.1879970  41.2139300  26.2583800  53.4628160  41.8068080  26.0613190
  54.7155430  41.2062840  25.4597170  54.1393080  45.6114040  15.9095960
  53.4969240  44.9569660  16.1839680  53.7523740  46.0169130  15.1336630
  49.7179560  42.9399470  19.7567650  50.0703380  42.3427600  19.0969020
  48.8341890  42.6143700  19.9275900  45.8042840  43.6997160  17.1638060
  46.4913970  44.2466370  17.5445650  45.0175260  44.2437890  17.1987670
  37.9435240  39.3169980  12.6555140  38.8130090  39.5994780  12.9391060
  37.4525560  40.1305850  12.5403950  45.1070050  40.7043190  16.7763420
  45.5632830  41.5148440  17.0023610  44.7558260  40.3866330  17.6081910
  47.4102660  46.2149530  24.0055720  48.0544880  46.4208910  24.6829140
  47.7732100  45.4537930  23.5526570  41.0081830  31.0480840  17.2485940
  40.8796460  31.0398740  18.1970860  40.1843850  31.3863930  16.8976950
  48.6834740  44.2181880  22.7233170  49.3256970  43.5175040  22.8365340
  49.2084090  44.9980320  22.5430060  52.5290460  44.5030500  12.4472310
  52.3028040  43.7860940  13.0396950  52.1386660  44.2542940  11.6094060
  50.4572360  45.0176780  25.9269230  50.7928600  45.6043470  26.6047150
  49.5372700  44.8869490  26.1567020  38.3106490  48.5297360  13.2216770
  38.6704130  49.1286700  12.5674040  38.1698830  49.0757250  13.9951800
  52.1106710  42.4202440  14.1086470  51.8228410  42.8815130  14.8964350
  52.9058880  41.9600210  14.3770690  38.2948350  46.7952220  27.6959170
  38.4039470  45.8546960  27.5554560  37.6428910  47.0606970  27.0472900
  46.2860940  45.0668110  29.0957290  45.9657810  44.3477350  29.6402980
  45.6119300  45.7423180  29.1693350  44.3275110  45.9128560  14.0390440
  44.3185210  46.6458250  13.4234950  43.4073470  45.6660140  14.1317400
  39.9281750  41.1343450  14.7837200  39.3209700  41.8742350  14.7932500
  40.4031100  41.2242810  13.9575400  52.8676570  34.2551210  15.2681650
  52.2389730  34.3596880  14.5539880  52.3728490  34.4747990  16.0575530
  47.3134710  45.9756800  12.7015630  47.4146690  45.7720790  11.7717610
  46.4136450  45.7215080  12.9063410  45.9552820  48.4943120  17.3963300
  46.2094320  48.4564510  16.4742670  45.0065300  48.3676450  17.3891550
  43.0395620  34.8422240  14.0590240  43.8886150  35.2792390  13.9930430
  42.6726890  35.1542500  14.8862300  51.9605400  39.4135000  18.9721810
  51.0195540  39.4285230  19.1469500  52.2749470  38.6270960  19.4182110
  41.9387040  41.0954600  12.5325770  42.7050310  40.9835960  13.0951200
  42.0161730  40.3992570  11.8802540  40.6333800  38.5279670  13.2158660
  40.7137390  37.5807180  13.3276060  41.5253550  38.8586550  13.3219320
  53.9630980  46.5843850  20.6476070  54.0878400  47.4075020  21.1199880
  54.8296540  46.3734580  20.3000220  41.4348510  48.6775060  20.3193200
  42.1710990  48.1290520  20.5901770  41.8189430  49.5431070  20.1799190
  38.3193990  44.7448630  16.1934710  37.3933770  44.9869770  16.1840120
  38.7850420  45.5722890  16.0719460  40.4406790  47.8621130  29.5078780
  41.2419520  48.1833180  29.9214180  39.9258610  47.5016710  30.2298690
  44.5450820  47.8505370  12.1418770  45.3379430  48.1394200  11.6900560
  44.0255170  47.4197540  11.4631250  49.2771420  43.9701000  29.4554190
  48.6709580  43.9932600  28.7149940  48.9725530  43.2384040  29.9921440
  50.7071790  47.6981290  28.0663600  51.6593540  47.6139310  28.0163840
  50.5600010  48.3623000  28.7397390  53.5980990  47.0775500  13.5655510
  53.3122500  46.6640640  12.7509690  53.4000540  48.0063210  13.4456030
  45.0628220  43.0708780  12.0061120  44.9578860  42.4561130  12.7322500
  44.8952440  42.5474670  11.2224130  45.2142540  41.7565580  27.9850350
  44.4488210  42.3250580  27.9005020  45.3958500  41.4641790  27.0918580
  48.3030950  42.1328810  12.6103110  47.7541050  42.5798110  13.2545850
  48.9250210  41.6278060  13.1340780  52.3565890  43.4870910  28.5425370
  53.0975360  43.8246670  28.0392830  51.5938570  43.6562970  27.9895140
  43.9706070  41.0919730  14.5068410  44.3922490  40.9259600  15.3499800
  44.0956910  40.2819960  14.0123550  46.4833710  40.1157340  11.7545510
  47.0039370  39.4006360  11.3886660  47.1302110  40.7543210  12.0546020
  51.0311550  41.5385740  27.0780580  51.4452570  41.6930820  27.9271000
  50.0962550  41.6640960  27.2406360  51.5033720  38.8781900  29.0819730
  52.0854490  38.1234220  28.9940210  51.6795490  39.4089340  28.3051210
  45.7926780  41.4906220  25.0476510  46.2114890  42.3338950  24.8752750
  44.8735410  41.6278260  24.8183290  48.1290680  39.2222400  26.4314350
  48.2486890  38.6263540  27.1709190  48.9884680  39.2592090  26.0115650
  50.4678580  39.7759590  25.0076860  49.9413800  40.3002210  24.4042000
  50.8109920  40.4086980  25.6386590  42.8664970  37.1652960  11.4526570
  42.6654030  36.3020320  11.8139910  42.6957020  37.0786320  10.5148170
  43.6434200  47.7959230  26.1634240  43.1055290  48.5205290  25.8442940
  43.8968160  47.3189570  25.3731580  50.3453280  31.9761190  13.9813450
  50.6255570  31.1329090  14.3372870  49.5719010  32.2084300  14.4952200
  41.6647770  34.2653580  11.4404450  41.9673670  34.2721010  10.5323600
  42.4042360  33.9151440  11.9372110  46.4996410  49.0310440  26.4220890
  46.4255110  49.9345580  26.7293260  45.5975250  48.7122340  26.3942960
  44.8832700  33.2088200  12.4260650  44.5354700  32.5312190  11.8463100
  45.0845470  32.7477710  13.2404040  47.0481740  48.1968950  14.0447250
  47.9432530  48.5353920  14.0666010  47.0799370  47.4748360  13.4171530
  40.6877900  43.5696000  12.2734250  41.1252770  44.1125670  12.9291830
  41.1725630  42.7442950  12.2830590  37.9023700  46.3585030  19.7254510
  38.2326710  45.4906090  19.4933150  38.3314700  46.5643550  20.5559470
  42.4985620  44.6894040  17.3856480  42.1981160  44.5659010  18.2860390
  42.3923110  43.8302630  16.9772210  38.3913910  47.2255620  22.4636140
  37.9544900  47.4056420  23.2960290  38.9591590  47.9830240  22.3217860
  54.0276090  46.7272620  26.7513450  53.4278080  46.7865180  26.0077370
  54.1569990  45.7877600  26.8810300  55.2677540  44.4690440  12.0883160
  54.4370500  44.5367090  12.5590390  55.4449370  45.3594560  11.7850020
  54.7234000  41.2137920  14.5917360  55.4852910  41.7834570  14.6977050
  54.7388370  40.6465120  15.3625670  55.7293970  42.0688020  19.4359290
  56.1002800  41.2855340  19.0295260  56.3695900  42.7577120  19.2576590
  52.7127730  43.4524600  24.8489610  51.8987570  43.8821760  25.1115400
  53.1201930  44.0643010  24.2358660  54.7753170  41.5072290  11.7489880
  55.0502010  42.4151170  11.6209100  54.5863910  41.4434820  12.6851870
  51.1728780  34.5317140  13.0443510  51.5913660  34.3448120  12.2040170
  50.8664840  33.6796190  13.3546440  54.6718510  39.4441280  16.7419310
  54.2962110  38.6769210  16.3100600  53.9421630  39.8263980  17.2294240
  54.0618130  38.5912800  26.3758830  53.8304220  38.3625550  25.4756780
  54.3222680  39.5112350  26.3303720  37.4376420  36.9474780  14.7650350
  36.5340500  37.2104980  14.5902010  37.9217040  37.2185950  13.9850310
  53.9469470  37.6698770  20.0426550  54.4706950  37.1761420  19.4116720
  54.5328890  37.8049130  20.7874120  54.1259190  37.7538640  23.5646100
  53.1761900  37.7202180  23.6791090  54.3072200  38.6638750  23.3295870
  39.9803630  36.0040320  12.6744730  40.6895330  35.5823540  12.1892010
  39.2643570  36.0715550  12.0428080  39.6277790  32.0579650  11.7147380
  40.3505920  32.5988590  12.0328600  39.9002310  31.7843070  10.8388920
  53.4369440  36.9272120  15.9818960  53.9328560  36.6942990  16.7667840
  53.2385510  36.0883960  15.5656600  54.8656600  35.5633070  18.5156640
  54.7555880  35.4089110  19.4538910  55.6264190  35.0354010  18.2732050
  55.7546870  33.3940990  11.7562780  56.6796180  33.2622170  11.5481070
  55.7322660  33.4733810  12.7099230  55.8285360  34.1651650  14.3819490
  55.0336860  34.0996770  14.9112400  56.0328640  35.1002290  14.3704840
  52.7703780  48.2043200  18.3757880  53.3662850  47.8827770  17.6992300
  53.0281930  47.7315020  19.1671150  40.6766350  44.6361110  28.5248510
  40.6335980  44.2654020  29.4062970  40.8077360  45.5738680  28.6650330
  44.3772380  46.1920700  24.1258230  44.1363740  46.4595260  23.2388750
  45.3175020  46.3626430  24.1809090  55.6376540  48.2115080  24.9268870
  55.1434820  48.6083950  24.2096000  55.0289830  47.5864290  25.3206150
  40.5154380  47.5823360  25.6446290  39.9214700  47.4508060  26.3836330
  40.5078220  46.7461500  25.1788390  53.3215990  48.8538500  22.2055610
  52.8618960  49.6054310  21.8313630  52.6928450  48.1344970  22.1470410
  40.1466610  44.9481740  24.5954330  39.4200670  44.3287030  24.5280280
  40.2075760  45.3422350  23.7252410  43.7511710  47.1626740  21.3803740
  44.2676730  46.5514100  20.8552000  44.4009090  47.6655520  21.8714750
  46.4907210  48.0535230  22.2072720  46.7785020  47.7989530  21.3305730
  47.0030430  47.5012590  22.7978290  38.4296610  48.2656130  17.8051090
  38.2618650  47.6326810  18.5032980  37.5631120  48.4715530  17.4545280
  39.0524630  32.0972910  15.3082950  39.8103990  32.2101790  14.7346980
  38.5901800  32.9342110  15.2626380  53.2398020  31.2776190  14.8108610
  53.4348650  32.1759640  15.0776040  52.4527890  31.0463270  15.3041560
  40.0359310  46.9589360  15.2501230  39.5106930  47.3397390  14.5463190
  39.9603890  47.5840130  15.9710940  41.4249780  32.6236960  13.8484920
  41.9542540  31.8366760  13.7192870  42.0578100  33.3028150  14.0820450
  43.6187620  32.3612100  16.9030310  42.9890360  31.6599410  17.0700440
  43.0792760  33.1216230  16.6863470  46.5579570  48.9751330  29.5740920
  47.4846880  48.7395600  29.6176880  46.5430000  49.8023330  29.0926950
  54.7924630  48.5176900  16.5715170  54.9676820  47.8314640  15.9276090
  54.0946200  49.0423950  16.1791840  42.6352280  48.9071740  14.1250480
  43.3671100  48.6231020  13.5774370  42.8945950  48.6685020  15.0149860
  41.7967070  45.0236470  14.1296810  41.1675950  45.4921570  14.6782640
  41.9114900  44.1785690  14.5643000  53.1257130  48.2021190  29.3981960
  53.9182450  47.7070420  29.1907920  53.4190280  48.8811330  30.0057570
  47.3834830  40.8521150   2.1607280  46.6076930  40.3721590   2.4505850
  48.0347760  40.1726800   1.9863440  41.4000660  41.1640960   3.0383040
  40.5685540  40.9089670   3.4379550  42.0081640  41.2351730   3.7740960
  41.3801920  45.1981050   3.2341060  41.6829960  44.3078790   3.0551280
  42.1245510  45.7551270   3.0063310  37.7725620  38.7248500   2.7065130
  38.3441730  37.9570700   2.7068770  37.7727160  39.0237260   1.7971740
  46.8243820  43.5278340   2.1677440  46.7552100  42.5868280   2.0066570
  47.5863680  43.6179750   2.7400010  39.0150490  34.1332860   4.4934060
  38.8353330  33.2358610   4.7736820  38.6130570  34.6804730   5.1681010
  39.6337160  36.6293360   3.1016400  40.3147270  36.8931730   3.7203800
  39.3185210  35.7894230   3.4354410  43.8261730  37.6760720   2.1888990
  44.3339950  38.1741690   2.8294010  44.3574970  36.8995920   2.0128350
  55.9272660  35.8465910   5.8918340  55.2224830  36.2347620   5.3733450
  56.1930580  36.5416200   6.4939270  42.1097830  32.3159280   6.4552410
  42.1116270  32.8331670   5.6498310  41.2802140  31.8389460   6.4322340
  43.3600680  41.9554460   4.6325910  43.0270060  42.5823380   5.2746980
  43.5367360  42.4816340   3.8527580  51.8734590  35.7699540   2.1002250
  51.1690160  36.0584430   2.6805360  52.2346750  36.5799650   1.7401810
  41.7913160  34.0269240   4.4622860  42.1329970  34.8711290   4.1676730
  40.8528970  34.1752980   4.5788200  42.5719780  43.9235260   6.4475090
  43.1893780  44.5986340   6.1659540  41.7112900  44.3323240   6.3562590
  53.4897370  45.3874670   4.3629730  52.8060890  46.0573780   4.3546400
  54.0291660  45.5855320   3.5974590  54.9421510  35.2154330   2.4911460
  53.9946420  35.2493310   2.6226890  55.2671500  36.0293280   2.8760820
  51.0256110  47.2318800   3.0774910  51.0383270  46.8281090   2.2097170
  50.4731330  48.0066090   2.9736340  50.4241550  42.1348640   4.4057520
  50.8410340  41.9208750   3.5710980  51.1481370  42.3921430   4.9766140
  54.3703650  40.5335860   4.4973760  53.5422280  40.6028950   4.0223890
  54.9654130  41.1190170   4.0289590  51.3345660  37.3205180   5.4428630
  50.9216840  38.1458890   5.6968620  50.6021610  36.7350220   5.2504990
  43.9360150  43.7932640   2.4686510  43.6388440  43.1878110   1.7894290
  44.8859970  43.8309950   2.3575870  42.1807070  36.8808290   4.0846340
  42.7321660  36.9903630   3.3099590  42.6950580  37.2545890   4.8001570
  52.0245760  47.3664510   6.1309610  51.5476320  48.1736700   5.9382220
  51.3407550  46.7142840   6.2835820  43.0278580  43.5314330   9.1194310
  42.1307110  43.7554300   9.3667710  43.0531450  43.6549270   8.1705710
  41.8549800  40.4027650   7.6951680  41.7157570  41.2750450   8.0639080
  40.9731160  40.0600460   7.5499620  43.6530150  46.3449350   9.9036830
  43.6245580  46.7492300   9.0365260  43.4895120  45.4159710   9.7408430
  55.6044970  47.1276450  11.2001000  56.0804690  47.6059340  11.8790080
  56.2252130  47.0593940  10.4746500  37.8068450  42.1725200   3.6122590
  37.8848870  42.3073970   2.6678310  38.4210130  41.4641090   3.8050710
  55.0078220  44.3189300   8.3601010  55.1341280  44.0801180   7.4418190
  55.0499600  43.4873840   8.8323090  48.8694960  48.0217300   6.9295820
  49.3839630  47.9325310   7.7318250  48.0264040  48.3677000   7.2223730
  54.8602230  36.3721760   9.3250750  54.2446500  36.8801430   8.7966210
  54.5398650  35.4720090   9.2676690  37.8627970  43.2139370   6.1517050
  38.0259010  42.7444730   5.3336420  38.3280420  42.7062930   6.8165890
  46.9216550  35.2113650   6.7912940  46.4595920  35.4196670   7.6032880
  46.5194660  34.3973000   6.4883610  51.9221060  36.4322600   7.9209600
  51.0714650  36.1328350   8.2418670  51.7622850  36.6764610   7.0093420
  49.0170770  37.9324350  10.0208390  49.3424180  37.0988100   9.6810620
  49.8051100  38.4552870  10.1686720  44.6722640  32.8892460   3.0467220
  44.9694970  33.7955290   2.9659240  45.2208200  32.4011240   2.4326790
  44.8660170  38.3664280   9.5819140  44.7703770  37.4259010   9.4319540
  45.7092150  38.5879350   9.1867210  39.9970710  34.7777950   7.7352920
  39.6034100  35.6253160   7.9425700  39.3089110  34.1404320   7.9261560
  46.5715760  34.8612920  10.8049660  45.8814080  34.6685120  11.4395750
  47.3148060  35.1447560  11.3373960  37.2987760  32.7006410   1.7683000
  37.0100810  33.2709270   2.4807980  38.0433520  32.2210860   2.1314230
  48.8478730  38.7011360   3.6403580  48.1159850  39.2098170   3.9893680
  48.4503070  37.8841340   3.3392360  49.3104640  34.1545040   3.0526520
  49.3277380  34.6053690   3.8968370  49.0620220  33.2550680   3.2659960
  52.7375390  31.5677220   8.8912900  53.0621160  30.8366880   9.4170880
  52.7731900  31.2490860   7.9893890  39.4366950  42.5890800   8.3112860
  39.0521740  41.9484470   8.9095820  39.7479140  43.2926920   8.8807590
  45.5864090  39.4367340   3.7921480  45.9534220  38.9625910   4.5382820
  45.3969150  40.3108910   4.1329820  43.3763460  38.4775980   6.1105690
  43.0720530  39.3567960   6.3356050  44.3309920  38.5375770   6.1463130
  52.6633230  41.6802330   2.4998930  53.3832350  42.1757620   2.1095040
  52.4615050  41.0020220   1.8552800  48.0452030  41.7511390   8.3867930
  47.9789340  40.8307060   8.1325520  47.4157170  41.8486830   9.1012570
  39.4327190  39.3178720   7.2577050  39.0742130  39.9832570   7.8450390
  39.1381750  38.4862270   7.6289670  42.6340310  39.7762960  10.1416600
  42.3340450  39.9220140   9.2444420  43.4051550  39.2168250  10.0489990
  47.9768760  44.5731960   8.1371730  47.9913300  43.6412920   7.9190640
  47.2693860  44.6591720   8.7761500  54.1879970  41.2139300   7.4840310
  53.4628160  41.8068080   7.2869700  54.7155430  41.2062840   6.6853680
  47.4102660  46.2149530   5.2312230  48.0544880  46.4208910   5.9085650
  47.7732100  45.4537930   4.7783080  48.6834740  44.2181880   3.9489680
  49.3256970  43.5175040   4.0621850  49.2084090  44.9980320   3.7686570
  50.4572360  45.0176780   7.1525740  50.7928600  45.6043470   7.8303660
  49.5372700  44.8869490   7.3823530  38.0075760  32.8071960   7.9349150
  37.2934280  33.0068880   8.5401760  38.4270800  32.0311530   8.3063950
  38.2948350  46.7952220   8.9215680  38.4039470  45.8546960   8.7811070
  37.6428910  47.0606970   8.2729410  46.2860940  45.0668110  10.3213800
  45.9657810  44.3477350  10.8659490  45.6119300  45.7423180  10.3949860
  49.5014540  35.2994270   5.6850600  49.8695360  34.4789480   6.0130170
  48.6412740  35.3596160   6.1006250  46.4616530  37.9533860   5.9088570
  46.9601780  38.4279680   6.5740420  46.6039480  37.0297380   6.1158600
  53.6683390  34.1701820   6.7516960  53.1656990  34.9107220   7.0910770
  54.4840050  34.5585820   6.4353750  40.4406790  47.8621130  10.7335290
  41.2419520  48.1833180  11.1470690  39.9258610  47.5016710  11.4555200
  49.2771420  43.9701000  10.6810700  48.6709580  43.9932600   9.9406450
  48.9725530  43.2384040  11.2177950  50.7071790  47.6981290   9.2920110
  51.6593540  47.6139310   9.2420350  50.5600010  48.3623000   9.9653900
  38.1604600  40.3494590   9.6771340  38.6643620  39.7701870  10.2487570
  37.4212020  40.6334820  10.2147710  45.2142540  41.7565580   9.2106860
  44.4488210  42.3250580   9.1261530  45.3958500  41.4641790   8.3175090
  52.3565890  43.4870910   9.7681880  53.0975360  43.8246670   9.2649340
  51.5938570  43.6562970   9.2151650  40.1927680  38.4924180  10.5721410
  40.2333020  38.1938050  11.4806640  41.0473180  38.8931790  10.4128930
  42.1333490  37.0716280   8.5395900  41.6029950  36.5807230   7.9119240
  42.8021560  37.5000480   8.0053830  51.0311550  41.5385740   8.3037090
  51.4452570  41.6930820   9.1527510  50.0962550  41.6640960   8.4662870
  51.5033720  38.8781900  10.3076240  52.0854490  38.1234220  10.2196720
  51.6795490  39.4089340   9.5307720  42.6205790  34.0378650   8.6193190
  42.5262660  33.4199400   7.8944060  42.0403180  34.7644940   8.3923100
  45.3867230  32.5951890   5.6520580  44.9384530  32.6176150   4.8066130
  44.7532430  32.1970910   6.2490880  45.7926780  41.4906220   6.2733020
  46.2114890  42.3338950   6.1009260  44.8735410  41.6278260   6.0439800
  48.1290680  39.2222400   7.6570860  48.2486890  38.6263540   8.3965700
  48.9884680  39.2592090   7.2372160  50.4678580  39.7759590   6.2333370
  49.9413800  40.3002210   5.6298510  50.8109920  40.4086980   6.8643100
  43.6434200  47.7959230   7.3890750  43.1055290  48.5205290   7.0699450
  43.8968160  47.3189570   6.5988090  44.8959450  35.7643750   8.9146680
  45.4859140  35.4559600   9.6024500  44.0779690  35.2923500   9.0706580
  49.7152880  35.3809560   9.1479700  49.0268400  34.7191100   9.0829690
  50.4358900  34.9347830   9.5928160  46.4996410  49.0310440   7.6477400
  46.4255110  49.9345580   7.9549770  45.5975250  48.7122340   7.6199470
  38.3913910  47.2255620   3.6892650  37.9544900  47.4056420   4.5216800
  38.9591590  47.9830240   3.5474370  54.0276090  46.7272620   7.9769960
  53.4278080  46.7865180   7.2333880  54.1569990  45.7877600   8.1066810
  52.7127730  43.4524600   6.0746120  51.8987570  43.8821760   6.3371910
  53.1201930  44.0643010   5.4615170  39.2614270  40.1228420   4.5884870
  39.6287310  40.0355820   5.4680890  38.6925090  39.3594970   4.4891730
  54.0618130  38.5912800   7.6015340  53.8304220  38.3625550   6.7013290
  54.3222680  39.5112350   7.5560230  38.8130270  37.0337510   8.4943290
  37.9186320  37.0004270   8.8337000  39.3527820  37.2324300   9.2594540
  52.5006200  33.8169230  10.3795040  53.3776380  33.8252630  10.7629040
  52.5127040  33.0800070   9.7687390  54.1259190  37.7538640   4.7902610
  53.1761900  37.7202180   4.9047600  54.3072200  38.6638750   4.5552380
  39.3169980  31.3085840   2.8426510  39.9646170  30.7583220   2.4021670
  39.7371820  31.5628990   3.6642320  53.2122320  31.5027200   6.1996150
  53.8494540  32.1161340   6.5655340  53.3597210  31.5387860   5.2545380
  39.0701980  31.4641510   5.5851830  38.7216800  31.9205330   6.3510010
  38.7389680  30.5698640   5.6674260  40.6766350  44.6361110   9.7505020
  40.6335980  44.2654020  10.6319480  40.8077360  45.5738680   9.8906840
  44.3772380  46.1920700   5.3514740  44.1363740  46.4595260   4.4645260
  45.3175020  46.3626430   5.4065600  46.5826800  32.6553390   9.1071250
  46.5215690  33.2475220   9.8566660  47.5227180  32.5479350   8.9621510
  49.2201360  32.3123450   8.7463540  49.8341770  32.6302740   8.0844620
  49.7650920  31.8272040   9.3659400  55.6376540  48.2115080   6.1525380
  55.1434820  48.6083950   5.4352510  55.0289830  47.5864290   6.5462660
  39.7422620  30.9917710   8.8602600  40.2905610  30.8105760   8.0968710
  39.8077930  30.2011820   9.3958910  40.5154380  47.5823360   6.8702800
  39.9214700  47.4508060   7.6092840  40.5078220  46.7461500   6.4044900
  49.9609400  30.8755590   5.0732830  49.0869240  31.2090700   4.8705760
  49.8520150  30.4028770   5.8984700  50.8681380  33.0826460   6.4574550
  50.5394740  32.2678220   6.0776280  51.8163680  33.0396270   6.3340240
  53.3215990  48.8538500   3.4312120  52.8618960  49.6054310   3.0570140
  52.6928450  48.1344970   3.3726920  40.1466610  44.9481740   5.8210840
  39.4200670  44.3287030   5.7536790  40.2075760  45.3422350   4.9508920
  43.7511710  47.1626740   2.6060250  44.2676730  46.5514100   2.0808510
  44.4009090  47.6655520   3.0971260  46.4907210  48.0535230   3.4329230
  46.7785020  47.7989530   2.5562240  47.0030430  47.5012590   4.0234800
  47.7084220  31.7925430   4.0125740  46.9256010  32.2670930   4.2922500
  47.4147150  30.8880260   3.9038920  46.5579570  48.9751330  10.7997430
  47.4846880  48.7395600  10.8433390  46.5430000  49.8023330  10.3183460
  43.7443180  31.6396080  10.5639310  43.4627450  32.1429680   9.8000130
  44.1262880  30.8417830  10.1981440  50.3458640  31.0549660  11.1419780
  50.2324090  31.3744270  12.0371300  51.1628380  31.4562170  10.8457060
  53.1257130  48.2021190  10.6238470  53.9182450  47.7070420  10.4164430
  53.4190280  48.8811330  11.2314080  49.2516790  20.2998640  56.6028480
  49.1710840  19.3853250  56.3320190  48.8381210  20.7965710  55.8968190
  51.4042260  26.4837850  57.2636880  50.9423790  25.7125090  57.5924050
  52.2167810  26.5103920  57.7689330  39.8092610  17.3499360  53.1455900
  38.9209310  17.6915330  53.0435780  40.0933800  17.1499680  52.2536730
  47.6305570  28.7695860  56.8840870  47.0117010  29.2253360  56.3135310
  48.4857350  28.9247320  56.4830570  41.9854000  15.9330860  54.1794280
  42.0920750  16.8334590  54.4863040  41.0746360  15.8848830  53.8888930
  51.6373110  15.0555670  55.6505180  52.4582730  14.5652240  55.6930660
  51.6707190  15.6453330  56.4037020  48.4968920  23.6535100  54.2772780
  47.8786190  24.1184550  53.7135500  49.0092170  24.3462580  54.6942290
  37.8652120  24.3391630  51.6512410  37.4880100  24.8278730  50.9197310
  38.1225190  25.0116910  52.2818940  45.4741050  12.7408020  57.1097920
  45.7816030  12.1854910  56.3933420  44.5441750  12.8752480  56.9270910
  52.3201530  25.1791530  54.4895550  52.2097860  24.2365860  54.6144970
  52.3169780  25.5407170  55.3758310  47.8621810  20.8056850  53.8458040
  46.9351090  20.7394230  54.0746510  48.0146630  21.7436980  53.7313280
  47.8490890  17.0773850  50.8425200  46.9094560  17.2387810  50.9277660
  48.1674150  17.7959530  50.2961190  51.8919100  22.3677150  54.3493290
  51.2731520  22.0296700  53.7019590  51.8743550  21.7236910  55.0572480
  43.4678450  21.3321590  56.6277770  43.0635450  20.6198840  56.1323670
  43.5541570  20.9874830  57.5165810  50.0683800  21.6063960  51.3566040
  50.5077080  20.7686390  51.2103860  50.7812220  22.2393360  51.4430180
  48.1779180  26.5460030  55.3247280  48.6175090  27.2884360  54.9102670
  48.1166070  26.7886600  56.2486240  53.6500940  12.8606770  49.6707080
  53.3373600  12.9533600  50.5706150  54.4113410  13.4387800  49.6204510
  40.1683080  20.2266570  54.1284420  40.0480680  20.9528660  53.5165690
  39.8583970  19.4569480  53.6512330  39.0516080  25.0981900  56.3459240
  38.6444160  25.2396490  55.4912840  39.9429090  24.8142060  56.1430450
  50.8449360  29.5329150  52.6810290  50.6850500  29.2432090  53.5792120
  50.6796070  28.7569280  52.1455520  43.3237740  29.3127680  54.4581910
  43.1480220  28.3963220  54.2449710  42.4693480  29.6714970  54.6979710
  50.5475490  27.0416710  51.2408290  49.8540650  27.0394000  50.5810570
  51.2898350  26.6176030  50.8102460  50.1125420  28.6679420  55.3156780
  50.5682370  27.8868800  55.6295400  50.4517940  29.3786240  55.8597960
  42.6346740  13.5701640  57.5108090  42.1914890  14.3511180  57.1792610
  43.1931730  13.8931530  58.2179030  45.7505560  13.1912340  52.3913920
  45.1259740  13.1872210  53.1167230  45.6635680  12.3243300  51.9949890
  42.4260960  18.6935210  55.2389340  42.2001880  18.4772380  56.1435960
  41.6453490  19.1263670  54.8935310  49.6558720  18.6998580  53.8379990
  49.0567610  19.4234380  53.6543610  50.2038330  18.6375360  53.0556440
  48.2623590  17.3362120  55.8683270  48.6553160  17.6534320  55.0551960
  48.6240440  16.4574000  55.9827790  37.4857990  17.8683040  49.3016190
  37.4032660  18.8113800  49.4431180  37.1341050  17.7257950  48.4228540
  45.2856120  16.6022070  58.3686540  45.2892180  16.1612020  57.5191080
  46.1807240  16.9239400  58.4758360  41.1358500  16.4848560  57.3280750
  40.7958550  16.9623790  58.0847800  40.3735820  16.0313680  56.9681850
  45.3476270  17.6034150  51.3593300  45.4689090  17.5620630  52.3079120
  44.9624780  18.4658300  51.2040030  44.3597770  19.9135290  50.7576600
  43.7914670  19.4653540  50.1312510  45.0686770  20.2728070  50.2241750
  38.4504580  15.4067540  56.2445420  38.1651500  15.0423210  57.0824040
  38.3883440  14.6748000  55.6308560  41.9045250  23.9093480  53.0303010
  41.1307510  23.3691100  52.8701730  42.6339880  23.3900090  52.6920770
  48.1243170  14.2996800  52.9658790  47.3107780  13.8009970  52.8904100
  47.9305120  15.1395050  52.5495140  50.8391560  18.6716450  51.2620950
  51.7271180  18.9833680  51.0872290  50.8096650  17.7988700  50.8701530
  41.9482650  23.5773860  56.6681820  42.4661320  22.7742120  56.6138710
  41.4966670  23.5153000  57.5098650  46.8352150  24.8440140  51.9409120
  47.1767850  25.5882370  51.4452440  46.0064860  25.1571260  52.3033950
  53.1105830  19.9828290  50.7300810  53.0269550  20.4142510  49.8797250
  53.8300020  20.4426640  51.1627630  54.1393080  26.8370550  53.4582940
  53.4969240  26.1826170  53.7326660  53.7523740  27.2425640  52.6823610
  49.7179560  24.1655980  57.3054630  50.0703380  23.5684110  56.6456000
  48.8341890  23.8400210  57.4762880  45.8042840  24.9253670  54.7125040
  46.4913970  25.4722880  55.0932630  45.0175260  25.4694400  54.7474650
  37.9435240  20.5426490  50.2042120  38.8130090  20.8251290  50.4878040
  37.4525560  21.3562360  50.0890930  45.1070050  21.9299700  54.3250400
  45.5632830  22.7404950  54.5510590  44.7558260  21.6122840  55.1568890
  41.0081830  12.2737350  54.7972920  40.8796460  12.2655250  55.7457840
  40.1843850  12.6120440  54.4463930  52.5290460  25.7287010  49.9959290
  52.3028040  25.0117450  50.5883930  52.1386660  25.4799450  49.1581040
  38.3106490  29.7553870  50.7703750  38.6704130  30.3543210  50.1161020
  38.1698830  30.3013760  51.5438780  52.1106710  23.6458950  51.6573450
  51.8228410  24.1071640  52.4451330  52.9058880  23.1856720  51.9257670
  44.3275110  27.1385070  51.5877420  44.3185210  27.8714760  50.9721930
  43.4073470  26.8916650  51.6804380  39.9281750  22.3599960  52.3324180
  39.3209700  23.0998860  52.3419480  40.4031100  22.4499320  51.5062380
  52.8676570  15.4807720  52.8168630  52.2389730  15.5853390  52.1026860
  52.3728490  15.7004500  53.6062510  47.3134710  27.2013310  50.2502610
  47.4146690  26.9977300  49.3204590  46.4136450  26.9471590  50.4550390
  44.8360600  17.7593670  54.2326510  44.1276750  18.2280010  54.6740120
  45.1205080  17.1015680  54.8671700  48.8676030  14.4844330  55.6722300
  48.7443810  14.5030460  54.7231810  49.8160590  14.5323270  55.7920700
  45.9552820  29.7199630  54.9450280  46.2094320  29.6821020  54.0229650
  45.0065300  29.5932960  54.9378530  43.0395620  16.0678750  51.6077220
  43.8886150  16.5048900  51.5417410  42.6726890  16.3799010  52.4349280
  51.9605400  20.6391510  56.5208790  51.0195540  20.6541740  56.6956480
  52.2749470  19.8527470  56.9669090  41.9387040  22.3211110  50.0812750
  42.7050310  22.2092470  50.6438180  42.0161730  21.6249080  49.4289520
  40.6333800  19.7536180  50.7645640  40.7137390  18.8063690  50.8763040
  41.5253550  20.0843060  50.8706300  41.4348510  29.9031570  57.8680180
  42.1710990  29.3547030  58.1388750  41.8189430  30.7687580  57.7286170
  38.3193990  25.9705140  53.7421690  37.3933770  26.2126280  53.7327100
  38.7850420  26.7979400  53.6206440  44.5450820  29.0761880  49.6905750
  45.3379430  29.3650710  49.2387540  44.0255170  28.6454050  49.0118230
  53.5980990  28.3032010  51.1142490  53.3122500  27.8897150  50.2996670
  53.4000540  29.2319720  50.9943010  45.0628220  24.2965290  49.5548100
  44.9578860  23.6817640  50.2809480  44.8952440  23.7731180  48.7711110
  48.3030950  23.3585320  50.1590090  47.7541050  23.8054620  50.8032830
  48.9250210  22.8534570  50.6827760  43.9706070  22.3176240  52.0555390
  44.3922490  22.1516110  52.8986780  44.0956910  21.5076470  51.5610530
  46.4833710  21.3413850  49.3032490  47.0039370  20.6262870  48.9373640
  47.1302110  21.9799720  49.6033000  42.8664970  18.3909470  49.0013550
  42.6654030  17.5276830  49.3626890  42.6957020  18.3042830  48.0635150
  50.3453280  13.2017700  51.5300430  50.6255570  12.3585600  51.8859850
  49.5719010  13.4340810  52.0439180  41.6647770  15.4910090  48.9891430
  41.9673670  15.4977520  48.0810580  42.4042360  15.1407950  49.4859090
  44.8832700  14.4344710  49.9747630  44.5354700  13.7568700  49.3950080
  45.0845470  13.9734220  50.7891020  47.0481740  29.4225460  51.5934230
  47.9432530  29.7610430  51.6152990  47.0799370  28.7004870  50.9658510
  40.6877900  24.7952510  49.8221230  41.1252770  25.3382180  50.4778810
  41.1725630  23.9699460  49.8317570  37.9023700  27.5841540  57.2741490
  38.2326710  26.7162600  57.0420130  38.3314700  27.7900060  58.1046450
  42.4985620  25.9150550  54.9343460  42.1981160  25.7915520  55.8347370
  42.3923110  25.0559140  54.5259190  55.2677540  25.6946950  49.6370140
  54.4370500  25.7623600  50.1077370  55.4449370  26.5851070  49.3337000
  54.7234000  22.4394430  52.1404340  55.4852910  23.0091080  52.2464030
  54.7388370  21.8721630  52.9112650  38.2238340  20.9632360  56.3712000
  37.5687180  20.6944000  55.7271700  39.0616290  20.8536840  55.9213980
  55.7293970  23.2944530  56.9846270  56.1002800  22.5111850  56.5782240
  56.3695900  23.9833630  56.8063570  54.7753170  22.7328800  49.2976860
  55.0502010  23.6407680  49.1696080  54.5863910  22.6691330  50.2338850
  51.1728780  15.7573650  50.5930490  51.5913660  15.5704630  49.7527150
  50.8664840  14.9052700  50.9033420  54.6718510  20.6697790  54.2906290
  54.2962110  19.9025720  53.8587580  53.9421630  21.0520490  54.7781220
  37.4376420  18.1731290  52.3137330  36.5340500  18.4361490  52.1388990
  37.9217040  18.4442460  51.5337290  53.9469470  18.8955280  57.5913530
  54.4706950  18.4017930  56.9603700  54.5328890  19.0305640  58.3361100
  39.9803630  17.2296830  50.2231710  40.6895330  16.8080050  49.7378990
  39.2643570  17.2972060  49.5915060  39.6277790  13.2836160  49.2634360
  40.3505920  13.8245100  49.5815580  39.9002310  13.0099580  48.3875900
  53.4369440  18.1528630  53.5305940  53.9328560  17.9199500  54.3154820
  53.2385510  17.3140470  53.1143580  54.8656600  16.7889580  56.0643620
  54.7555880  16.6345620  57.0025890  55.6264190  16.2610520  55.8219030
  55.7546870  14.6197500  49.3049760  56.6796180  14.4878680  49.0968050
  55.7322660  14.6990320  50.2586210  55.8285360  15.3908160  51.9306470
  55.0336860  15.3253280  52.4599380  56.0328640  16.3258800  51.9191820
  52.7703780  29.4299710  55.9244860  53.3662850  29.1084280  55.2479280
  53.0281930  28.9571530  56.7158130  52.2605290  13.7205040  58.3805300
  52.7013380  13.6650140  57.5326900  51.9912880  14.6363050  58.4515480
  54.1243860  13.3520280  56.3914120  54.0632260  12.4081500  56.2445140
  54.9035890  13.4600370  56.9367580  38.4296610  29.4912640  55.3538070
  38.2618650  28.8583320  56.0519960  37.5631120  29.6972040  55.0032260
  39.0524630  13.3229420  52.8569930  39.8103990  13.4358300  52.2833960
  38.5901800  14.1598620  52.8113360  45.5938440  15.4368690  55.8472240
  44.7812950  15.0625580  55.5068120  46.0980080  14.6813770  56.1493430
  50.0963420  12.1011140  57.0855310  50.6992790  12.6731350  57.5603830
  49.3556410  12.6650580  56.8629210  53.2398020  12.5032700  52.3595590
  53.4348650  13.4016150  52.6263020  52.4527890  12.2719780  52.8528540
  40.0359310  28.1845870  52.7988210  39.5106930  28.5653900  52.0950170
  39.9603890  28.8096640  53.5197920  41.4249780  13.8493470  51.3971900
  41.9542540  13.0623270  51.2679850  42.0578100  14.5284660  51.6307430
  43.6187620  13.5868610  54.4517290  42.9890360  12.8855920  54.6187420
  43.0792760  14.3472740  54.2350450  54.7924630  29.7433410  54.1202150
  54.9676820  29.0571150  53.4763070  54.0946200  30.2680460  53.7278820
  42.6352280  30.1328250  51.6737460  43.3671100  29.8487530  51.1261350
  42.8945950  29.8941530  52.5636840  41.7967070  26.2492980  51.6783790
  41.1675950  26.7178080  52.2269620  41.9114900  25.4042200  52.1129980
  49.2516790  20.2998640  37.8284990  49.1710840  19.3853250  37.5576700
  48.8381210  20.7965710  37.1224700  47.3834830  22.0777660  39.7094260
  46.6076930  21.5978100  39.9992830  48.0347760  21.3983310  39.5350420
  41.4000660  22.3897470  40.5870020  40.5685540  22.1346180  40.9866530
  42.0081640  22.4608240  41.3227940  51.4042260  26.4837850  38.4893390
  50.9423790  25.7125090  38.8180560  52.2167810  26.5103920  38.9945840
  41.3801920  26.4237560  40.7828040  41.6829960  25.5335300  40.6038260
  42.1245510  26.9807780  40.5550290  39.8092610  17.3499360  34.3712410
  38.9209310  17.6915330  34.2692290  40.0933800  17.1499680  33.4793240
  37.7725620  19.9505010  40.2552110  38.3441730  19.1827210  40.2555750
  37.7727160  20.2493770  39.3458720  46.8243820  24.7534850  39.7164420
  46.7552100  23.8124790  39.5553550  47.5863680  24.8436260  40.2886990
  39.0150490  15.3589370  42.0421040  38.8353330  14.4615120  42.3223800
  38.6130570  15.9061240  42.7167990  47.8548990  17.5605230  39.9433350
  48.2313810  16.6877110  39.8307020  47.7568500  17.8963930  39.0523790
  41.9854000  15.9330860  35.4050790  42.0920750  16.8334590  35.7119550
  41.0746360  15.8848830  35.1145440  51.6373110  15.0555670  36.8761690
  52.4582730  14.5652240  36.9187170  51.6707190  15.6453330  37.6293530
  39.6337160  17.8549870  40.6503380  40.3147270  18.1188240  41.2690780
  39.3185210  17.0150740  40.9841390  43.8261730  18.9017230  39.7375970
  44.3339950  19.3998200  40.3780990  44.3574970  18.1252430  39.5615330
  55.9272660  17.0722420  43.4405320  55.2224830  17.4604130  42.9220430
  56.1930580  17.7672710  44.0426250  42.1097830  13.5415790  44.0039390
  42.1116270  14.0588180  43.1985290  41.2802140  13.0645970  43.9809320
  48.4968920  23.6535100  35.5029290  47.8786190  24.1184550  34.9392010
  49.0092170  24.3462580  35.9198800  43.3600680  23.1810970  42.1812890
  43.0270060  23.8079890  42.8233960  43.5367360  23.7072850  41.4014560
  51.8734590  16.9956050  39.6489230  51.1690160  17.2840940  40.2292340
  52.2346750  17.8056160  39.2888790  41.7913160  15.2525750  42.0109840
  42.1329970  16.0967800  41.7163710  40.8528970  15.4009490  42.1275180
  42.5719780  25.1491770  43.9962070  43.1893780  25.8242850  43.7146520
  41.7112900  25.5579750  43.9049570  37.8652120  24.3391630  32.8768920
  37.4880100  24.8278730  32.1453820  38.1225190  25.0116910  33.5075450
  53.4897370  26.6131180  41.9116710  52.8060890  27.2830290  41.9033380
  54.0291660  26.8111830  41.1461570  54.9421510  16.4410840  40.0398440
  53.9946420  16.4749820  40.1713870  55.2671500  17.2549790  40.4247800
  45.4741050  12.7408020  38.3354430  45.7816030  12.1854910  37.6189930
  44.5441750  12.8752480  38.1527420  51.0256110  28.4575310  40.6261890
  51.0383270  28.0537600  39.7584150  50.4731330  29.2322600  40.5223320
  52.3201530  25.1791530  35.7152060  52.2097860  24.2365860  35.8401480
  52.3169780  25.5407170  36.6014820  50.4241550  23.3605150  41.9544500
  50.8410340  23.1465260  41.1197960  51.1481370  23.6177940  42.5253120
  47.8621810  20.8056850  35.0714550  46.9351090  20.7394230  35.3003020
  48.0146630  21.7436980  34.9569790  54.3703650  21.7592370  42.0460740
  53.5422280  21.8285460  41.5710870  54.9654130  22.3446680  41.5776570
  51.8919100  22.3677150  35.5749800  51.2731520  22.0296700  34.9276100
  51.8743550  21.7236910  36.2828990  51.3345660  18.5461690  42.9915610
  50.9216840  19.3715400  43.2455600  50.6021610  17.9606730  42.7991970
  43.4678450  21.3321590  37.8534280  43.0635450  20.6198840  37.3580180
  43.5541570  20.9874830  38.7422320  43.9360150  25.0189150  40.0173490
  43.6388440  24.4134620  39.3381270  44.8859970  25.0566460  39.9062850
  42.1807070  18.1064800  41.6333320  42.7321660  18.2160140  40.8586570
  42.6950580  18.4802400  42.3488550  52.0245760  28.5921020  43.6796590
  51.5476320  29.3993210  43.4869200  51.3407550  27.9399350  43.8322800
  43.0278580  24.7570840  46.6681290  42.1307110  24.9810810  46.9154690
  43.0531450  24.8805780  45.7192690  50.0683800  21.6063960  32.5822550
  50.5077080  20.7686390  32.4360370  50.7812220  22.2393360  32.6686690
  41.8549800  21.6284160  45.2438660  41.7157570  22.5006960  45.6126060
  40.9731160  21.2856970  45.0986600  48.1779180  26.5460030  36.5503790
  48.6175090  27.2884360  36.1359180  48.1166070  26.7886600  37.4742750
  43.6530150  27.5705860  47.4523810  43.6245580  27.9748810  46.5852240
  43.4895120  26.6416220  47.2895410  53.6500940  12.8606770  30.8963590
  53.3373600  12.9533600  31.7962660  54.4113410  13.4387800  30.8461020
  40.1683080  20.2266570  35.3540930  40.0480680  20.9528660  34.7422200
  39.8583970  19.4569480  34.8768840  55.6044970  28.3532960  48.7487980
  56.0804690  28.8315850  49.4277060  56.2252130  28.2850450  48.0233480
  37.8068450  23.3981710  41.1609570  37.8848870  23.5330480  40.2165290
  38.4210130  22.6897600  41.3537690  39.0516080  25.0981900  37.5715750
  38.6444160  25.2396490  36.7169350  39.9429090  24.8142060  37.3686960
  55.0078220  25.5445810  45.9087990  55.1341280  25.3057690  44.9905170
  55.0499600  24.7130350  46.3810070  48.8694960  29.2473810  44.4782800
  49.3839630  29.1581820  45.2805230  48.0264040  29.5933510  44.7710710
  54.8602230  17.5978270  46.8737730  54.2446500  18.1057940  46.3453190
  54.5398650  16.6976600  46.8163670  37.8627970  24.4395880  43.7004030
  38.0259010  23.9701240  42.8823400  38.3280420  23.9319440  44.3652870
  42.6346740  13.5701640  38.7364600  42.1914890  14.3511180  38.4049120
  43.1931730  13.8931530  39.4435540  46.9216550  16.4370160  44.3399920
  46.4595920  16.6453180  45.1519860  46.5194660  15.6229510  44.0370590
  51.9221060  17.6579110  45.4696580  51.0714650  17.3584860  45.7905650
  51.7622850  17.9021120  44.5580400  49.0170770  19.1580860  47.5695370
  49.3424180  18.3244610  47.2297600  49.8051100  19.6809380  47.7173700
  45.7505560  13.1912340  33.6170430  45.1259740  13.1872210  34.3423740
  45.6635680  12.3243300  33.2206400  44.6722640  14.1148970  40.5954200
  44.9694970  15.0211800  40.5146220  45.2208200  13.6267750  39.9813770
  42.4260960  18.6935210  36.4645850  42.2001880  18.4772380  37.3692470
  41.6453490  19.1263670  36.1191820  49.6558720  18.6998580  35.0636500
  49.0567610  19.4234380  34.8800120  50.2038330  18.6375360  34.2812950
  44.8660170  19.5920790  47.1306120  44.7703770  18.6515520  46.9806520
  45.7092150  19.8135860  46.7354190  48.2623590  17.3362120  37.0939780
  48.6553160  17.6534320  36.2808470  48.6240440  16.4574000  37.2084300
  39.9970710  16.0034460  45.2839900  39.6034100  16.8509670  45.4912680
  39.3089110  15.3660830  45.4748540  46.5715760  16.0869430  48.3536640
  45.8814080  15.8941630  48.9882730  47.3148060  16.3704070  48.8860940
  37.2987760  13.9262920  39.3169980  37.0100810  14.4965780  40.0294960
  38.0433520  13.4467370  39.6801210  37.4857990  17.8683040  30.5272700
  37.4032660  18.8113800  30.6687690  37.1341050  17.7257950  29.6485050
  48.8478730  19.9267870  41.1890560  48.1159850  20.4354680  41.5380660
  48.4503070  19.1097850  40.8879340  45.2856120  16.6022070  39.5943050
  45.2892180  16.1612020  38.7447590  46.1807240  16.9239400  39.7014870
  41.1358500  16.4848560  38.5537260  40.7958550  16.9623790  39.3104310
  40.3735820  16.0313680  38.1938360  49.3104640  15.3801550  40.6013500
  49.3277380  15.8310200  41.4455350  49.0620220  14.4807190  40.8146940
  52.7375390  12.7933730  46.4399880  53.0621160  12.0623390  46.9657860
  52.7731900  12.4747370  45.5380870  39.4366950  23.8147310  45.8599840
  39.0521740  23.1740980  46.4582800  39.7479140  24.5183430  46.4294570
  45.5864090  20.6623850  41.3408460  45.9534220  20.1882420  42.0869800
  45.3969150  21.5365420  41.6816800  38.4504580  15.4067540  37.4701930
  38.1651500  15.0423210  38.3080550  38.3883440  14.6748000  36.8565070
  43.3763460  19.7032490  43.6592670  43.0720530  20.5824470  43.8843030
  44.3309920  19.7632280  43.6950110  52.6633230  22.9058840  40.0485910
  53.3832350  23.4014130  39.6582020  52.4615050  22.2276730  39.4039780
  48.1243170  14.2996800  34.1915300  47.3107780  13.8009970  34.1160610
  47.9305120  15.1395050  33.7751650  48.0452030  22.9767900  45.9354910
  47.9789340  22.0563570  45.6812500  47.4157170  23.0743340  46.6499550
  50.8391560  18.6716450  32.4877460  51.7271180  18.9833680  32.3128800
  50.8096650  17.7988700  32.0958040  41.9482650  23.5773860  37.8938330
  42.4661320  22.7742120  37.8395220  41.4966670  23.5153000  38.7355160
  39.4327190  20.5435230  44.8064030  39.0742130  21.2089080  45.3937370
  39.1381750  19.7118780  45.1776650  42.6340310  21.0019470  47.6903580
  42.3340450  21.1476650  46.7931400  43.4051550  20.4424760  47.5976970
  47.9768760  25.7988470  45.6858710  47.9913300  24.8669430  45.4677620
  47.2693860  25.8848230  46.3248480  53.1105830  19.9828290  31.9557320
  53.0269550  20.4142510  31.1053760  53.8300020  20.4426640  32.3884140
  54.1879970  22.4395810  45.0327290  53.4628160  23.0324590  44.8356680
  54.7155430  22.4319350  44.2340660  54.1393080  26.8370550  34.6839450
  53.4969240  26.1826170  34.9583170  53.7523740  27.2425640  33.9080120
  49.7179560  24.1655980  38.5311140  50.0703380  23.5684110  37.8712510
  48.8341890  23.8400210  38.7019390  45.8042840  24.9253670  35.9381550
  46.4913970  25.4722880  36.3189140  45.0175260  25.4694400  35.9731160
  37.9435240  20.5426490  31.4298630  38.8130090  20.8251290  31.7134550
  37.4525560  21.3562360  31.3147440  47.4102660  27.4406040  42.7799210
  48.0544880  27.6465420  43.4572630  47.7732100  26.6794440  42.3270060
  41.0081830  12.2737350  36.0229430  40.8796460  12.2655250  36.9714350
  40.1843850  12.6120440  35.6720440  48.6834740  25.4438390  41.4976660
  49.3256970  24.7431550  41.6108830  49.2084090  26.2236830  41.3173550
  52.5290460  25.7287010  31.2215800  52.3028040  25.0117450  31.8140440
  52.1386660  25.4799450  30.3837550  50.4572360  26.2433290  44.7012720
  50.7928600  26.8299980  45.3790640  49.5372700  26.1126000  44.9310510
  38.0075760  14.0328470  45.4836130  37.2934280  14.2325390  46.0888740
  38.4270800  13.2568040  45.8550930  52.1106710  23.6458950  32.8829960
  51.8228410  24.1071640  33.6707840  52.9058880  23.1856720  33.1514180
  38.2948350  28.0208730  46.4702660  38.4039470  27.0803470  46.3298050
  37.6428910  28.2863480  45.8216390  46.2860940  26.2924620  47.8700780
  45.9657810  25.5733860  48.4146470  45.6119300  26.9679690  47.9436840
  39.9281750  22.3599960  33.5580690  39.3209700  23.0998860  33.5675990
  40.4031100  22.4499320  32.7318890  49.5014540  16.5250780  43.2337580
  49.8695360  15.7045990  43.5617150  48.6412740  16.5852670  43.6493230
  52.8676570  15.4807720  34.0425140  52.2389730  15.5853390  33.3283370
  52.3728490  15.7004500  34.8319020  46.4616530  19.1790370  43.4575550
  46.9601780  19.6536190  44.1227400  46.6039480  18.2553890  43.6645580
  48.8676030  14.4844330  36.8978810  48.7443810  14.5030460  35.9488320
  49.8160590  14.5323270  37.0177210  53.6683390  15.3958330  44.3003940
  53.1656990  16.1363730  44.6397750  54.4840050  15.7842330  43.9840730
  51.9605400  20.6391510  37.7465300  51.0195540  20.6541740  37.9212990
  52.2749470  19.8527470  38.1925600  53.9630980  27.8100360  39.4219560
  54.0878400  28.6331530  39.8943370  54.8296540  27.5991090  39.0743710
  41.4348510  29.9031570  39.0936690  42.1710990  29.3547030  39.3645260
  41.8189430  30.7687580  38.9542680  38.3193990  25.9705140  34.9678200
  37.3933770  26.2126280  34.9583610  38.7850420  26.7979400  34.8462950
  40.4406790  29.0877640  48.2822270  41.2419520  29.4089690  48.6957670
  39.9258610  28.7273220  49.0042180  49.2771420  25.1957510  48.2297680
  48.6709580  25.2189110  47.4893430  48.9725530  24.4640550  48.7664930
  50.7071790  28.9237800  46.8407090  51.6593540  28.8395820  46.7907330
  50.5600010  29.5879510  47.5140880  38.1604600  21.5751100  47.2258320
  38.6643620  20.9958380  47.7974550  37.4212020  21.8591330  47.7634690
  45.2142540  22.9822090  46.7593840  44.4488210  23.5507090  46.6748510
  45.3958500  22.6898300  45.8662070  52.3565890  24.7127420  47.3168860
  53.0975360  25.0503180  46.8136320  51.5938570  24.8819480  46.7638630
  40.1927680  19.7180690  48.1208390  40.2333020  19.4194560  49.0293620
  41.0473180  20.1188300  47.9615910  42.1333490  18.2972790  46.0882880
  41.6029950  17.8063740  45.4606220  42.8021560  18.7256990  45.5540810
  51.0311550  22.7642250  45.8524070  51.4452570  22.9187330  46.7014490
  50.0962550  22.8897470  46.0149850  51.5033720  20.1038410  47.8563220
  52.0854490  19.3490730  47.7683700  51.6795490  20.6345850  47.0794700
  42.6205790  15.2635160  46.1680170  42.5262660  14.6455910  45.4431040
  42.0403180  15.9901450  45.9410080  45.3867230  13.8208400  43.2007560
  44.9384530  13.8432660  42.3553110  44.7532430  13.4227420  43.7977860
  45.7926780  22.7162730  43.8220000  46.2114890  23.5595460  43.6496240
  44.8735410  22.8534770  43.5926780  48.1290680  20.4478910  45.2057840
  48.2486890  19.8520050  45.9452680  48.9884680  20.4848600  44.7859140
  50.4678580  21.0016100  43.7820350  49.9413800  21.5258720  43.1785490
  50.8109920  21.6343490  44.4130080  43.6434200  29.0215740  44.9377730
  43.1055290  29.7461800  44.6186430  43.8968160  28.5446080  44.1475070
  44.8959450  16.9900260  46.4633660  45.4859140  16.6816110  47.1511480
  44.0779690  16.5180010  46.6193560  49.7152880  16.6066070  46.6966680
  49.0268400  15.9447610  46.6316670  50.4358900  16.1604340  47.1415140
  50.3453280  13.2017700  32.7556940  50.6255570  12.3585600  33.1116360
  49.5719010  13.4340810  33.2695690  46.4996410  30.2566950  45.1964380
  46.4255110  31.1602090  45.5036750  45.5975250  29.9378850  45.1686450
  44.8832700  14.4344710  31.2004140  44.5354700  13.7568700  30.6206590
  45.0845470  13.9734220  32.0147530  37.9023700  27.5841540  38.4998000
  38.2326710  26.7162600  38.2676640  38.3314700  27.7900060  39.3302960
  42.4985620  25.9150550  36.1599970  42.1981160  25.7915520  37.0603880
  42.3923110  25.0559140  35.7515700  38.3913910  28.4512130  41.2379630
  37.9544900  28.6312930  42.0703780  38.9591590  29.2086750  41.0961350
  54.0276090  27.9529130  45.5256940  53.4278080  28.0121690  44.7820860
  54.1569990  27.0134110  45.6553790  55.2677540  25.6946950  30.8626650
  54.4370500  25.7623600  31.3333880  55.4449370  26.5851070  30.5593510
  54.7234000  22.4394430  33.3660850  55.4852910  23.0091080  33.4720540
  54.7388370  21.8721630  34.1369160  38.2238340  20.9632360  37.5968510
  37.5687180  20.6944000  36.9528210  39.0616290  20.8536840  37.1470490
  55.7293970  23.2944530  38.2102780  56.1002800  22.5111850  37.8038750
  56.3695900  23.9833630  38.0320080  52.7127730  24.6781110  43.6233100
  51.8987570  25.1078270  43.8858890  53.1201930  25.2899520  43.0102150
  54.7753170  22.7328800  30.5233370  55.0502010  23.6407680  30.3952590
  54.5863910  22.6691330  31.4595360  51.1728780  15.7573650  31.8187000
  51.5913660  15.5704630  30.9783660  50.8664840  14.9052700  32.1289930
  54.6718510  20.6697790  35.5162800  54.2962110  19.9025720  35.0844090
  53.9421630  21.0520490  36.0037730  39.2614270  21.3484930  42.1371850
  39.6287310  21.2612330  43.0167870  38.6925090  20.5851480  42.0378710
  54.0618130  19.8169310  45.1502320  53.8304220  19.5882060  44.2500270
  54.3222680  20.7368860  45.1047210  38.8130270  18.2594020  46.0430270
  37.9186320  18.2260780  46.3823980  39.3527820  18.4580810  46.8081520
  52.5006200  15.0425740  47.9282020  53.3776380  15.0509140  48.3116020
  52.5127040  14.3056580  47.3174370  37.4376420  18.1731290  33.5393840
  36.5340500  18.4361490  33.3645500  37.9217040  18.4442460  32.7593800
  53.9469470  18.8955280  38.8170040  54.4706950  18.4017930  38.1860210
  54.5328890  19.0305640  39.5617610  54.1259190  18.9795150  42.3389590
  53.1761900  18.9458690  42.4534580  54.3072200  19.8895260  42.1039360
  39.9803630  17.2296830  31.4488220  40.6895330  16.8080050  30.9635500
  39.2643570  17.2972060  30.8171570  39.6277790  13.2836160  30.4890870
  40.3505920  13.8245100  30.8072090  39.9002310  13.0099580  29.6132410
  53.4369440  18.1528630  34.7562450  53.9328560  17.9199500  35.5411330
  53.2385510  17.3140470  34.3400090  39.3169980  12.5342350  40.3913490
  39.9646170  11.9839730  39.9508650  39.7371820  12.7885500  41.2129300
  54.8656600  16.7889580  37.2900130  54.7555880  16.6345620  38.2282400
  55.6264190  16.2610520  37.0475540  53.2122320  12.7283710  43.7483130
  53.8494540  13.3417850  44.1142320  53.3597210  12.7644370  42.8032360
  55.7546870  14.6197500  30.5306270  56.6796180  14.4878680  30.3224560
  55.7322660  14.6990320  31.4842720  55.8285360  15.3908160  33.1562980
  55.0336860  15.3253280  33.6855890  56.0328640  16.3258800  33.1448330
  52.7703780  29.4299710  37.1501370  53.3662850  29.1084280  36.4735790
  53.0281930  28.9571530  37.9414640  39.0701980  12.6898020  43.1338810
  38.7216800  13.1461840  43.8996990  38.7389680  11.7955150  43.2161240
  40.6766350  25.8617620  47.2992000  40.6335980  25.4910530  48.1806460
  40.8077360  26.7995190  47.4393820  44.3772380  27.4177210  42.9001720
  44.1363740  27.6851770  42.0132240  45.3175020  27.5882940  42.9552580
  46.5826800  13.8809900  46.6558230  46.5215690  14.4731730  47.4053640
  47.5227180  13.7735860  46.5108490  49.2201360  13.5379960  46.2950520
  49.8341770  13.8559250  45.6331600  49.7650920  13.0528550  46.9146380
  55.6376540  29.4371590  43.7012360  55.1434820  29.8340460  42.9839490
  55.0289830  28.8120800  44.0949640  39.7422620  12.2174220  46.4089580
  40.2905610  12.0362270  45.6455690  39.8077930  11.4268330  46.9445890
  40.5154380  28.8079870  44.4189780  39.9214700  28.6764570  45.1579820
  40.5078220  27.9718010  43.9531880  49.9609400  12.1012100  42.6219810
  49.0869240  12.4347210  42.4192740  49.8520150  11.6285280  43.4471680
  50.8681380  14.3082970  44.0061530  50.5394740  13.4934730  43.6263260
  51.8163680  14.2652780  43.8827220  53.3215990  30.0795010  40.9799100
  52.8618960  30.8310820  40.6057120  52.6928450  29.3601480  40.9213900
  40.1466610  26.1738250  43.3697820  39.4200670  25.5543540  43.3023770
  40.2075760  26.5678860  42.4995900  43.7511710  28.3883250  40.1547230
  44.2676730  27.7770610  39.6295490  44.4009090  28.8912030  40.6458240
  46.4907210  29.2791740  40.9816210  46.7785020  29.0246040  40.1049220
  47.0030430  28.7269100  41.5721780  47.7084220  13.0181940  41.5612720
  46.9256010  13.4927440  41.8409480  47.4147150  12.1136770  41.4525900
  52.2605290  13.7205040  39.6061810  52.7013380  13.6650140  38.7583410
  51.9912880  14.6363050  39.6771990  54.1243860  13.3520280  37.6170630
  54.0632260  12.4081500  37.4701650  54.9035890  13.4600370  38.1624090
  38.4296610  29.4912640  36.5794580  38.2618650  28.8583320  37.2776470
  37.5631120  29.6972040  36.2288770  39.0524630  13.3229420  34.0826440
  39.8103990  13.4358300  33.5090470  38.5901800  14.1598620  34.0369870
  45.5938440  15.4368690  37.0728750  44.7812950  15.0625580  36.7324630
  46.0980080  14.6813770  37.3749940  50.0963420  12.1011140  38.3111820
  50.6992790  12.6731350  38.7860340  49.3556410  12.6650580  38.0885720
  53.2398020  12.5032700  33.5852100  53.4348650  13.4016150  33.8519530
  52.4527890  12.2719780  34.0785050  41.4249780  13.8493470  32.6228410
  41.9542540  13.0623270  32.4936360  42.0578100  14.5284660  32.8563940
  43.6187620  13.5868610  35.6773800  42.9890360  12.8855920  35.8443930
  43.0792760  14.3472740  35.4606960  46.5579570  30.2007840  48.3484410
  47.4846880  29.9652110  48.3920370  46.5430000  31.0279840  47.8670440
  54.7924630  29.7433410  35.3458660  54.9676820  29.0571150  34.7019580
  54.0946200  30.2680460  34.9535330  43.7443180  12.8652590  48.1126290
  43.4627450  13.3686190  47.3487110  44.1262880  12.0674340  47.7468420
  50.3458640  12.2806170  48.6906760  50.2324090  12.6000780  49.5858280
  51.1628380  12.6818680  48.3944040  53.1257130  29.4277700  48.1725450
  53.9182450  28.9326930  47.9651410  53.4190280  30.1067840  48.7801060
  51.4042260  26.4837850  19.7149900  50.9423790  25.7125090  20.0437070
  52.2167810  26.5103920  20.2202350  39.8092610  17.3499360  15.5968920
  38.9209310  17.6915330  15.4948800  40.0933800  17.1499680  14.7049750
  37.7725620  19.9505010  21.4808620  38.3441730  19.1827210  21.4812260
  37.7727160  20.2493770  20.5715230  39.0150490  15.3589370  23.2677550
  38.8353330  14.4615120  23.5480310  38.6130570  15.9061240  23.9424500
  47.8548990  17.5605230  21.1689860  48.2313810  16.6877110  21.0563530
  47.7568500  17.8963930  20.2780300  41.9854000  15.9330860  16.6307300
  42.0920750  16.8334590  16.9376060  41.0746360  15.8848830  16.3401950
  51.6373110  15.0555670  18.1018200  52.4582730  14.5652240  18.1443680
  51.6707190  15.6453330  18.8550040  39.6337160  17.8549870  21.8759890
  40.3147270  18.1188240  22.4947290  39.3185210  17.0150740  22.2097900
  43.8261730  18.9017230  20.9632480  44.3339950  19.3998200  21.6037500
  44.3574970  18.1252430  20.7871840  55.9272660  17.0722420  24.6661830
  55.2224830  17.4604130  24.1476940  56.1930580  17.7672710  25.2682760
  42.1097830  13.5415790  25.2295900  42.1116270  14.0588180  24.4241800
  41.2802140  13.0645970  25.2065830  51.8734590  16.9956050  20.8745740
  51.1690160  17.2840940  21.4548850  52.2346750  17.8056160  20.5145300
  41.7913160  15.2525750  23.2366350  42.1329970  16.0967800  22.9420220
  40.8528970  15.4009490  23.3531690  37.8652120  24.3391630  14.1025430
  37.4880100  24.8278730  13.3710330  38.1225190  25.0116910  14.7331960
  53.4897370  26.6131180  23.1373220  52.8060890  27.2830290  23.1289890
  54.0291660  26.8111830  22.3718080  54.9421510  16.4410840  21.2654950
  53.9946420  16.4749820  21.3970380  55.2671500  17.2549790  21.6504310
  45.4741050  12.7408020  19.5610940  45.7816030  12.1854910  18.8446440
  44.5441750  12.8752480  19.3783930  52.3201530  25.1791530  16.9408570
  52.2097860  24.2365860  17.0657990  52.3169780  25.5407170  17.8271330
  47.8490890  17.0773850  13.2938220  46.9094560  17.2387810  13.3790680
  48.1674150  17.7959530  12.7474210  54.3703650  21.7592370  23.2717250
  53.5422280  21.8285460  22.7967380  54.9654130  22.3446680  22.8033080
  51.8919100  22.3677150  16.8006310  51.2731520  22.0296700  16.1532610
  51.8743550  21.7236910  17.5085500  51.3345660  18.5461690  24.2172120
  50.9216840  19.3715400  24.4712110  50.6021610  17.9606730  24.0248480
  43.4678450  21.3321590  19.0790790  43.0635450  20.6198840  18.5836690
  43.5541570  20.9874830  19.9678830  42.1807070  18.1064800  22.8589830
  42.7321660  18.2160140  22.0843080  42.6950580  18.4802400  23.5745060
  50.0683800  21.6063960  13.8079060  50.5077080  20.7686390  13.6616880
  50.7812220  22.2393360  13.8943200  53.6500940  12.8606770  12.1220100
  53.3373600  12.9533600  13.0219170  54.4113410  13.4387800  12.0717530
  40.1683080  20.2266570  16.5797440  40.0480680  20.9528660  15.9678710
  39.8583970  19.4569480  16.1025350  37.8068450  23.3981710  22.3866080
  37.8848870  23.5330480  21.4421800  38.4210130  22.6897600  22.5794200
  39.0516080  25.0981900  18.7972260  38.6444160  25.2396490  17.9425860
  39.9429090  24.8142060  18.5943470  50.8449360  29.5329150  15.1323310
  50.6850500  29.2432090  16.0305140  50.6796070  28.7569280  14.5968540
  43.3237740  29.3127680  16.9094930  43.1480220  28.3963220  16.6962730
  42.4693480  29.6714970  17.1492730  50.5475490  27.0416710  13.6921310
  49.8540650  27.0394000  13.0323590  51.2898350  26.6176030  13.2615480
  54.8602230  17.5978270  28.0994240  54.2446500  18.1057940  27.5709700
  54.5398650  16.6976600  28.0420180  37.8627970  24.4395880  24.9260540
  38.0259010  23.9701240  24.1079910  38.3280420  23.9319440  25.5909380
  42.6346740  13.5701640  19.9621110  42.1914890  14.3511180  19.6305630
  43.1931730  13.8931530  20.6692050  46.9216550  16.4370160  25.5656430
  46.4595920  16.6453180  26.3776370  46.5194660  15.6229510  25.2627100
  51.9221060  17.6579110  26.6953090  51.0714650  17.3584860  27.0162160
  51.7622850  17.9021120  25.7836910  49.0170770  19.1580860  28.7951880
  49.3424180  18.3244610  28.4554110  49.8051100  19.6809380  28.9430210
  45.7505560  13.1912340  14.8426940  45.1259740  13.1872210  15.5680250
  45.6635680  12.3243300  14.4462910  44.6722640  14.1148970  21.8210710
  44.9694970  15.0211800  21.7402730  45.2208200  13.6267750  21.2070280
  42.4260960  18.6935210  17.6902360  42.2001880  18.4772380  18.5948980
  41.6453490  19.1263670  17.3448330  49.6558720  18.6998580  16.2893010
  49.0567610  19.4234380  16.1056630  50.2038330  18.6375360  15.5069460
  48.2623590  17.3362120  18.3196290  48.6553160  17.6534320  17.5064980
  48.6240440  16.4574000  18.4340810  39.9970710  16.0034460  26.5096410
  39.6034100  16.8509670  26.7169190  39.3089110  15.3660830  26.7005050
  46.5715760  16.0869430  29.5793150  45.8814080  15.8941630  30.2139240
  47.3148060  16.3704070  30.1117450  37.2987760  13.9262920  20.5426490
  37.0100810  14.4965780  21.2551470  38.0433520  13.4467370  20.9057720
  37.4857990  17.8683040  11.7529210  37.4032660  18.8113800  11.8944200
  37.1341050  17.7257950  10.8741560  45.2856120  16.6022070  20.8199560
  45.2892180  16.1612020  19.9704100  46.1807240  16.9239400  20.9271380
  41.1358500  16.4848560  19.7793770  40.7958550  16.9623790  20.5360820
  40.3735820  16.0313680  19.4194870  45.3476270  17.6034150  13.8106320
  45.4689090  17.5620630  14.7592140  44.9624780  18.4658300  13.6553050
  49.3104640  15.3801550  21.8270010  49.3277380  15.8310200  22.6711860
  49.0620220  14.4807190  22.0403450  44.3597770  19.9135290  13.2089620
  43.7914670  19.4653540  12.5825530  45.0686770  20.2728070  12.6754770
  52.7375390  12.7933730  27.6656390  53.0621160  12.0623390  28.1914370
  52.7731900  12.4747370  26.7637380  38.4504580  15.4067540  18.6958440
  38.1651500  15.0423210  19.5337060  38.3883440  14.6748000  18.0821580
  41.9045250  23.9093480  15.4816030  41.1307510  23.3691100  15.3214750
  42.6339880  23.3900090  15.1433790  48.1243170  14.2996800  15.4171810
  47.3107780  13.8009970  15.3417120  47.9305120  15.1395050  15.0008160
  50.8391560  18.6716450  13.7133970  51.7271180  18.9833680  13.5385310
  50.8096650  17.7988700  13.3214550  41.9482650  23.5773860  19.1194840
  42.4661320  22.7742120  19.0651730  41.4966670  23.5153000  19.9611670
  46.8352150  24.8440140  14.3922140  47.1767850  25.5882370  13.8965460
  46.0064860  25.1571260  14.7546970  53.1105830  19.9828290  13.1813830
  53.0269550  20.4142510  12.3310270  53.8300020  20.4426640  13.6140650
  54.1879970  22.4395810  26.2583800  53.4628160  23.0324590  26.0613190
  54.7155430  22.4319350  25.4597170  54.1393080  26.8370550  15.9095960
  53.4969240  26.1826170  16.1839680  53.7523740  27.2425640  15.1336630
  37.9435240  20.5426490  12.6555140  38.8130090  20.8251290  12.9391060
  37.4525560  21.3562360  12.5403950  45.1070050  21.9299700  16.7763420
  45.5632830  22.7404950  17.0023610  44.7558260  21.6122840  17.6081910
  41.0081830  12.2737350  17.2485940  40.8796460  12.2655250  18.1970860
  40.1843850  12.6120440  16.8976950  52.5290460  25.7287010  12.4472310
  52.3028040  25.0117450  13.0396950  52.1386660  25.4799450  11.6094060
  38.3106490  29.7553870  13.2216770  38.6704130  30.3543210  12.5674040
  38.1698830  30.3013760  13.9951800  38.0075760  14.0328470  26.7092640
  37.2934280  14.2325390  27.3145250  38.4270800  13.2568040  27.0807440
  52.1106710  23.6458950  14.1086470  51.8228410  24.1071640  14.8964350
  52.9058880  23.1856720  14.3770690  44.3275110  27.1385070  14.0390440
  44.3185210  27.8714760  13.4234950  43.4073470  26.8916650  14.1317400
  39.9281750  22.3599960  14.7837200  39.3209700  23.0998860  14.7932500
  40.4031100  22.4499320  13.9575400  49.5014540  16.5250780  24.4594090
  49.8695360  15.7045990  24.7873660  48.6412740  16.5852670  24.8749740
  52.8676570  15.4807720  15.2681650  52.2389730  15.5853390  14.5539880
  52.3728490  15.7004500  16.0575530  47.3134710  27.2013310  12.7015630
  47.4146690  26.9977300  11.7717610  46.4136450  26.9471590  12.9063410
  44.8360600  17.7593670  16.6839530  44.1276750  18.2280010  17.1253140
  45.1205080  17.1015680  17.3184720  48.8676030  14.4844330  18.1235320
  48.7443810  14.5030460  17.1744830  49.8160590  14.5323270  18.2433720
  43.0395620  16.0678750  14.0590240  43.8886150  16.5048900  13.9930430
  42.6726890  16.3799010  14.8862300  53.6683390  15.3958330  25.5260450
  53.1656990  16.1363730  25.8654260  54.4840050  15.7842330  25.2097240
  41.9387040  22.3211110  12.5325770  42.7050310  22.2092470  13.0951200
  42.0161730  21.6249080  11.8802540  40.6333800  19.7536180  13.2158660
  40.7137390  18.8063690  13.3276060  41.5253550  20.0843060  13.3219320
  53.9630980  27.8100360  20.6476070  54.0878400  28.6331530  21.1199880
  54.8296540  27.5991090  20.3000220  38.3193990  25.9705140  16.1934710
  37.3933770  26.2126280  16.1840120  38.7850420  26.7979400  16.0719460
  44.5450820  29.0761880  12.1418770  45.3379430  29.3650710  11.6900560
  44.0255170  28.6454050  11.4631250  49.2771420  25.1957510  29.4554190
  48.6709580  25.2189110  28.7149940  48.9725530  24.4640550  29.9921440
  53.5980990  28.3032010  13.5655510  53.3122500  27.8897150  12.7509690
  53.4000540  29.2319720  13.4456030  38.1604600  21.5751100  28.4514830
  38.6643620  20.9958380  29.0231060  37.4212020  21.8591330  28.9891200
  45.0628220  24.2965290  12.0061120  44.9578860  23.6817640  12.7322500
  44.8952440  23.7731180  11.2224130  48.3030950  23.3585320  12.6103110
  47.7541050  23.8054620  13.2545850  48.9250210  22.8534570  13.1340780
  43.9706070  22.3176240  14.5068410  44.3922490  22.1516110  15.3499800
  44.0956910  21.5076470  14.0123550  46.4833710  21.3413850  11.7545510
  47.0039370  20.6262870  11.3886660  47.1302110  21.9799720  12.0546020
  51.5033720  20.1038410  29.0819730  52.0854490  19.3490730  28.9940210
  51.6795490  20.6345850  28.3051210  42.6205790  15.2635160  27.3936680
  42.5262660  14.6455910  26.6687550  42.0403180  15.9901450  27.1666590
  45.3867230  13.8208400  24.4264070  44.9384530  13.8432660  23.5809620
  44.7532430  13.4227420  25.0234370  42.8664970  18.3909470  11.4526570
  42.6654030  17.5276830  11.8139910  42.6957020  18.3042830  10.5148170
  49.7152880  16.6066070  27.9223190  49.0268400  15.9447610  27.8573180
  50.4358900  16.1604340  28.3671650  50.3453280  13.2017700  13.9813450
  50.6255570  12.3585600  14.3372870  49.5719010  13.4340810  14.4952200
  41.6647770  15.4910090  11.4404450  41.9673670  15.4977520  10.5323600
  42.4042360  15.1407950  11.9372110  44.8832700  14.4344710  12.4260650
  44.5354700  13.7568700  11.8463100  45.0845470  13.9734220  13.2404040
  47.0481740  29.4225460  14.0447250  47.9432530  29.7610430  14.0666010
  47.0799370  28.7004870  13.4171530  40.6877900  24.7952510  12.2734250
  41.1252770  25.3382180  12.9291830  41.1725630  23.9699460  12.2830590
  37.9023700  27.5841540  19.7254510  38.2326710  26.7162600  19.4933150
  38.3314700  27.7900060  20.5559470  42.4985620  25.9150550  17.3856480
  42.1981160  25.7915520  18.2860390  42.3923110  25.0559140  16.9772210
  38.3913910  28.4512130  22.4636140  37.9544900  28.6312930  23.2960290
  38.9591590  29.2086750  22.3217860  55.2677540  25.6946950  12.0883160
  54.4370500  25.7623600  12.5590390  55.4449370  26.5851070  11.7850020
  54.7234000  22.4394430  14.5917360  55.4852910  23.0091080  14.6977050
  54.7388370  21.8721630  15.3625670  38.2238340  20.9632360  18.8225020
  37.5687180  20.6944000  18.1784720  39.0616290  20.8536840  18.3727000
  55.7293970  23.2944530  19.4359290  56.1002800  22.5111850  19.0295260
  56.3695900  23.9833630  19.2576590  54.7753170  22.7328800  11.7489880
  55.0502010  23.6407680  11.6209100  54.5863910  22.6691330  12.6851870
  51.1728780  15.7573650  13.0443510  51.5913660  15.5704630  12.2040170
  50.8664840  14.9052700  13.3546440  54.6718510  20.6697790  16.7419310
  54.2962110  19.9025720  16.3100600  53.9421630  21.0520490  17.2294240
  39.2614270  21.3484930  23.3628360  39.6287310  21.2612330  24.2424380
  38.6925090  20.5851480  23.2635220  54.0618130  19.8169310  26.3758830
  53.8304220  19.5882060  25.4756780  54.3222680  20.7368860  26.3303720
  38.8130270  18.2594020  27.2686780  37.9186320  18.2260780  27.6080490
  39.3527820  18.4580810  28.0338030  52.5006200  15.0425740  29.1538530
  53.3776380  15.0509140  29.5372530  52.5127040  14.3056580  28.5430880
  37.4376420  18.1731290  14.7650350  36.5340500  18.4361490  14.5902010
  37.9217040  18.4442460  13.9850310  53.9469470  18.8955280  20.0426550
  54.4706950  18.4017930  19.4116720  54.5328890  19.0305640  20.7874120
  54.1259190  18.9795150  23.5646100  53.1761900  18.9458690  23.6791090
  54.3072200  19.8895260  23.3295870  39.9803630  17.2296830  12.6744730
  40.6895330  16.8080050  12.1892010  39.2643570  17.2972060  12.0428080
  39.6277790  13.2836160  11.7147380  40.3505920  13.8245100  12.0328600
  39.9002310  13.0099580  10.8388920  53.4369440  18.1528630  15.9818960
  53.9328560  17.9199500  16.7667840  53.2385510  17.3140470  15.5656600
  39.3169980  12.5342350  21.6170000  39.9646170  11.9839730  21.1765160
  39.7371820  12.7885500  22.4385810  54.8656600  16.7889580  18.5156640
  54.7555880  16.6345620  19.4538910  55.6264190  16.2610520  18.2732050
  53.2122320  12.7283710  24.9739640  53.8494540  13.3417850  25.3398830
  53.3597210  12.7644370  24.0288870  55.7546870  14.6197500  11.7562780
  56.6796180  14.4878680  11.5481070  55.7322660  14.6990320  12.7099230
  55.8285360  15.3908160  14.3819490  55.0336860  15.3253280  14.9112400
  56.0328640  16.3258800  14.3704840  39.0701980  12.6898020  24.3595320
  38.7216800  13.1461840  25.1253500  38.7389680  11.7955150  24.4417750
  46.5826800  13.8809900  27.8814740  46.5215690  14.4731730  28.6310150
  47.5227180  13.7735860  27.7365000  49.2201360  13.5379960  27.5207030
  49.8341770  13.8559250  26.8588110  49.7650920  13.0528550  28.1402890
  39.7422620  12.2174220  27.6346090  40.2905610  12.0362270  26.8712200
  39.8077930  11.4268330  28.1702400  49.9609400  12.1012100  23.8476320
  49.0869240  12.4347210  23.6449250  49.8520150  11.6285280  24.6728190
  50.8681380  14.3082970  25.2318040  50.5394740  13.4934730  24.8519770
  51.8163680  14.2652780  25.1083730  47.7084220  13.0181940  22.7869230
  46.9256010  13.4927440  23.0665990  47.4147150  12.1136770  22.6782410
  52.2605290  13.7205040  20.8318320  52.7013380  13.6650140  19.9839920
  51.9912880  14.6363050  20.9028500  54.1243860  13.3520280  18.8427140
  54.0632260  12.4081500  18.6958160  54.9035890  13.4600370  19.3880600
  38.4296610  29.4912640  17.8051090  38.2618650  28.8583320  18.5032980
  37.5631120  29.6972040  17.4545280  39.0524630  13.3229420  15.3082950
  39.8103990  13.4358300  14.7346980  38.5901800  14.1598620  15.2626380
  45.5938440  15.4368690  18.2985260  44.7812950  15.0625580  17.9581140
  46.0980080  14.6813770  18.6006450  50.0963420  12.1011140  19.5368330
  50.6992790  12.6731350  20.0116850  49.3556410  12.6650580  19.3142230
  53.2398020  12.5032700  14.8108610  53.4348650  13.4016150  15.0776040
  52.4527890  12.2719780  15.3041560  40.0359310  28.1845870  15.2501230
  39.5106930  28.5653900  14.5463190  39.9603890  28.8096640  15.9710940
  41.4249780  13.8493470  13.8484920  41.9542540  13.0623270  13.7192870
  42.0578100  14.5284660  14.0820450  43.6187620  13.5868610  16.9030310
  42.9890360  12.8855920  17.0700440  43.0792760  14.3472740  16.6863470
  54.7924630  29.7433410  16.5715170  54.9676820  29.0571150  15.9276090
  54.0946200  30.2680460  16.1791840  43.7443180  12.8652590  29.3382800
  43.4627450  13.3686190  28.5743620  44.1262880  12.0674340  28.9724930
  42.6352280  30.1328250  14.1250480  43.3671100  29.8487530  13.5774370
  42.8945950  29.8941530  15.0149860  41.7967070  26.2492980  14.1296810
  41.1675950  26.7178080  14.6782640  41.9114900  25.4042200  14.5643000
  50.3458640  12.2806170  29.9163270  50.2324090  12.6000780  30.8114790
  51.1628380  12.6818680  29.6200550  47.3834830  22.0777660   2.1607280
  46.6076930  21.5978100   2.4505850  48.0347760  21.3983310   1.9863440
  41.4000660  22.3897470   3.0383040  40.5685540  22.1346180   3.4379550
  42.0081640  22.4608240   3.7740960  41.3801920  26.4237560   3.2341060
  41.6829960  25.5335300   3.0551280  42.1245510  26.9807780   3.0063310
  37.7725620  19.9505010   2.7065130  38.3441730  19.1827210   2.7068770
  37.7727160  20.2493770   1.7971740  46.8243820  24.7534850   2.1677440
  46.7552100  23.8124790   2.0066570  47.5863680  24.8436260   2.7400010
  39.0150490  15.3589370   4.4934060  38.8353330  14.4615120   4.7736820
  38.6130570  15.9061240   5.1681010  39.6337160  17.8549870   3.1016400
  40.3147270  18.1188240   3.7203800  39.3185210  17.0150740   3.4354410
  43.8261730  18.9017230   2.1888990  44.3339950  19.3998200   2.8294010
  44.3574970  18.1252430   2.0128350  55.9272660  17.0722420   5.8918340
  55.2224830  17.4604130   5.3733450  56.1930580  17.7672710   6.4939270
  42.1097830  13.5415790   6.4552410  42.1116270  14.0588180   5.6498310
  41.2802140  13.0645970   6.4322340  43.3600680  23.1810970   4.6325910
  43.0270060  23.8079890   5.2746980  43.5367360  23.7072850   3.8527580
  51.8734590  16.9956050   2.1002250  51.1690160  17.2840940   2.6805360
  52.2346750  17.8056160   1.7401810  41.7913160  15.2525750   4.4622860
  42.1329970  16.0967800   4.1676730  40.8528970  15.4009490   4.5788200
  42.5719780  25.1491770   6.4475090  43.1893780  25.8242850   6.1659540
  41.7112900  25.5579750   6.3562590  53.4897370  26.6131180   4.3629730
  52.8060890  27.2830290   4.3546400  54.0291660  26.8111830   3.5974590
  54.9421510  16.4410840   2.4911460  53.9946420  16.4749820   2.6226890
  55.2671500  17.2549790   2.8760820  51.0256110  28.4575310   3.0774910
  51.0383270  28.0537600   2.2097170  50.4731330  29.2322600   2.9736340
  50.4241550  23.3605150   4.4057520  50.8410340  23.1465260   3.5710980
  51.1481370  23.6177940   4.9766140  54.3703650  21.7592370   4.4973760
  53.5422280  21.8285460   4.0223890  54.9654130  22.3446680   4.0289590
  51.3345660  18.5461690   5.4428630  50.9216840  19.3715400   5.6968620
  50.6021610  17.9606730   5.2504990  43.9360150  25.0189150   2.4686510
  43.6388440  24.4134620   1.7894290  44.8859970  25.0566460   2.3575870
  42.1807070  18.1064800   4.0846340  42.7321660  18.2160140   3.3099590
  42.6950580  18.4802400   4.8001570  52.0245760  28.5921020   6.1309610
  51.5476320  29.3993210   5.9382220  51.3407550  27.9399350   6.2835820
  43.0278580  24.7570840   9.1194310  42.1307110  24.9810810   9.3667710
  43.0531450  24.8805780   8.1705710  41.8549800  21.6284160   7.6951680
  41.7157570  22.5006960   8.0639080  40.9731160  21.2856970   7.5499620
  43.6530150  27.5705860   9.9036830  43.6245580  27.9748810   9.0365260
  43.4895120  26.6416220   9.7408430  55.6044970  28.3532960  11.2001000
  56.0804690  28.8315850  11.8790080  56.2252130  28.2850450  10.4746500
  37.8068450  23.3981710   3.6122590  37.8848870  23.5330480   2.6678310
  38.4210130  22.6897600   3.8050710  55.0078220  25.5445810   8.3601010
  55.1341280  25.3057690   7.4418190  55.0499600  24.7130350   8.8323090
  48.8694960  29.2473810   6.9295820  49.3839630  29.1581820   7.7318250
  48.0264040  29.5933510   7.2223730  54.8602230  17.5978270   9.3250750
  54.2446500  18.1057940   8.7966210  54.5398650  16.6976600   9.2676690
  37.8627970  24.4395880   6.1517050  38.0259010  23.9701240   5.3336420
  38.3280420  23.9319440   6.8165890  46.9216550  16.4370160   6.7912940
  46.4595920  16.6453180   7.6032880  46.5194660  15.6229510   6.4883610
  51.9221060  17.6579110   7.9209600  51.0714650  17.3584860   8.2418670
  51.7622850  17.9021120   7.0093420  49.0170770  19.1580860  10.0208390
  49.3424180  18.3244610   9.6810620  49.8051100  19.6809380  10.1686720
  44.6722640  14.1148970   3.0467220  44.9694970  15.0211800   2.9659240
  45.2208200  13.6267750   2.4326790  44.8660170  19.5920790   9.5819140
  44.7703770  18.6515520   9.4319540  45.7092150  19.8135860   9.1867210
  39.9970710  16.0034460   7.7352920  39.6034100  16.8509670   7.9425700
  39.3089110  15.3660830   7.9261560  46.5715760  16.0869430  10.8049660
  45.8814080  15.8941630  11.4395750  47.3148060  16.3704070  11.3373960
  37.2987760  13.9262920   1.7683000  37.0100810  14.4965780   2.4807980
  38.0433520  13.4467370   2.1314230  48.8478730  19.9267870   3.6403580
  48.1159850  20.4354680   3.9893680  48.4503070  19.1097850   3.3392360
  49.3104640  15.3801550   3.0526520  49.3277380  15.8310200   3.8968370
  49.0620220  14.4807190   3.2659960  52.7375390  12.7933730   8.8912900
  53.0621160  12.0623390   9.4170880  52.7731900  12.4747370   7.9893890
  39.4366950  23.8147310   8.3112860  39.0521740  23.1740980   8.9095820
  39.7479140  24.5183430   8.8807590  45.5864090  20.6623850   3.7921480
  45.9534220  20.1882420   4.5382820  45.3969150  21.5365420   4.1329820
  43.3763460  19.7032490   6.1105690  43.0720530  20.5824470   6.3356050
  44.3309920  19.7632280   6.1463130  52.6633230  22.9058840   2.4998930
  53.3832350  23.4014130   2.1095040  52.4615050  22.2276730   1.8552800
  48.0452030  22.9767900   8.3867930  47.9789340  22.0563570   8.1325520
  47.4157170  23.0743340   9.1012570  39.4327190  20.5435230   7.2577050
  39.0742130  21.2089080   7.8450390  39.1381750  19.7118780   7.6289670
  42.6340310  21.0019470  10.1416600  42.3340450  21.1476650   9.2444420
  43.4051550  20.4424760  10.0489990  47.9768760  25.7988470   8.1371730
  47.9913300  24.8669430   7.9190640  47.2693860  25.8848230   8.7761500
  54.1879970  22.4395810   7.4840310  53.4628160  23.0324590   7.2869700
  54.7155430  22.4319350   6.6853680  47.4102660  27.4406040   5.2312230
  48.0544880  27.6465420   5.9085650  47.7732100  26.6794440   4.7783080
  48.6834740  25.4438390   3.9489680  49.3256970  24.7431550   4.0621850
  49.2084090  26.2236830   3.7686570  50.4572360  26.2433290   7.1525740
  50.7928600  26.8299980   7.8303660  49.5372700  26.1126000   7.3823530
  38.0075760  14.0328470   7.9349150  37.2934280  14.2325390   8.5401760
  38.4270800  13.2568040   8.3063950  38.2948350  28.0208730   8.9215680
  38.4039470  27.0803470   8.7811070  37.6428910  28.2863480   8.2729410
  46.2860940  26.2924620  10.3213800  45.9657810  25.5733860  10.8659490
  45.6119300  26.9679690  10.3949860  49.5014540  16.5250780   5.6850600
  49.8695360  15.7045990   6.0130170  48.6412740  16.5852670   6.1006250
  46.4616530  19.1790370   5.9088570  46.9601780  19.6536190   6.5740420
  46.6039480  18.2553890   6.1158600  53.6683390  15.3958330   6.7516960
  53.1656990  16.1363730   7.0910770  54.4840050  15.7842330   6.4353750
  40.4406790  29.0877640  10.7335290  41.2419520  29.4089690  11.1470690
  39.9258610  28.7273220  11.4555200  49.2771420  25.1957510  10.6810700
  48.6709580  25.2189110   9.9406450  48.9725530  24.4640550  11.2177950
  50.7071790  28.9237800   9.2920110  51.6593540  28.8395820   9.2420350
  50.5600010  29.5879510   9.9653900  38.1604600  21.5751100   9.6771340
  38.6643620  20.9958380  10.2487570  37.4212020  21.8591330  10.2147710
  45.2142540  22.9822090   9.2106860  44.4488210  23.5507090   9.1261530
  45.3958500  22.6898300   8.3175090  52.3565890  24.7127420   9.7681880
  53.0975360  25.0503180   9.2649340  51.5938570  24.8819480   9.2151650
  40.1927680  19.7180690  10.5721410  40.2333020  19.4194560  11.4806640
  41.0473180  20.1188300  10.4128930  42.1333490  18.2972790   8.5395900
  41.6029950  17.8063740   7.9119240  42.8021560  18.7256990   8.0053830
  51.0311550  22.7642250   8.3037090  51.4452570  22.9187330   9.1527510
  50.0962550  22.8897470   8.4662870  51.5033720  20.1038410  10.3076240
  52.0854490  19.3490730  10.2196720  51.6795490  20.6345850   9.5307720
  42.6205790  15.2635160   8.6193190  42.5262660  14.6455910   7.8944060
  42.0403180  15.9901450   8.3923100  45.3867230  13.8208400   5.6520580
  44.9384530  13.8432660   4.8066130  44.7532430  13.4227420   6.2490880
  45.7926780  22.7162730   6.2733020  46.2114890  23.5595460   6.1009260
  44.8735410  22.8534770   6.0439800  48.1290680  20.4478910   7.6570860
  48.2486890  19.8520050   8.3965700  48.9884680  20.4848600   7.2372160
  50.4678580  21.0016100   6.2333370  49.9413800  21.5258720   5.6298510
  50.8109920  21.6343490   6.8643100  43.6434200  29.0215740   7.3890750
  43.1055290  29.7461800   7.0699450  43.8968160  28.5446080   6.5988090
  44.8959450  16.9900260   8.9146680  45.4859140  16.6816110   9.6024500
  44.0779690  16.5180010   9.0706580  49.7152880  16.6066070   9.1479700
  49.0268400  15.9447610   9.0829690  50.4358900  16.1604340   9.5928160
  46.4996410  30.2566950   7.6477400  46.4255110  31.1602090   7.9549770
  45.5975250  29.9378850   7.6199470  38.3913910  28.4512130   3.6892650
  37.9544900  28.6312930   4.5216800  38.9591590  29.2086750   3.5474370
  54.0276090  27.9529130   7.9769960  53.4278080  28.0121690   7.2333880
  54.1569990  27.0134110   8.1066810  52.7127730  24.6781110   6.0746120
  51.8987570  25.1078270   6.3371910  53.1201930  25.2899520   5.4615170
  39.2614270  21.3484930   4.5884870  39.6287310  21.2612330   5.4680890
  38.6925090  20.5851480   4.4891730  54.0618130  19.8169310   7.6015340
  53.8304220  19.5882060   6.7013290  54.3222680  20.7368860   7.5560230
  38.8130270  18.2594020   8.4943290  37.9186320  18.2260780   8.8337000
  39.3527820  18.4580810   9.2594540  52.5006200  15.0425740  10.3795040
  53.3776380  15.0509140  10.7629040  52.5127040  14.3056580   9.7687390
  54.1259190  18.9795150   4.7902610  53.1761900  18.9458690   4.9047600
  54.3072200  19.8895260   4.5552380  39.3169980  12.5342350   2.8426510
  39.9646170  11.9839730   2.4021670  39.7371820  12.7885500   3.6642320
  53.2122320  12.7283710   6.1996150  53.8494540  13.3417850   6.5655340
  53.3597210  12.7644370   5.2545380  39.0701980  12.6898020   5.5851830
  38.7216800  13.1461840   6.3510010  38.7389680  11.7955150   5.6674260
  40.6766350  25.8617620   9.7505020  40.6335980  25.4910530  10.6319480
  40.8077360  26.7995190   9.8906840  44.3772380  27.4177210   5.3514740
  44.1363740  27.6851770   4.4645260  45.3175020  27.5882940   5.4065600
  46.5826800  13.8809900   9.1071250  46.5215690  14.4731730   9.8566660
  47.5227180  13.7735860   8.9621510  49.2201360  13.5379960   8.7463540
  49.8341770  13.8559250   8.0844620  49.7650920  13.0528550   9.3659400
  55.6376540  29.4371590   6.1525380  55.1434820  29.8340460   5.4352510
  55.0289830  28.8120800   6.5462660  39.7422620  12.2174220   8.8602600
  40.2905610  12.0362270   8.0968710  39.8077930  11.4268330   9.3958910
  40.5154380  28.8079870   6.8702800  39.9214700  28.6764570   7.6092840
  40.5078220  27.9718010   6.4044900  49.9609400  12.1012100   5.0732830
  49.0869240  12.4347210   4.8705760  49.8520150  11.6285280   5.8984700
  50.8681380  14.3082970   6.4574550  50.5394740  13.4934730   6.0776280
  51.8163680  14.2652780   6.3340240  53.3215990  30.0795010   3.4312120
  52.8618960  30.8310820   3.0570140  52.6928450  29.3601480   3.3726920
  40.1466610  26.1738250   5.8210840  39.4200670  25.5543540   5.7536790
  40.2075760  26.5678860   4.9508920  43.7511710  28.3883250   2.6060250
  44.2676730  27.7770610   2.0808510  44.4009090  28.8912030   3.0971260
  46.4907210  29.2791740   3.4329230  46.7785020  29.0246040   2.5562240
  47.0030430  28.7269100   4.0234800  47.7084220  13.0181940   4.0125740
  46.9256010  13.4927440   4.2922500  47.4147150  12.1136770   3.9038920
  46.5579570  30.2007840  10.7997430  47.4846880  29.9652110  10.8433390
  46.5430000  31.0279840  10.3183460  43.7443180  12.8652590  10.5639310
  43.4627450  13.3686190   9.8000130  44.1262880  12.0674340  10.1981440
  50.3458640  12.2806170  11.1419780  50.2324090  12.6000780  12.0371300
  51.1628380  12.6818680  10.8457060  53.1257130  29.4277700  10.6238470
  53.9182450  28.9326930  10.4164430  53.4190280  30.1067840  11.2314080
  51.4042260   7.7094360  57.2636880  50.9423790   6.9381600  57.5924050
  52.2167810   7.7360430  57.7689330  47.6305570   9.9952370  56.8840870
  47.0117010  10.4509870  56.3135310  48.4857350  10.1503830  56.4830570
  48.4968920   4.8791610  54.2772780  47.8786190   5.3441060  53.7135500
  49.0092170   5.5719090  54.6942290  37.8652120   5.5648140  51.6512410
  37.4880100   6.0535240  50.9197310  38.1225190   6.2373420  52.2818940
  52.3201530   6.4048040  54.4895550  52.2097860   5.4622370  54.6144970
  52.3169780   6.7663680  55.3758310  47.8621810   2.0313360  53.8458040
  46.9351090   1.9650740  54.0746510  48.0146630   2.9693490  53.7313280
  51.8919100   3.5933660  54.3493290  51.2731520   3.2553210  53.7019590
  51.8743550   2.9493420  55.0572480  43.4678450   2.5578100  56.6277770
  43.0635450   1.8455350  56.1323670  43.5541570   2.2131340  57.5165810
  50.0683800   2.8320470  51.3566040  50.5077080   1.9942900  51.2103860
  50.7812220   3.4649870  51.4430180  48.1779180   7.7716540  55.3247280
  48.6175090   8.5140870  54.9102670  48.1166070   8.0143110  56.2486240
  39.0516080   6.3238410  56.3459240  38.6444160   6.4653000  55.4912840
  39.9429090   6.0398570  56.1430450  50.8449360  10.7585660  52.6810290
  50.6850500  10.4688600  53.5792120  50.6796070   9.9825790  52.1455520
  43.3237740  10.5384190  54.4581910  43.1480220   9.6219730  54.2449710
  42.4693480  10.8971480  54.6979710  50.5475490   8.2673220  51.2408290
  49.8540650   8.2650510  50.5810570  51.2898350   7.8432540  50.8102460
  50.1125420   9.8935930  55.3156780  50.5682370   9.1125310  55.6295400
  50.4517940  10.6042750  55.8597960  41.9045250   5.1349990  53.0303010
  41.1307510   4.5947610  52.8701730  42.6339880   4.6156600  52.6920770
  41.9482650   4.8030370  56.6681820  42.4661320   3.9998630  56.6138710
  41.4966670   4.7409510  57.5098650  46.8352150   6.0696650  51.9409120
  47.1767850   6.8138880  51.4452440  46.0064860   6.3827770  52.3033950
  54.1393080   8.0627060  53.4582940  53.4969240   7.4082680  53.7326660
  53.7523740   8.4682150  52.6823610  49.7179560   5.3912490  57.3054630
  50.0703380   4.7940620  56.6456000  48.8341890   5.0656720  57.4762880
  45.8042840   6.1510180  54.7125040  46.4913970   6.6979390  55.0932630
  45.0175260   6.6950910  54.7474650  37.9435240   1.7683000  50.2042120
  38.8130090   2.0507800  50.4878040  37.4525560   2.5818870  50.0890930
  45.1070050   3.1556210  54.3250400  45.5632830   3.9661460  54.5510590
  44.7558260   2.8379350  55.1568890  52.5290460   6.9543520  49.9959290
  52.3028040   6.2373960  50.5883930  52.1386660   6.7055960  49.1581040
  38.3106490  10.9810380  50.7703750  38.6704130  11.5799720  50.1161020
  38.1698830  11.5270270  51.5438780  52.1106710   4.8715460  51.6573450
  51.8228410   5.3328150  52.4451330  52.9058880   4.4113230  51.9257670
  44.3275110   8.3641580  51.5877420  44.3185210   9.0971270  50.9721930
  43.4073470   8.1173160  51.6804380  39.9281750   3.5856470  52.3324180
  39.3209700   4.3255370  52.3419480  40.4031100   3.6755830  51.5062380
  47.3134710   8.4269820  50.2502610  47.4146690   8.2233810  49.3204590
  46.4136450   8.1728100  50.4550390  45.9552820  10.9456140  54.9450280
  46.2094320  10.9077530  54.0229650  45.0065300  10.8189470  54.9378530
  41.9387040   3.5467620  50.0812750  42.7050310   3.4348980  50.6438180
  42.0161730   2.8505590  49.4289520  41.4348510  11.1288080  57.8680180
  42.1710990  10.5803540  58.1388750  41.8189430  11.9944090  57.7286170
  38.3193990   7.1961650  53.7421690  37.3933770   7.4382790  53.7327100
  38.7850420   8.0235910  53.6206440  44.5450820  10.3018390  49.6905750
  45.3379430  10.5907220  49.2387540  44.0255170   9.8710560  49.0118230
  53.5980990   9.5288520  51.1142490  53.3122500   9.1153660  50.2996670
  53.4000540  10.4576230  50.9943010  45.0628220   5.5221800  49.5548100
  44.9578860   4.9074150  50.2809480  44.8952440   4.9987690  48.7711110
  48.3030950   4.5841830  50.1590090  47.7541050   5.0311130  50.8032830
  48.9250210   4.0791080  50.6827760  43.9706070   3.5432750  52.0555390
  44.3922490   3.3772620  52.8986780  44.0956910   2.7332980  51.5610530
  46.4833710   2.5670360  49.3032490  47.0039370   1.8519380  48.9373640
  47.1302110   3.2056230  49.6033000  47.0481740  10.6481970  51.5934230
  47.9432530  10.9866940  51.6152990  47.0799370   9.9261380  50.9658510
  40.6877900   6.0209020  49.8221230  41.1252770   6.5638690  50.4778810
  41.1725630   5.1955970  49.8317570  37.9023700   8.8098050  57.2741490
  38.2326710   7.9419110  57.0420130  38.3314700   9.0156570  58.1046450
  42.4985620   7.1407060  54.9343460  42.1981160   7.0172030  55.8347370
  42.3923110   6.2815650  54.5259190  55.2677540   6.9203460  49.6370140
  54.4370500   6.9880110  50.1077370  55.4449370   7.8107580  49.3337000
  54.7234000   3.6650940  52.1404340  55.4852910   4.2347590  52.2464030
  54.7388370   3.0978140  52.9112650  38.2238340   2.1888870  56.3712000
  37.5687180   1.9200510  55.7271700  39.0616290   2.0793350  55.9213980
  55.7293970   4.5201040  56.9846270  56.1002800   3.7368360  56.5782240
  56.3695900   5.2090140  56.8063570  54.7753170   3.9585310  49.2976860
  55.0502010   4.8664190  49.1696080  54.5863910   3.8947840  50.2338850
  52.7703780  10.6556220  55.9244860  53.3662850  10.3340790  55.2479280
  53.0281930  10.1828040  56.7158130  38.4296610  10.7169150  55.3538070
  38.2618650  10.0839830  56.0519960  37.5631120  10.9228550  55.0032260
  40.0359310   9.4102380  52.7988210  39.5106930   9.7910410  52.0950170
  39.9603890  10.0353150  53.5197920  54.7924630  10.9689920  54.1202150
  54.9676820  10.2827660  53.4763070  54.0946200  11.4936970  53.7278820
  42.6352280  11.3584760  51.6737460  43.3671100  11.0744040  51.1261350
  42.8945950  11.1198040  52.5636840  41.7967070   7.4749490  51.6783790
  41.1675950   7.9434590  52.2269620  41.9114900   6.6298710  52.1129980
  47.3834830   3.3034170  39.7094260  46.6076930   2.8234610  39.9992830
  48.0347760   2.6239820  39.5350420  41.4000660   3.6153980  40.5870020
  40.5685540   3.3602690  40.9866530  42.0081640   3.6864750  41.3227940
  51.4042260   7.7094360  38.4893390  50.9423790   6.9381600  38.8180560
  52.2167810   7.7360430  38.9945840  41.3801920   7.6494070  40.7828040
  41.6829960   6.7591810  40.6038260  42.1245510   8.2064290  40.5550290
  47.6305570   9.9952370  38.1097380  47.0117010  10.4509870  37.5391820
  48.4857350  10.1503830  37.7087080  46.8243820   5.9791360  39.7164420
  46.7552100   5.0381300  39.5553550  47.5863680   6.0692770  40.2886990
  48.4968920   4.8791610  35.5029290  47.8786190   5.3441060  34.9392010
  49.0092170   5.5719090  35.9198800  43.3600680   4.4067480  42.1812890
  43.0270060   5.0336400  42.8233960  43.5367360   4.9329360  41.4014560
  42.5719780   6.3748280  43.9962070  43.1893780   7.0499360  43.7146520
  41.7112900   6.7836260  43.9049570  37.8652120   5.5648140  32.8768920
  37.4880100   6.0535240  32.1453820  38.1225190   6.2373420  33.5075450
  53.4897370   7.8387690  41.9116710  52.8060890   8.5086800  41.9033380
  54.0291660   8.0368340  41.1461570  51.0256110   9.6831820  40.6261890
  51.0383270   9.2794110  39.7584150  50.4731330  10.4579110  40.5223320
  52.3201530   6.4048040  35.7152060  52.2097860   5.4622370  35.8401480
  52.3169780   6.7663680  36.6014820  50.4241550   4.5861660  41.9544500
  50.8410340   4.3721770  41.1197960  51.1481370   4.8434450  42.5253120
  47.8621810   2.0313360  35.0714550  46.9351090   1.9650740  35.3003020
  48.0146630   2.9693490  34.9569790  54.3703650   2.9848880  42.0460740
  53.5422280   3.0541970  41.5710870  54.9654130   3.5703190  41.5776570
  51.8919100   3.5933660  35.5749800  51.2731520   3.2553210  34.9276100
  51.8743550   2.9493420  36.2828990  43.4678450   2.5578100  37.8534280
  43.0635450   1.8455350  37.3580180  43.5541570   2.2131340  38.7422320
  43.9360150   6.2445660  40.0173490  43.6388440   5.6391130  39.3381270
  44.8859970   6.2822970  39.9062850  52.0245760   9.8177530  43.6796590
  51.5476320  10.6249720  43.4869200  51.3407550   9.1655860  43.8322800
  43.0278580   5.9827350  46.6681290  42.1307110   6.2067320  46.9154690
  43.0531450   6.1062290  45.7192690  50.0683800   2.8320470  32.5822550
  50.5077080   1.9942900  32.4360370  50.7812220   3.4649870  32.6686690
  41.8549800   2.8540670  45.2438660  41.7157570   3.7263470  45.6126060
  40.9731160   2.5113480  45.0986600  48.1779180   7.7716540  36.5503790
  48.6175090   8.5140870  36.1359180  48.1166070   8.0143110  37.4742750
  43.6530150   8.7962370  47.4523810  43.6245580   9.2005320  46.5852240
  43.4895120   7.8672730  47.2895410  55.6044970   9.5789470  48.7487980
  56.0804690  10.0572360  49.4277060  56.2252130   9.5106960  48.0233480
  37.8068450   4.6238220  41.1609570  37.8848870   4.7586990  40.2165290
  38.4210130   3.9154110  41.3537690  39.0516080   6.3238410  37.5715750
  38.6444160   6.4653000  36.7169350  39.9429090   6.0398570  37.3686960
  55.0078220   6.7702320  45.9087990  55.1341280   6.5314200  44.9905170
  55.0499600   5.9386860  46.3810070  48.8694960  10.4730320  44.4782800
  49.3839630  10.3838330  45.2805230  48.0264040  10.8190020  44.7710710
  50.8449360  10.7585660  33.9066800  50.6850500  10.4688600  34.8048630
  50.6796070   9.9825790  33.3712030  43.3237740  10.5384190  35.6838420
  43.1480220   9.6219730  35.4706220  42.4693480  10.8971480  35.9236220
  50.5475490   8.2673220  32.4664800  49.8540650   8.2650510  31.8067080
  51.2898350   7.8432540  32.0358970  50.1125420   9.8935930  36.5413290
  50.5682370   9.1125310  36.8551910  50.4517940  10.6042750  37.0854470
  37.8627970   5.6652390  43.7004030  38.0259010   5.1957750  42.8823400
  38.3280420   5.1575950  44.3652870  39.4366950   5.0403820  45.8599840
  39.0521740   4.3997490  46.4582800  39.7479140   5.7439940  46.4294570
  45.5864090   1.8880360  41.3408460  45.9534220   1.4138930  42.0869800
  45.3969150   2.7621930  41.6816800  41.9045250   5.1349990  34.2559520
  41.1307510   4.5947610  34.0958240  42.6339880   4.6156600  33.9177280
  52.6633230   4.1315350  40.0485910  53.3832350   4.6270640  39.6582020
  52.4615050   3.4533240  39.4039780  48.0452030   4.2024410  45.9354910
  47.9789340   3.2820080  45.6812500  47.4157170   4.2999850  46.6499550
  41.9482650   4.8030370  37.8938330  42.4661320   3.9998630  37.8395220
  41.4966670   4.7409510  38.7355160  46.8352150   6.0696650  33.1665630
  47.1767850   6.8138880  32.6708950  46.0064860   6.3827770  33.5290460
  42.6340310   2.2275980  47.6903580  42.3340450   2.3733160  46.7931400
  43.4051550   1.6681270  47.5976970  47.9768760   7.0244980  45.6858710
  47.9913300   6.0925940  45.4677620  47.2693860   7.1104740  46.3248480
  54.1879970   3.6652320  45.0327290  53.4628160   4.2581100  44.8356680
  54.7155430   3.6575860  44.2340660  54.1393080   8.0627060  34.6839450
  53.4969240   7.4082680  34.9583170  53.7523740   8.4682150  33.9080120
  49.7179560   5.3912490  38.5311140  50.0703380   4.7940620  37.8712510
  48.8341890   5.0656720  38.7019390  45.8042840   6.1510180  35.9381550
  46.4913970   6.6979390  36.3189140  45.0175260   6.6950910  35.9731160
  37.9435240   1.7683000  31.4298630  38.8130090   2.0507800  31.7134550
  37.4525560   2.5818870  31.3147440  45.1070050   3.1556210  35.5506910
  45.5632830   3.9661460  35.7767100  44.7558260   2.8379350  36.3825400
  47.4102660   8.6662550  42.7799210  48.0544880   8.8721930  43.4572630
  47.7732100   7.9050950  42.3270060  48.6834740   6.6694900  41.4976660
  49.3256970   5.9688060  41.6108830  49.2084090   7.4493340  41.3173550
  52.5290460   6.9543520  31.2215800  52.3028040   6.2373960  31.8140440
  52.1386660   6.7055960  30.3837550  50.4572360   7.4689800  44.7012720
  50.7928600   8.0556490  45.3790640  49.5372700   7.3382510  44.9310510
  38.3106490  10.9810380  31.9960260  38.6704130  11.5799720  31.3417530
  38.1698830  11.5270270  32.7695290  52.1106710   4.8715460  32.8829960
  51.8228410   5.3328150  33.6707840  52.9058880   4.4113230  33.1514180
  38.2948350   9.2465240  46.4702660  38.4039470   8.3059980  46.3298050
  37.6428910   9.5119990  45.8216390  46.2860940   7.5181130  47.8700780
  45.9657810   6.7990370  48.4146470  45.6119300   8.1936200  47.9436840
  44.3275110   8.3641580  32.8133930  44.3185210   9.0971270  32.1978440
  43.4073470   8.1173160  32.9060890  39.9281750   3.5856470  33.5580690
  39.3209700   4.3255370  33.5675990  40.4031100   3.6755830  32.7318890
  47.3134710   8.4269820  31.4759120  47.4146690   8.2233810  30.5461100
  46.4136450   8.1728100  31.6806900  45.9552820  10.9456140  36.1706790
  46.2094320  10.9077530  35.2486160  45.0065300  10.8189470  36.1635040
  41.9387040   3.5467620  31.3069260  42.7050310   3.4348980  31.8694690
  42.0161730   2.8505590  30.6546030  53.9630980   9.0356870  39.4219560
  54.0878400   9.8588040  39.8943370  54.8296540   8.8247600  39.0743710
  41.4348510  11.1288080  39.0936690  42.1710990  10.5803540  39.3645260
  41.8189430  11.9944090  38.9542680  38.3193990   7.1961650  34.9678200
  37.3933770   7.4382790  34.9583610  38.7850420   8.0235910  34.8462950
  40.4406790  10.3134150  48.2822270  41.2419520  10.6346200  48.6957670
  39.9258610   9.9529730  49.0042180  44.5450820  10.3018390  30.9162260
  45.3379430  10.5907220  30.4644050  44.0255170   9.8710560  30.2374740
  49.2771420   6.4214020  48.2297680  48.6709580   6.4445620  47.4893430
  48.9725530   5.6897060  48.7664930  50.7071790  10.1494310  46.8407090
  51.6593540  10.0652330  46.7907330  50.5600010  10.8136020  47.5140880
  53.5980990   9.5288520  32.3399000  53.3122500   9.1153660  31.5253180
  53.4000540  10.4576230  32.2199520  38.1604600   2.8007610  47.2258320
  38.6643620   2.2214890  47.7974550  37.4212020   3.0847840  47.7634690
  45.0628220   5.5221800  30.7804610  44.9578860   4.9074150  31.5065990
  44.8952440   4.9987690  29.9967620  45.2142540   4.2078600  46.7593840
  44.4488210   4.7763600  46.6748510  45.3958500   3.9154810  45.8662070
  48.3030950   4.5841830  31.3846600  47.7541050   5.0311130  32.0289340
  48.9250210   4.0791080  31.9084270  52.3565890   5.9383930  47.3168860
  53.0975360   6.2759690  46.8136320  51.5938570   6.1075990  46.7638630
  43.9706070   3.5432750  33.2811900  44.3922490   3.3772620  34.1243290
  44.0956910   2.7332980  32.7867040  46.4833710   2.5670360  30.5289000
  47.0039370   1.8519380  30.1630150  47.1302110   3.2056230  30.8289510
  51.0311550   3.9898760  45.8524070  51.4452570   4.1443840  46.7014490
  50.0962550   4.1153980  46.0149850  45.7926780   3.9419240  43.8220000
  46.2114890   4.7851970  43.6496240  44.8735410   4.0791280  43.5926780
  50.4678580   2.2272610  43.7820350  49.9413800   2.7515230  43.1785490
  50.8109920   2.8600000  44.4130080  43.6434200  10.2472250  44.9377730
  43.1055290  10.9718310  44.6186430  43.8968160   9.7702590  44.1475070
  46.4996410  11.4823460  45.1964380  46.4255110  12.3858600  45.5036750
  45.5975250  11.1635360  45.1686450  47.0481740  10.6481970  32.8190740
  47.9432530  10.9866940  32.8409500  47.0799370   9.9261380  32.1915020
  40.6877900   6.0209020  31.0477740  41.1252770   6.5638690  31.7035320
  41.1725630   5.1955970  31.0574080  37.9023700   8.8098050  38.4998000
  38.2326710   7.9419110  38.2676640  38.3314700   9.0156570  39.3302960
  42.4985620   7.1407060  36.1599970  42.1981160   7.0172030  37.0603880
  42.3923110   6.2815650  35.7515700  38.3913910   9.6768640  41.2379630
  37.9544900   9.8569440  42.0703780  38.9591590  10.4343260  41.0961350
  54.0276090   9.1785640  45.5256940  53.4278080   9.2378200  44.7820860
  54.1569990   8.2390620  45.6553790  55.2677540   6.9203460  30.8626650
  54.4370500   6.9880110  31.3333880  55.4449370   7.8107580  30.5593510
  54.7234000   3.6650940  33.3660850  55.4852910   4.2347590  33.4720540
  54.7388370   3.0978140  34.1369160  38.2238340   2.1888870  37.5968510
  37.5687180   1.9200510  36.9528210  39.0616290   2.0793350  37.1470490
  55.7293970   4.5201040  38.2102780  56.1002800   3.7368360  37.8038750
  56.3695900   5.2090140  38.0320080  52.7127730   5.9037620  43.6233100
  51.8987570   6.3334780  43.8858890  53.1201930   6.5156030  43.0102150
  54.7753170   3.9585310  30.5233370  55.0502010   4.8664190  30.3952590
  54.5863910   3.8947840  31.4595360  39.2614270   2.5741440  42.1371850
  39.6287310   2.4868840  43.0167870  38.6925090   1.8107990  42.0378710
  52.7703780  10.6556220  37.1501370  53.3662850  10.3340790  36.4735790
  53.0281930  10.1828040  37.9414640  40.6766350   7.0874130  47.2992000
  40.6335980   6.7167040  48.1806460  40.8077360   8.0251700  47.4393820
  44.3772380   8.6433720  42.9001720  44.1363740   8.9108280  42.0132240
  45.3175020   8.8139450  42.9552580  55.6376540  10.6628100  43.7012360
  55.1434820  11.0596970  42.9839490  55.0289830  10.0377310  44.0949640
  40.5154380  10.0336380  44.4189780  39.9214700   9.9021080  45.1579820
  40.5078220   9.1974520  43.9531880  53.3215990  11.3051520  40.9799100
  52.8618960  12.0567330  40.6057120  52.6928450  10.5857990  40.9213900
  40.1466610   7.3994760  43.3697820  39.4200670   6.7800050  43.3023770
  40.2075760   7.7935370  42.4995900  43.7511710   9.6139760  40.1547230
  44.2676730   9.0027120  39.6295490  44.4009090  10.1168540  40.6458240
  46.4907210  10.5048250  40.9816210  46.7785020  10.2502550  40.1049220
  47.0030430   9.9525610  41.5721780  38.4296610  10.7169150  36.5794580
  38.2618650  10.0839830  37.2776470  37.5631120  10.9228550  36.2288770
  40.0359310   9.4102380  34.0244720  39.5106930   9.7910410  33.3206680
  39.9603890  10.0353150  34.7454430  46.5579570  11.4264350  48.3484410
  47.4846880  11.1908620  48.3920370  46.5430000  12.2536350  47.8670440
  54.7924630  10.9689920  35.3458660  54.9676820  10.2827660  34.7019580
  54.0946200  11.4936970  34.9535330  42.6352280  11.3584760  32.8993970
  43.3671100  11.0744040  32.3517860  42.8945950  11.1198040  33.7893350
  41.7967070   7.4749490  32.9040300  41.1675950   7.9434590  33.4526130
  41.9114900   6.6298710  33.3386490  53.1257130  10.6534210  48.1725450
  53.9182450  10.1583440  47.9651410  53.4190280  11.3324350  48.7801060
  47.3834830   3.3034170  20.9350770  46.6076930   2.8234610  21.2249340
  48.0347760   2.6239820  20.7606930  41.4000660   3.6153980  21.8126530
  40.5685540   3.3602690  22.2123040  42.0081640   3.6864750  22.5484450
  51.4042260   7.7094360  19.7149900  50.9423790   6.9381600  20.0437070
  52.2167810   7.7360430  20.2202350  41.3801920   7.6494070  22.0084550
  41.6829960   6.7591810  21.8294770  42.1245510   8.2064290  21.7806800
  47.6305570   9.9952370  19.3353890  47.0117010  10.4509870  18.7648330
  48.4857350  10.1503830  18.9343590  46.8243820   5.9791360  20.9420930
  46.7552100   5.0381300  20.7810060  47.5863680   6.0692770  21.5143500
  48.4968920   4.8791610  16.7285800  47.8786190   5.3441060  16.1648520
  49.0092170   5.5719090  17.1455310  43.3600680   4.4067480  23.4069400
  43.0270060   5.0336400  24.0490470  43.5367360   4.9329360  22.6271070
  42.5719780   6.3748280  25.2218580  43.1893780   7.0499360  24.9403030
  41.7112900   6.7836260  25.1306080  37.8652120   5.5648140  14.1025430
  37.4880100   6.0535240  13.3710330  38.1225190   6.2373420  14.7331960
  53.4897370   7.8387690  23.1373220  52.8060890   8.5086800  23.1289890
  54.0291660   8.0368340  22.3718080  51.0256110   9.6831820  21.8518400
  51.0383270   9.2794110  20.9840660  50.4731330  10.4579110  21.7479830
  52.3201530   6.4048040  16.9408570  52.2097860   5.4622370  17.0657990
  52.3169780   6.7663680  17.8271330  50.4241550   4.5861660  23.1801010
  50.8410340   4.3721770  22.3454470  51.1481370   4.8434450  23.7509630
  47.8621810   2.0313360  16.2971060  46.9351090   1.9650740  16.5259530
  48.0146630   2.9693490  16.1826300  54.3703650   2.9848880  23.2717250
  53.5422280   3.0541970  22.7967380  54.9654130   3.5703190  22.8033080
  51.8919100   3.5933660  16.8006310  51.2731520   3.2553210  16.1532610
  51.8743550   2.9493420  17.5085500  43.4678450   2.5578100  19.0790790
  43.0635450   1.8455350  18.5836690  43.5541570   2.2131340  19.9678830
  43.9360150   6.2445660  21.2430000  43.6388440   5.6391130  20.5637780
  44.8859970   6.2822970  21.1319360  52.0245760   9.8177530  24.9053100
  51.5476320  10.6249720  24.7125710  51.3407550   9.1655860  25.0579310
  43.0278580   5.9827350  27.8937800  42.1307110   6.2067320  28.1411200
  43.0531450   6.1062290  26.9449200  50.0683800   2.8320470  13.8079060
  50.5077080   1.9942900  13.6616880  50.7812220   3.4649870  13.8943200
  41.8549800   2.8540670  26.4695170  41.7157570   3.7263470  26.8382570
  40.9731160   2.5113480  26.3243110  48.1779180   7.7716540  17.7760300
  48.6175090   8.5140870  17.3615690  48.1166070   8.0143110  18.6999260
  43.6530150   8.7962370  28.6780320  43.6245580   9.2005320  27.8108750
  43.4895120   7.8672730  28.5151920  55.6044970   9.5789470  29.9744490
  56.0804690  10.0572360  30.6533570  56.2252130   9.5106960  29.2489990
  37.8068450   4.6238220  22.3866080  37.8848870   4.7586990  21.4421800
  38.4210130   3.9154110  22.5794200  39.0516080   6.3238410  18.7972260
  38.6444160   6.4653000  17.9425860  39.9429090   6.0398570  18.5943470
  55.0078220   6.7702320  27.1344500  55.1341280   6.5314200  26.2161680
  55.0499600   5.9386860  27.6066580  48.8694960  10.4730320  25.7039310
  49.3839630  10.3838330  26.5061740  48.0264040  10.8190020  25.9967220
  50.8449360  10.7585660  15.1323310  50.6850500  10.4688600  16.0305140
  50.6796070   9.9825790  14.5968540  43.3237740  10.5384190  16.9094930
  43.1480220   9.6219730  16.6962730  42.4693480  10.8971480  17.1492730
  50.5475490   8.2673220  13.6921310  49.8540650   8.2650510  13.0323590
  51.2898350   7.8432540  13.2615480  50.1125420   9.8935930  17.7669800
  50.5682370   9.1125310  18.0808420  50.4517940  10.6042750  18.3110980
  37.8627970   5.6652390  24.9260540  38.0259010   5.1957750  24.1079910
  38.3280420   5.1575950  25.5909380  39.4366950   5.0403820  27.0856350
  39.0521740   4.3997490  27.6839310  39.7479140   5.7439940  27.6551080
  45.5864090   1.8880360  22.5664970  45.9534220   1.4138930  23.3126310
  45.3969150   2.7621930  22.9073310  41.9045250   5.1349990  15.4816030
  41.1307510   4.5947610  15.3214750  42.6339880   4.6156600  15.1433790
  52.6633230   4.1315350  21.2742420  53.3832350   4.6270640  20.8838530
  52.4615050   3.4533240  20.6296290  48.0452030   4.2024410  27.1611420
  47.9789340   3.2820080  26.9069010  47.4157170   4.2999850  27.8756060
  41.9482650   4.8030370  19.1194840  42.4661320   3.9998630  19.0651730
  41.4966670   4.7409510  19.9611670  46.8352150   6.0696650  14.3922140
  47.1767850   6.8138880  13.8965460  46.0064860   6.3827770  14.7546970
  42.6340310   2.2275980  28.9160090  42.3340450   2.3733160  28.0187910
  43.4051550   1.6681270  28.8233480  47.9768760   7.0244980  26.9115220
  47.9913300   6.0925940  26.6934130  47.2693860   7.1104740  27.5504990
  54.1879970   3.6652320  26.2583800  53.4628160   4.2581100  26.0613190
  54.7155430   3.6575860  25.4597170  54.1393080   8.0627060  15.9095960
  53.4969240   7.4082680  16.1839680  53.7523740   8.4682150  15.1336630
  49.7179560   5.3912490  19.7567650  50.0703380   4.7940620  19.0969020
  48.8341890   5.0656720  19.9275900  45.8042840   6.1510180  17.1638060
  46.4913970   6.6979390  17.5445650  45.0175260   6.6950910  17.1987670
  37.9435240   1.7683000  12.6555140  38.8130090   2.0507800  12.9391060
  37.4525560   2.5818870  12.5403950  45.1070050   3.1556210  16.7763420
  45.5632830   3.9661460  17.0023610  44.7558260   2.8379350  17.6081910
  47.4102660   8.6662550  24.0055720  48.0544880   8.8721930  24.6829140
  47.7732100   7.9050950  23.5526570  48.6834740   6.6694900  22.7233170
  49.3256970   5.9688060  22.8365340  49.2084090   7.4493340  22.5430060
  52.5290460   6.9543520  12.4472310  52.3028040   6.2373960  13.0396950
  52.1386660   6.7055960  11.6094060  50.4572360   7.4689800  25.9269230
  50.7928600   8.0556490  26.6047150  49.5372700   7.3382510  26.1567020
  38.3106490  10.9810380  13.2216770  38.6704130  11.5799720  12.5674040
  38.1698830  11.5270270  13.9951800  52.1106710   4.8715460  14.1086470
  51.8228410   5.3328150  14.8964350  52.9058880   4.4113230  14.3770690
  38.2948350   9.2465240  27.6959170  38.4039470   8.3059980  27.5554560
  37.6428910   9.5119990  27.0472900  46.2860940   7.5181130  29.0957290
  45.9657810   6.7990370  29.6402980  45.6119300   8.1936200  29.1693350
  44.3275110   8.3641580  14.0390440  44.3185210   9.0971270  13.4234950
  43.4073470   8.1173160  14.1317400  39.9281750   3.5856470  14.7837200
  39.3209700   4.3255370  14.7932500  40.4031100   3.6755830  13.9575400
  47.3134710   8.4269820  12.7015630  47.4146690   8.2233810  11.7717610
  46.4136450   8.1728100  12.9063410  45.9552820  10.9456140  17.3963300
  46.2094320  10.9077530  16.4742670  45.0065300  10.8189470  17.3891550
  41.9387040   3.5467620  12.5325770  42.7050310   3.4348980  13.0951200
  42.0161730   2.8505590  11.8802540  53.9630980   9.0356870  20.6476070
  54.0878400   9.8588040  21.1199880  54.8296540   8.8247600  20.3000220
  41.4348510  11.1288080  20.3193200  42.1710990  10.5803540  20.5901770
  41.8189430  11.9944090  20.1799190  38.3193990   7.1961650  16.1934710
  37.3933770   7.4382790  16.1840120  38.7850420   8.0235910  16.0719460
  40.4406790  10.3134150  29.5078780  41.2419520  10.6346200  29.9214180
  39.9258610   9.9529730  30.2298690  44.5450820  10.3018390  12.1418770
  45.3379430  10.5907220  11.6900560  44.0255170   9.8710560  11.4631250
  49.2771420   6.4214020  29.4554190  48.6709580   6.4445620  28.7149940
  48.9725530   5.6897060  29.9921440  50.7071790  10.1494310  28.0663600
  51.6593540  10.0652330  28.0163840  50.5600010  10.8136020  28.7397390
  53.5980990   9.5288520  13.5655510  53.3122500   9.1153660  12.7509690
  53.4000540  10.4576230  13.4456030  38.1604600   2.8007610  28.4514830
  38.6643620   2.2214890  29.0231060  37.4212020   3.0847840  28.9891200
  45.0628220   5.5221800  12.0061120  44.9578860   4.9074150  12.7322500
  44.8952440   4.9987690  11.2224130  45.2142540   4.2078600  27.9850350
  44.4488210   4.7763600  27.9005020  45.3958500   3.9154810  27.0918580
  48.3030950   4.5841830  12.6103110  47.7541050   5.0311130  13.2545850
  48.9250210   4.0791080  13.1340780  52.3565890   5.9383930  28.5425370
  53.0975360   6.2759690  28.0392830  51.5938570   6.1075990  27.9895140
  43.9706070   3.5432750  14.5068410  44.3922490   3.3772620  15.3499800
  44.0956910   2.7332980  14.0123550  46.4833710   2.5670360  11.7545510
  47.0039370   1.8519380  11.3886660  47.1302110   3.2056230  12.0546020
  51.0311550   3.9898760  27.0780580  51.4452570   4.1443840  27.9271000
  50.0962550   4.1153980  27.2406360  45.7926780   3.9419240  25.0476510
  46.2114890   4.7851970  24.8752750  44.8735410   4.0791280  24.8183290
  50.4678580   2.2272610  25.0076860  49.9413800   2.7515230  24.4042000
  50.8109920   2.8600000  25.6386590  43.6434200  10.2472250  26.1634240
  43.1055290  10.9718310  25.8442940  43.8968160   9.7702590  25.3731580
  46.4996410  11.4823460  26.4220890  46.4255110  12.3858600  26.7293260
  45.5975250  11.1635360  26.3942960  47.0481740  10.6481970  14.0447250
  47.9432530  10.9866940  14.0666010  47.0799370   9.9261380  13.4171530
  40.6877900   6.0209020  12.2734250  41.1252770   6.5638690  12.9291830
  41.1725630   5.1955970  12.2830590  37.9023700   8.8098050  19.7254510
  38.2326710   7.9419110  19.4933150  38.3314700   9.0156570  20.5559470
  42.4985620   7.1407060  17.3856480  42.1981160   7.0172030  18.2860390
  42.3923110   6.2815650  16.9772210  38.3913910   9.6768640  22.4636140
  37.9544900   9.8569440  23.2960290  38.9591590  10.4343260  22.3217860
  54.0276090   9.1785640  26.7513450  53.4278080   9.2378200  26.0077370
  54.1569990   8.2390620  26.8810300  55.2677540   6.9203460  12.0883160
  54.4370500   6.9880110  12.5590390  55.4449370   7.8107580  11.7850020
  54.7234000   3.6650940  14.5917360  55.4852910   4.2347590  14.6977050
  54.7388370   3.0978140  15.3625670  38.2238340   2.1888870  18.8225020
  37.5687180   1.9200510  18.1784720  39.0616290   2.0793350  18.3727000
  55.7293970   4.5201040  19.4359290  56.1002800   3.7368360  19.0295260
  56.3695900   5.2090140  19.2576590  52.7127730   5.9037620  24.8489610
  51.8987570   6.3334780  25.1115400  53.1201930   6.5156030  24.2358660
  54.7753170   3.9585310  11.7489880  55.0502010   4.8664190  11.6209100
  54.5863910   3.8947840  12.6851870  39.2614270   2.5741440  23.3628360
  39.6287310   2.4868840  24.2424380  38.6925090   1.8107990  23.2635220
  52.7703780  10.6556220  18.3757880  53.3662850  10.3340790  17.6992300
  53.0281930  10.1828040  19.1671150  40.6766350   7.0874130  28.5248510
  40.6335980   6.7167040  29.4062970  40.8077360   8.0251700  28.6650330
  44.3772380   8.6433720  24.1258230  44.1363740   8.9108280  23.2388750
  45.3175020   8.8139450  24.1809090  55.6376540  10.6628100  24.9268870
  55.1434820  11.0596970  24.2096000  55.0289830  10.0377310  25.3206150
  40.5154380  10.0336380  25.6446290  39.9214700   9.9021080  26.3836330
  40.5078220   9.1974520  25.1788390  53.3215990  11.3051520  22.2055610
  52.8618960  12.0567330  21.8313630  52.6928450  10.5857990  22.1470410
  40.1466610   7.3994760  24.5954330  39.4200670   6.7800050  24.5280280
  40.2075760   7.7935370  23.7252410  43.7511710   9.6139760  21.3803740
  44.2676730   9.0027120  20.8552000  44.4009090  10.1168540  21.8714750
  46.4907210  10.5048250  22.2072720  46.7785020  10.2502550  21.3305730
  47.0030430   9.9525610  22.7978290  38.4296610  10.7169150  17.8051090
  38.2618650  10.0839830  18.5032980  37.5631120  10.9228550  17.4545280
  40.0359310   9.4102380  15.2501230  39.5106930   9.7910410  14.5463190
  39.9603890  10.0353150  15.9710940  46.5579570  11.4264350  29.5740920
  47.4846880  11.1908620  29.6176880  46.5430000  12.2536350  29.0926950
  54.7924630  10.9689920  16.5715170  54.9676820  10.2827660  15.9276090
  54.0946200  11.4936970  16.1791840  42.6352280  11.3584760  14.1250480
  43.3671100  11.0744040  13.5774370  42.8945950  11.1198040  15.0149860
  41.7967070   7.4749490  14.1296810  41.1675950   7.9434590  14.6782640
  41.9114900   6.6298710  14.5643000  53.1257130  10.6534210  29.3981960
  53.9182450  10.1583440  29.1907920  53.4190280  11.3324350  30.0057570
  47.3834830   3.3034170   2.1607280  46.6076930   2.8234610   2.4505850
  48.0347760   2.6239820   1.9863440  41.4000660   3.6153980   3.0383040
  40.5685540   3.3602690   3.4379550  42.0081640   3.6864750   3.7740960
  41.3801920   7.6494070   3.2341060  41.6829960   6.7591810   3.0551280
  42.1245510   8.2064290   3.0063310  46.8243820   5.9791360   2.1677440
  46.7552100   5.0381300   2.0066570  47.5863680   6.0692770   2.7400010
  43.3600680   4.4067480   4.6325910  43.0270060   5.0336400   5.2746980
  43.5367360   4.9329360   3.8527580  42.5719780   6.3748280   6.4475090
  43.1893780   7.0499360   6.1659540  41.7112900   6.7836260   6.3562590
  53.4897370   7.8387690   4.3629730  52.8060890   8.5086800   4.3546400
  54.0291660   8.0368340   3.5974590  51.0256110   9.6831820   3.0774910
  51.0383270   9.2794110   2.2097170  50.4731330  10.4579110   2.9736340
  50.4241550   4.5861660   4.4057520  50.8410340   4.3721770   3.5710980
  51.1481370   4.8434450   4.9766140  54.3703650   2.9848880   4.4973760
  53.5422280   3.0541970   4.0223890  54.9654130   3.5703190   4.0289590
  43.9360150   6.2445660   2.4686510  43.6388440   5.6391130   1.7894290
  44.8859970   6.2822970   2.3575870  52.0245760   9.8177530   6.1309610
  51.5476320  10.6249720   5.9382220  51.3407550   9.1655860   6.2835820
  43.0278580   5.9827350   9.1194310  42.1307110   6.2067320   9.3667710
  43.0531450   6.1062290   8.1705710  41.8549800   2.8540670   7.6951680
  41.7157570   3.7263470   8.0639080  40.9731160   2.5113480   7.5499620
  43.6530150   8.7962370   9.9036830  43.6245580   9.2005320   9.0365260
  43.4895120   7.8672730   9.7408430  55.6044970   9.5789470  11.2001000
  56.0804690  10.0572360  11.8790080  56.2252130   9.5106960  10.4746500
  37.8068450   4.6238220   3.6122590  37.8848870   4.7586990   2.6678310
  38.4210130   3.9154110   3.8050710  55.0078220   6.7702320   8.3601010
  55.1341280   6.5314200   7.4418190  55.0499600   5.9386860   8.8323090
  48.8694960  10.4730320   6.9295820  49.3839630  10.3838330   7.7318250
  48.0264040  10.8190020   7.2223730  37.8627970   5.6652390   6.1517050
  38.0259010   5.1957750   5.3336420  38.3280420   5.1575950   6.8165890
  39.4366950   5.0403820   8.3112860  39.0521740   4.3997490   8.9095820
  39.7479140   5.7439940   8.8807590  45.5864090   1.8880360   3.7921480
  45.9534220   1.4138930   4.5382820  45.3969150   2.7621930   4.1329820
  52.6633230   4.1315350   2.4998930  53.3832350   4.6270640   2.1095040
  52.4615050   3.4533240   1.8552800  48.0452030   4.2024410   8.3867930
  47.9789340   3.2820080   8.1325520  47.4157170   4.2999850   9.1012570
  42.6340310   2.2275980  10.1416600  42.3340450   2.3733160   9.2444420
  43.4051550   1.6681270  10.0489990  47.9768760   7.0244980   8.1371730
  47.9913300   6.0925940   7.9190640  47.2693860   7.1104740   8.7761500
  54.1879970   3.6652320   7.4840310  53.4628160   4.2581100   7.2869700
  54.7155430   3.6575860   6.6853680  47.4102660   8.6662550   5.2312230
  48.0544880   8.8721930   5.9085650  47.7732100   7.9050950   4.7783080
  48.6834740   6.6694900   3.9489680  49.3256970   5.9688060   4.0621850
  49.2084090   7.4493340   3.7686570  50.4572360   7.4689800   7.1525740
  50.7928600   8.0556490   7.8303660  49.5372700   7.3382510   7.3823530
  38.2948350   9.2465240   8.9215680  38.4039470   8.3059980   8.7811070
  37.6428910   9.5119990   8.2729410  46.2860940   7.5181130  10.3213800
  45.9657810   6.7990370  10.8659490  45.6119300   8.1936200  10.3949860
  40.4406790  10.3134150  10.7335290  41.2419520  10.6346200  11.1470690
  39.9258610   9.9529730  11.4555200  49.2771420   6.4214020  10.6810700
  48.6709580   6.4445620   9.9406450  48.9725530   5.6897060  11.2177950
  50.7071790  10.1494310   9.2920110  51.6593540  10.0652330   9.2420350
  50.5600010  10.8136020   9.9653900  38.1604600   2.8007610   9.6771340
  38.6643620   2.2214890  10.2487570  37.4212020   3.0847840  10.2147710
  45.2142540   4.2078600   9.2106860  44.4488210   4.7763600   9.1261530
  45.3958500   3.9154810   8.3175090  52.3565890   5.9383930   9.7681880
  53.0975360   6.2759690   9.2649340  51.5938570   6.1075990   9.2151650
  51.0311550   3.9898760   8.3037090  51.4452570   4.1443840   9.1527510
  50.0962550   4.1153980   8.4662870  45.7926780   3.9419240   6.2733020
  46.2114890   4.7851970   6.1009260  44.8735410   4.0791280   6.0439800
  50.4678580   2.2272610   6.2333370  49.9413800   2.7515230   5.6298510
  50.8109920   2.8600000   6.8643100  43.6434200  10.2472250   7.3890750
  43.1055290  10.9718310   7.0699450  43.8968160   9.7702590   6.5988090
  46.4996410  11.4823460   7.6477400  46.4255110  12.3858600   7.9549770
  45.5975250  11.1635360   7.6199470  38.3913910   9.6768640   3.6892650
  37.9544900   9.8569440   4.5216800  38.9591590  10.4343260   3.5474370
  54.0276090   9.1785640   7.9769960  53.4278080   9.2378200   7.2333880
  54.1569990   8.2390620   8.1066810  52.7127730   5.9037620   6.0746120
  51.8987570   6.3334780   6.3371910  53.1201930   6.5156030   5.4615170
  39.2614270   2.5741440   4.5884870  39.6287310   2.4868840   5.4680890
  38.6925090   1.8107990   4.4891730  40.6766350   7.0874130   9.7505020
  40.6335980   6.7167040  10.6319480  40.8077360   8.0251700   9.8906840
  44.3772380   8.6433720   5.3514740  44.1363740   8.9108280   4.4645260
  45.3175020   8.8139450   5.4065600  55.6376540  10.6628100   6.1525380
  55.1434820  11.0596970   5.4352510  55.0289830  10.0377310   6.5462660
  40.5154380  10.0336380   6.8702800  39.9214700   9.9021080   7.6092840
  40.5078220   9.1974520   6.4044900  53.3215990  11.3051520   3.4312120
  52.8618960  12.0567330   3.0570140  52.6928450  10.5857990   3.3726920
  40.1466610   7.3994760   5.8210840  39.4200670   6.7800050   5.7536790
  40.2075760   7.7935370   4.9508920  43.7511710   9.6139760   2.6060250
  44.2676730   9.0027120   2.0808510  44.4009090  10.1168540   3.0971260
  46.4907210  10.5048250   3.4329230  46.7785020  10.2502550   2.5562240
  47.0030430   9.9525610   4.0234800  46.5579570  11.4264350  10.7997430
  47.4846880  11.1908620  10.8433390  46.5430000  12.2536350  10.3183460
  53.1257130  10.6534210  10.6238470  53.9182450  10.1583440  10.4164430
  53.4190280  11.3324350  11.2314080  30.4773300  57.8485620  56.6028480
  30.3967350  56.9340230  56.3320190  30.0637720  58.3452690  55.8968190
  21.0349120  54.8986340  53.1455900  20.1465820  55.2402310  53.0435780
  21.3190310  54.6986660  52.2536730  23.2110510  53.4817840  54.1794280
  23.3177260  54.3821570  54.4863040  22.3002870  53.4335810  53.8888930
  32.8629620  52.6042650  55.6505180  33.6839240  52.1139220  55.6930660
  32.8963700  53.1940310  56.4037020  26.6997560  50.2895000  57.1097920
  27.0072540  49.7341890  56.3933420  25.7698260  50.4239460  56.9270910
  29.0878320  58.3543830  53.8458040  28.1607600  58.2881210  54.0746510
  29.2403140  59.2923960  53.7313280  29.0747400  54.6260830  50.8425200
  28.1351070  54.7874790  50.9277660  29.3930660  55.3446510  50.2961190
  24.6934960  58.8808570  56.6277770  24.2891960  58.1685820  56.1323670
  24.7798080  58.5361810  57.5165810  34.8757450  50.4093750  49.6707080
  34.5630110  50.5020580  50.5706150  35.6369920  50.9874780  49.6204510
  21.3939590  57.7753550  54.1284420  21.2737190  58.5015640  53.5165690
  21.0840480  57.0056460  53.6512330  23.8603250  51.1188620  57.5108090
  23.4171400  51.8998160  57.1792610  24.4188240  51.4418510  58.2179030
  26.9762070  50.7399320  52.3913920  26.3516250  50.7359190  53.1167230
  26.8892190  49.8730280  51.9949890  23.6517470  56.2422190  55.2389340
  23.4258390  56.0259360  56.1435960  22.8710000  56.6750650  54.8935310
  30.8815230  56.2485560  53.8379990  30.2824120  56.9721360  53.6543610
  31.4294840  56.1862340  53.0556440  29.4880100  54.8849100  55.8683270
  29.8809670  55.2021300  55.0551960  29.8496950  54.0060980  55.9827790
  18.7114500  55.4170020  49.3016190  18.6289170  56.3600780  49.4431180
  18.3597560  55.2744930  48.4228540  26.5112630  54.1509050  58.3686540
  26.5148690  53.7099000  57.5191080  27.4063750  54.4726380  58.4758360
  22.3615010  54.0335540  57.3280750  22.0215060  54.5110770  58.0847800
  21.5992330  53.5800660  56.9681850  26.5732780  55.1521130  51.3593300
  26.6945600  55.1107610  52.3079120  26.1881290  56.0145280  51.2040030
  25.5854280  57.4622270  50.7576600  25.0171180  57.0140520  50.1312510
  26.2943280  57.8215050  50.2241750  19.6761090  52.9554520  56.2445420
  19.3908010  52.5910190  57.0824040  19.6139950  52.2234980  55.6308560
  29.3499680  51.8483780  52.9658790  28.5364290  51.3496950  52.8904100
  29.1561630  52.6882030  52.5495140  32.0648070  56.2203430  51.2620950
  32.9527690  56.5320660  51.0872290  32.0353160  55.3475680  50.8701530
  34.3362340  57.5315270  50.7300810  34.2526060  57.9629490  49.8797250
  35.0556530  57.9913620  51.1627630  19.1691750  58.0913470  50.2042120
  20.0386600  58.3738270  50.4878040  18.6782070  58.9049340  50.0890930
  22.2338340  49.8224330  54.7972920  22.1052970  49.8142230  55.7457840
  21.4100360  50.1607420  54.4463930  34.0933080  53.0294700  52.8168630
  33.4646240  53.1340370  52.1026860  33.5985000  53.2491480  53.6062510
  26.0617110  55.3080650  54.2326510  25.3533260  55.7766990  54.6740120
  26.3461590  54.6502660  54.8671700  30.0932540  52.0331310  55.6722300
  29.9700320  52.0517440  54.7231810  31.0417100  52.0810250  55.7920700
  24.2652130  53.6165730  51.6077220  25.1142660  54.0535880  51.5417410
  23.8983400  53.9285990  52.4349280  33.1861910  58.1878490  56.5208790
  32.2452050  58.2028720  56.6956480  33.5005980  57.4014450  56.9669090
  21.8590310  57.3023160  50.7645640  21.9393900  56.3550670  50.8763040
  22.7510060  57.6330040  50.8706300  27.7090220  58.8900830  49.3032490
  28.2295880  58.1749850  48.9373640  28.3558620  59.5286700  49.6033000
  24.0921480  55.9396450  49.0013550  23.8910540  55.0763810  49.3626890
  23.9213530  55.8529810  48.0635150  31.5709790  50.7504680  51.5300430
  31.8512080  49.9072580  51.8859850  30.7975520  50.9827790  52.0439180
  22.8904280  53.0397070  48.9891430  23.1930180  53.0464500  48.0810580
  23.6298870  52.6894930  49.4859090  26.1089210  51.9831690  49.9747630
  25.7611210  51.3055680  49.3950080  26.3101980  51.5221200  50.7891020
  19.4494850  58.5119340  56.3712000  18.7943690  58.2430980  55.7271700
  20.2872800  58.4023820  55.9213980  32.3985290  53.3060630  50.5930490
  32.8170170  53.1191610  49.7527150  32.0921350  52.4539680  50.9033420
  35.8975020  58.2184770  54.2906290  35.5218620  57.4512700  53.8587580
  35.1678140  58.6007470  54.7781220  18.6632930  55.7218270  52.3137330
  17.7597010  55.9848470  52.1388990  19.1473550  55.9929440  51.5337290
  35.1725980  56.4442260  57.5913530  35.6963460  55.9504910  56.9603700
  35.7585400  56.5792620  58.3361100  21.2060140  54.7783810  50.2231710
  21.9151840  54.3567030  49.7378990  20.4900080  54.8459040  49.5915060
  20.8534300  50.8323140  49.2634360  21.5762430  51.3732080  49.5815580
  21.1258820  50.5586560  48.3875900  34.6625950  55.7015610  53.5305940
  35.1585070  55.4686480  54.3154820  34.4642020  54.8627450  53.1143580
  36.0913110  54.3376560  56.0643620  35.9812390  54.1832600  57.0025890
  36.8520700  53.8097500  55.8219030  36.9803380  52.1684480  49.3049760
  37.9052690  52.0365660  49.0968050  36.9579170  52.2477300  50.2586210
  37.0541870  52.9395140  51.9306470  36.2593370  52.8740260  52.4599380
  37.2585150  53.8745780  51.9191820  33.4861800  51.2692020  58.3805300
  33.9269890  51.2137120  57.5326900  33.2169390  52.1850030  58.4515480
  35.3500370  50.9007260  56.3914120  35.2888770  49.9568480  56.2445140
  36.1292400  51.0087350  56.9367580  20.2781140  50.8716400  52.8569930
  21.0360500  50.9845280  52.2833960  19.8158310  51.7085600  52.8113360
  26.8194950  52.9855670  55.8472240  26.0069460  52.6112560  55.5068120
  27.3236590  52.2300750  56.1493430  31.3219930  49.6498120  57.0855310
  31.9249300  50.2218330  57.5603830  30.5812920  50.2137560  56.8629210
  34.4654530  50.0519680  52.3595590  34.6605160  50.9503130  52.6263020
  33.6784400  49.8206760  52.8528540  22.6506290  51.3980450  51.3971900
  23.1799050  50.6110250  51.2679850  23.2834610  52.0771640  51.6307430
  24.8444130  51.1355590  54.4517290  24.2146870  50.4342900  54.6187420
  24.3049270  51.8959720  54.2350450  30.4773300  57.8485620  37.8284990
  30.3967350  56.9340230  37.5576700  30.0637720  58.3452690  37.1224700
  28.6091340  59.6264640  39.7094260  27.8333440  59.1465080  39.9992830
  29.2604270  58.9470290  39.5350420  21.0349120  54.8986340  34.3712410
  20.1465820  55.2402310  34.2692290  21.3190310  54.6986660  33.4793240
  18.9982130  57.4991990  40.2552110  19.5698240  56.7314190  40.2555750
  18.9983670  57.7980750  39.3458720  20.2407000  52.9076350  42.0421040
  20.0609840  52.0102100  42.3223800  19.8387080  53.4548220  42.7167990
  29.0805500  55.1092210  39.9433350  29.4570320  54.2364090  39.8307020
  28.9825010  55.4450910  39.0523790  23.2110510  53.4817840  35.4050790
  23.3177260  54.3821570  35.7119550  22.3002870  53.4335810  35.1145440
  32.8629620  52.6042650  36.8761690  33.6839240  52.1139220  36.9187170
  32.8963700  53.1940310  37.6293530  20.8593670  55.4036850  40.6503380
  21.5403780  55.6675220  41.2690780  20.5441720  54.5637720  40.9841390
  25.0518240  56.4504210  39.7375970  25.5596460  56.9485180  40.3780990
  25.5831480  55.6739410  39.5615330  37.1529170  54.6209400  43.4405320
  36.4481340  55.0091110  42.9220430  37.4187090  55.3159690  44.0426250
  23.3354340  51.0902770  44.0039390  23.3372780  51.6075160  43.1985290
  22.5058650  50.6132950  43.9809320  33.0991100  54.5443030  39.6489230
  32.3946670  54.8327920  40.2292340  33.4603260  55.3543140  39.2888790
  23.0169670  52.8012730  42.0109840  23.3586480  53.6454780  41.7163710
  22.0785480  52.9496470  42.1275180  36.1678020  53.9897820  40.0398440
  35.2202930  54.0236800  40.1713870  36.4928010  54.8036770  40.4247800
  26.6997560  50.2895000  38.3354430  27.0072540  49.7341890  37.6189930
  25.7698260  50.4239460  38.1527420  29.0878320  58.3543830  35.0714550
  28.1607600  58.2881210  35.3003020  29.2403140  59.2923960  34.9569790
  29.0747400  54.6260830  32.0681710  28.1351070  54.7874790  32.1534170
  29.3930660  55.3446510  31.5217700  32.5602170  56.0948670  42.9915610
  32.1473350  56.9202380  43.2455600  31.8278120  55.5093710  42.7991970
  24.6934960  58.8808570  37.8534280  24.2891960  58.1685820  37.3580180
  24.7798080  58.5361810  38.7422320  23.4063580  55.6551780  41.6333320
  23.9578170  55.7647120  40.8586570  23.9207090  56.0289380  42.3488550
  34.8757450  50.4093750  30.8963590  34.5630110  50.5020580  31.7962660
  35.6369920  50.9874780  30.8461020  21.3939590  57.7753550  35.3540930
  21.2737190  58.5015640  34.7422200  21.0840480  57.0056460  34.8768840
  36.0858740  55.1465250  46.8737730  35.4703010  55.6544920  46.3453190
  35.7655160  54.2463580  46.8163670  23.8603250  51.1188620  38.7364600
  23.4171400  51.8998160  38.4049120  24.4188240  51.4418510  39.4435540
  28.1473060  53.9857140  44.3399920  27.6852430  54.1940160  45.1519860
  27.7451170  53.1716490  44.0370590  33.1477570  55.2066090  45.4696580
  32.2971160  54.9071840  45.7905650  32.9879360  55.4508100  44.5580400
  30.2427280  56.7067840  47.5695370  30.5680690  55.8731590  47.2297600
  31.0307610  57.2296360  47.7173700  26.9762070  50.7399320  33.6170430
  26.3516250  50.7359190  34.3423740  26.8892190  49.8730280  33.2206400
  25.8979150  51.6635950  40.5954200  26.1951480  52.5698780  40.5146220
  26.4464710  51.1754730  39.9813770  23.6517470  56.2422190  36.4645850
  23.4258390  56.0259360  37.3692470  22.8710000  56.6750650  36.1191820
  30.8815230  56.2485560  35.0636500  30.2824120  56.9721360  34.8800120
  31.4294840  56.1862340  34.2812950  26.0916680  57.1407770  47.1306120
  25.9960280  56.2002500  46.9806520  26.9348660  57.3622840  46.7354190
  29.4880100  54.8849100  37.0939780  29.8809670  55.2021300  36.2808470
  29.8496950  54.0060980  37.2084300  21.2227220  53.5521440  45.2839900
  20.8290610  54.3996650  45.4912680  20.5345620  52.9147810  45.4748540
  27.7972270  53.6356410  48.3536640  27.1070590  53.4428610  48.9882730
  28.5404570  53.9191050  48.8860940  18.5244270  51.4749900  39.3169980
  18.2357320  52.0452760  40.0294960  19.2690030  50.9954350  39.6801210
  18.7114500  55.4170020  30.5272700  18.6289170  56.3600780  30.6687690
  18.3597560  55.2744930  29.6485050  30.0735240  57.4754850  41.1890560
  29.3416360  57.9841660  41.5380660  29.6759580  56.6584830  40.8879340
  26.5112630  54.1509050  39.5943050  26.5148690  53.7099000  38.7447590
  27.4063750  54.4726380  39.7014870  22.3615010  54.0335540  38.5537260
  22.0215060  54.5110770  39.3104310  21.5992330  53.5800660  38.1938360
  26.5732780  55.1521130  32.5849810  26.6945600  55.1107610  33.5335630
  26.1881290  56.0145280  32.4296540  30.5361150  52.9288530  40.6013500
  30.5533890  53.3797180  41.4455350  30.2876730  52.0294170  40.8146940
  25.5854280  57.4622270  31.9833110  25.0171180  57.0140520  31.3569020
  26.2943280  57.8215050  31.4498260  33.9631900  50.3420710  46.4399880
  34.2877670  49.6110370  46.9657860  33.9988410  50.0234350  45.5380870
  26.8120600  58.2110830  41.3408460  27.1790730  57.7369400  42.0869800
  26.6225660  59.0852400  41.6816800  19.6761090  52.9554520  37.4701930
  19.3908010  52.5910190  38.3080550  19.6139950  52.2234980  36.8565070
  24.6019970  57.2519470  43.6592670  24.2977040  58.1311450  43.8843030
  25.5566430  57.3119260  43.6950110  29.3499680  51.8483780  34.1915300
  28.5364290  51.3496950  34.1160610  29.1561630  52.6882030  33.7751650
  32.0648070  56.2203430  32.4877460  32.9527690  56.5320660  32.3128800
  32.0353160  55.3475680  32.0958040  20.6583700  58.0922210  44.8064030
  20.2998640  58.7576060  45.3937370  20.3638260  57.2605760  45.1776650
  23.8596820  58.5506450  47.6903580  23.5596960  58.6963630  46.7931400
  24.6308060  57.9911740  47.5976970  34.3362340  57.5315270  31.9557320
  34.2526060  57.9629490  31.1053760  35.0556530  57.9913620  32.3884140
  19.1691750  58.0913470  31.4298630  20.0386600  58.3738270  31.7134550
  18.6782070  58.9049340  31.3147440  22.2338340  49.8224330  36.0229430
  22.1052970  49.8142230  36.9714350  21.4100360  50.1607420  35.6720440
  19.2332270  51.5815450  45.4836130  18.5190790  51.7812370  46.0888740
  19.6527310  50.8055020  45.8550930  30.7271050  54.0737760  43.2337580
  31.0951870  53.2532970  43.5617150  29.8669250  54.1339650  43.6493230
  34.0933080  53.0294700  34.0425140  33.4646240  53.1340370  33.3283370
  33.5985000  53.2491480  34.8319020  26.0617110  55.3080650  35.4583020
  25.3533260  55.7766990  35.8996630  26.3461590  54.6502660  36.0928210
  27.6873040  56.7277350  43.4575550  28.1858290  57.2023170  44.1227400
  27.8295990  55.8040870  43.6645580  30.0932540  52.0331310  36.8978810
  29.9700320  52.0517440  35.9488320  31.0417100  52.0810250  37.0177210
  24.2652130  53.6165730  32.8333730  25.1142660  54.0535880  32.7673920
  23.8983400  53.9285990  33.6605790  34.8939900  52.9445310  44.3003940
  34.3913500  53.6850710  44.6397750  35.7096560  53.3329310  43.9840730
  33.1861910  58.1878490  37.7465300  32.2452050  58.2028720  37.9212990
  33.5005980  57.4014450  38.1925600  21.8590310  57.3023160  31.9902150
  21.9393900  56.3550670  32.1019550  22.7510060  57.6330040  32.0962810
  19.3861110  59.1238080  47.2258320  19.8900130  58.5445360  47.7974550
  18.6468530  59.4078310  47.7634690  21.4184190  57.2667670  48.1208390
  21.4589530  56.9681540  49.0293620  22.2729690  57.6675280  47.9615910
  23.3590000  55.8459770  46.0882880  22.8286460  55.3550720  45.4606220
  24.0278070  56.2743970  45.5540810  27.7090220  58.8900830  30.5289000
  28.2295880  58.1749850  30.1630150  28.3558620  59.5286700  30.8289510
  32.7290230  57.6525390  47.8563220  33.3111000  56.8977710  47.7683700
  32.9052000  58.1832830  47.0794700  23.8462300  52.8122140  46.1680170
  23.7519170  52.1942890  45.4431040  23.2659690  53.5388430  45.9410080
  26.6123740  51.3695380  43.2007560  26.1641040  51.3919640  42.3553110
  25.9788940  50.9714400  43.7977860  29.3547190  57.9965890  45.2057840
  29.4743400  57.4007030  45.9452680  30.2141190  58.0335580  44.7859140
  31.6935090  58.5503080  43.7820350  31.1670310  59.0745700  43.1785490
  32.0366430  59.1830470  44.4130080  24.0921480  55.9396450  30.2270060
  23.8910540  55.0763810  30.5883400  23.9213530  55.8529810  29.2891660
  26.1215960  54.5387240  46.4633660  26.7115650  54.2303090  47.1511480
  25.3036200  54.0666990  46.6193560  30.9409390  54.1553050  46.6966680
  30.2524910  53.4934590  46.6316670  31.6615410  53.7091320  47.1415140
  31.5709790  50.7504680  32.7556940  31.8512080  49.9072580  33.1116360
  30.7975520  50.9827790  33.2695690  22.8904280  53.0397070  30.2147940
  23.1930180  53.0464500  29.3067090  23.6298870  52.6894930  30.7115600
  26.1089210  51.9831690  31.2004140  25.7611210  51.3055680  30.6206590
  26.3101980  51.5221200  32.0147530  19.4494850  58.5119340  37.5968510
  18.7943690  58.2430980  36.9528210  20.2872800  58.4023820  37.1470490
  32.3985290  53.3060630  31.8187000  32.8170170  53.1191610  30.9783660
  32.0921350  52.4539680  32.1289930  35.8975020  58.2184770  35.5162800
  35.5218620  57.4512700  35.0844090  35.1678140  58.6007470  36.0037730
  20.4870780  58.8971910  42.1371850  20.8543820  58.8099310  43.0167870
  19.9181600  58.1338460  42.0378710  35.2874640  57.3656290  45.1502320
  35.0560730  57.1369040  44.2500270  35.5479190  58.2855840  45.1047210
  20.0386780  55.8081000  46.0430270  19.1442830  55.7747760  46.3823980
  20.5784330  56.0067790  46.8081520  33.7262710  52.5912720  47.9282020
  34.6032890  52.5996120  48.3116020  33.7383550  51.8543560  47.3174370
  18.6632930  55.7218270  33.5393840  17.7597010  55.9848470  33.3645500
  19.1473550  55.9929440  32.7593800  35.1725980  56.4442260  38.8170040
  35.6963460  55.9504910  38.1860210  35.7585400  56.5792620  39.5617610
  35.3515700  56.5282130  42.3389590  34.4018410  56.4945670  42.4534580
  35.5328710  57.4382240  42.1039360  21.2060140  54.7783810  31.4488220
  21.9151840  54.3567030  30.9635500  20.4900080  54.8459040  30.8171570
  20.8534300  50.8323140  30.4890870  21.5762430  51.3732080  30.8072090
  21.1258820  50.5586560  29.6132410  34.6625950  55.7015610  34.7562450
  35.1585070  55.4686480  35.5411330  34.4642020  54.8627450  34.3400090
  20.5426490  50.0829330  40.3913490  21.1902680  49.5326710  39.9508650
  20.9628330  50.3372480  41.2129300  36.0913110  54.3376560  37.2900130
  35.9812390  54.1832600  38.2282400  36.8520700  53.8097500  37.0475540
  34.4378830  50.2770690  43.7483130  35.0751050  50.8904830  44.1142320
  34.5853720  50.3131350  42.8032360  36.9803380  52.1684480  30.5306270
  37.9052690  52.0365660  30.3224560  36.9579170  52.2477300  31.4842720
  37.0541870  52.9395140  33.1562980  36.2593370  52.8740260  33.6855890
  37.2585150  53.8745780  33.1448330  20.2958490  50.2385000  43.1338810
  19.9473310  50.6948820  43.8996990  19.9646190  49.3442130  43.2161240
  27.8083310  51.4296880  46.6558230  27.7472200  52.0218710  47.4053640
  28.7483690  51.3222840  46.5108490  30.4457870  51.0866940  46.2950520
  31.0598280  51.4046230  45.6331600  30.9907430  50.6015530  46.9146380
  20.9679130  49.7661200  46.4089580  21.5162120  49.5849250  45.6455690
  21.0334440  48.9755310  46.9445890  31.1865910  49.6499080  42.6219810
  30.3125750  49.9834190  42.4192740  31.0776660  49.1772260  43.4471680
  32.0937890  51.8569950  44.0061530  31.7651250  51.0421710  43.6263260
  33.0420190  51.8139760  43.8827220  28.9340730  50.5668920  41.5612720
  28.1512520  51.0414420  41.8409480  28.6403660  49.6623750  41.4525900
  33.4861800  51.2692020  39.6061810  33.9269890  51.2137120  38.7583410
  33.2169390  52.1850030  39.6771990  35.3500370  50.9007260  37.6170630
  35.2888770  49.9568480  37.4701650  36.1292400  51.0087350  38.1624090
  20.2781140  50.8716400  34.0826440  21.0360500  50.9845280  33.5090470
  19.8158310  51.7085600  34.0369870  26.8194950  52.9855670  37.0728750
  26.0069460  52.6112560  36.7324630  27.3236590  52.2300750  37.3749940
  31.3219930  49.6498120  38.3111820  31.9249300  50.2218330  38.7860340
  30.5812920  50.2137560  38.0885720  34.4654530  50.0519680  33.5852100
  34.6605160  50.9503130  33.8519530  33.6784400  49.8206760  34.0785050
  22.6506290  51.3980450  32.6228410  23.1799050  50.6110250  32.4936360
  23.2834610  52.0771640  32.8563940  24.8444130  51.1355590  35.6773800
  24.2146870  50.4342900  35.8443930  24.3049270  51.8959720  35.4606960
  24.9699690  50.4139570  48.1126290  24.6883960  50.9173170  47.3487110
  25.3519390  49.6161320  47.7468420  31.5715150  49.8293150  48.6906760
  31.4580600  50.1487760  49.5858280  32.3884890  50.2305660  48.3944040
  30.4773300  57.8485620  19.0541500  30.3967350  56.9340230  18.7833210
  30.0637720  58.3452690  18.3481210  28.6091340  59.6264640  20.9350770
  27.8333440  59.1465080  21.2249340  29.2604270  58.9470290  20.7606930
  21.0349120  54.8986340  15.5968920  20.1465820  55.2402310  15.4948800
  21.3190310  54.6986660  14.7049750  18.9982130  57.4991990  21.4808620
  19.5698240  56.7314190  21.4812260  18.9983670  57.7980750  20.5715230
  20.2407000  52.9076350  23.2677550  20.0609840  52.0102100  23.5480310
  19.8387080  53.4548220  23.9424500  29.0805500  55.1092210  21.1689860
  29.4570320  54.2364090  21.0563530  28.9825010  55.4450910  20.2780300
  23.2110510  53.4817840  16.6307300  23.3177260  54.3821570  16.9376060
  22.3002870  53.4335810  16.3401950  32.8629620  52.6042650  18.1018200
  33.6839240  52.1139220  18.1443680  32.8963700  53.1940310  18.8550040
  20.8593670  55.4036850  21.8759890  21.5403780  55.6675220  22.4947290
  20.5441720  54.5637720  22.2097900  25.0518240  56.4504210  20.9632480
  25.5596460  56.9485180  21.6037500  25.5831480  55.6739410  20.7871840
  37.1529170  54.6209400  24.6661830  36.4481340  55.0091110  24.1476940
  37.4187090  55.3159690  25.2682760  23.3354340  51.0902770  25.2295900
  23.3372780  51.6075160  24.4241800  22.5058650  50.6132950  25.2065830
  33.0991100  54.5443030  20.8745740  32.3946670  54.8327920  21.4548850
  33.4603260  55.3543140  20.5145300  23.0169670  52.8012730  23.2366350
  23.3586480  53.6454780  22.9420220  22.0785480  52.9496470  23.3531690
  36.1678020  53.9897820  21.2654950  35.2202930  54.0236800  21.3970380
  36.4928010  54.8036770  21.6504310  26.6997560  50.2895000  19.5610940
  27.0072540  49.7341890  18.8446440  25.7698260  50.4239460  19.3783930
  29.0878320  58.3543830  16.2971060  28.1607600  58.2881210  16.5259530
  29.2403140  59.2923960  16.1826300  29.0747400  54.6260830  13.2938220
  28.1351070  54.7874790  13.3790680  29.3930660  55.3446510  12.7474210
  32.5602170  56.0948670  24.2172120  32.1473350  56.9202380  24.4712110
  31.8278120  55.5093710  24.0248480  24.6934960  58.8808570  19.0790790
  24.2891960  58.1685820  18.5836690  24.7798080  58.5361810  19.9678830
  23.4063580  55.6551780  22.8589830  23.9578170  55.7647120  22.0843080
  23.9207090  56.0289380  23.5745060  34.8757450  50.4093750  12.1220100
  34.5630110  50.5020580  13.0219170  35.6369920  50.9874780  12.0717530
  21.3939590  57.7753550  16.5797440  21.2737190  58.5015640  15.9678710
  21.0840480  57.0056460  16.1025350  36.0858740  55.1465250  28.0994240
  35.4703010  55.6544920  27.5709700  35.7655160  54.2463580  28.0420180
  23.8603250  51.1188620  19.9621110  23.4171400  51.8998160  19.6305630
  24.4188240  51.4418510  20.6692050  28.1473060  53.9857140  25.5656430
  27.6852430  54.1940160  26.3776370  27.7451170  53.1716490  25.2627100
  33.1477570  55.2066090  26.6953090  32.2971160  54.9071840  27.0162160
  32.9879360  55.4508100  25.7836910  30.2427280  56.7067840  28.7951880
  30.5680690  55.8731590  28.4554110  31.0307610  57.2296360  28.9430210
  26.9762070  50.7399320  14.8426940  26.3516250  50.7359190  15.5680250
  26.8892190  49.8730280  14.4462910  25.8979150  51.6635950  21.8210710
  26.1951480  52.5698780  21.7402730  26.4464710  51.1754730  21.2070280
  23.6517470  56.2422190  17.6902360  23.4258390  56.0259360  18.5948980
  22.8710000  56.6750650  17.3448330  30.8815230  56.2485560  16.2893010
  30.2824120  56.9721360  16.1056630  31.4294840  56.1862340  15.5069460
  26.0916680  57.1407770  28.3562630  25.9960280  56.2002500  28.2063030
  26.9348660  57.3622840  27.9610700  29.4880100  54.8849100  18.3196290
  29.8809670  55.2021300  17.5064980  29.8496950  54.0060980  18.4340810
  21.2227220  53.5521440  26.5096410  20.8290610  54.3996650  26.7169190
  20.5345620  52.9147810  26.7005050  27.7972270  53.6356410  29.5793150
  27.1070590  53.4428610  30.2139240  28.5404570  53.9191050  30.1117450
  18.5244270  51.4749900  20.5426490  18.2357320  52.0452760  21.2551470
  19.2690030  50.9954350  20.9057720  18.7114500  55.4170020  11.7529210
  18.6289170  56.3600780  11.8944200  18.3597560  55.2744930  10.8741560
  30.0735240  57.4754850  22.4147070  29.3416360  57.9841660  22.7637170
  29.6759580  56.6584830  22.1135850  26.5112630  54.1509050  20.8199560
  26.5148690  53.7099000  19.9704100  27.4063750  54.4726380  20.9271380
  22.3615010  54.0335540  19.7793770  22.0215060  54.5110770  20.5360820
  21.5992330  53.5800660  19.4194870  26.5732780  55.1521130  13.8106320
  26.6945600  55.1107610  14.7592140  26.1881290  56.0145280  13.6553050
  30.5361150  52.9288530  21.8270010  30.5533890  53.3797180  22.6711860
  30.2876730  52.0294170  22.0403450  25.5854280  57.4622270  13.2089620
  25.0171180  57.0140520  12.5825530  26.2943280  57.8215050  12.6754770
  33.9631900  50.3420710  27.6656390  34.2877670  49.6110370  28.1914370
  33.9988410  50.0234350  26.7637380  26.8120600  58.2110830  22.5664970
  27.1790730  57.7369400  23.3126310  26.6225660  59.0852400  22.9073310
  19.6761090  52.9554520  18.6958440  19.3908010  52.5910190  19.5337060
  19.6139950  52.2234980  18.0821580  24.6019970  57.2519470  24.8849180
  24.2977040  58.1311450  25.1099540  25.5566430  57.3119260  24.9206620
  29.3499680  51.8483780  15.4171810  28.5364290  51.3496950  15.3417120
  29.1561630  52.6882030  15.0008160  32.0648070  56.2203430  13.7133970
  32.9527690  56.5320660  13.5385310  32.0353160  55.3475680  13.3214550
  20.6583700  58.0922210  26.0320540  20.2998640  58.7576060  26.6193880
  20.3638260  57.2605760  26.4033160  23.8596820  58.5506450  28.9160090
  23.5596960  58.6963630  28.0187910  24.6308060  57.9911740  28.8233480
  34.3362340  57.5315270  13.1813830  34.2526060  57.9629490  12.3310270
  35.0556530  57.9913620  13.6140650  19.1691750  58.0913470  12.6555140
  20.0386600  58.3738270  12.9391060  18.6782070  58.9049340  12.5403950
  22.2338340  49.8224330  17.2485940  22.1052970  49.8142230  18.1970860
  21.4100360  50.1607420  16.8976950  19.2332270  51.5815450  26.7092640
  18.5190790  51.7812370  27.3145250  19.6527310  50.8055020  27.0807440
  30.7271050  54.0737760  24.4594090  31.0951870  53.2532970  24.7873660
  29.8669250  54.1339650  24.8749740  34.0933080  53.0294700  15.2681650
  33.4646240  53.1340370  14.5539880  33.5985000  53.2491480  16.0575530
  26.0617110  55.3080650  16.6839530  25.3533260  55.7766990  17.1253140
  26.3461590  54.6502660  17.3184720  27.6873040  56.7277350  24.6832060
  28.1858290  57.2023170  25.3483910  27.8295990  55.8040870  24.8902090
  30.0932540  52.0331310  18.1235320  29.9700320  52.0517440  17.1744830
  31.0417100  52.0810250  18.2433720  24.2652130  53.6165730  14.0590240
  25.1142660  54.0535880  13.9930430  23.8983400  53.9285990  14.8862300
  34.8939900  52.9445310  25.5260450  34.3913500  53.6850710  25.8654260
  35.7096560  53.3329310  25.2097240  33.1861910  58.1878490  18.9721810
  32.2452050  58.2028720  19.1469500  33.5005980  57.4014450  19.4182110
  21.8590310  57.3023160  13.2158660  21.9393900  56.3550670  13.3276060
  22.7510060  57.6330040  13.3219320  19.3861110  59.1238080  28.4514830
  19.8900130  58.5445360  29.0231060  18.6468530  59.4078310  28.9891200
  21.4184190  57.2667670  29.3464900  21.4589530  56.9681540  30.2550130
  22.2729690  57.6675280  29.1872420  23.3590000  55.8459770  27.3139390
  22.8286460  55.3550720  26.6862730  24.0278070  56.2743970  26.7797320
  27.7090220  58.8900830  11.7545510  28.2295880  58.1749850  11.3886660
  28.3558620  59.5286700  12.0546020  32.7290230  57.6525390  29.0819730
  33.3111000  56.8977710  28.9940210  32.9052000  58.1832830  28.3051210
  23.8462300  52.8122140  27.3936680  23.7519170  52.1942890  26.6687550
  23.2659690  53.5388430  27.1666590  26.6123740  51.3695380  24.4264070
  26.1641040  51.3919640  23.5809620  25.9788940  50.9714400  25.0234370
  29.3547190  57.9965890  26.4314350  29.4743400  57.4007030  27.1709190
  30.2141190  58.0335580  26.0115650  31.6935090  58.5503080  25.0076860
  31.1670310  59.0745700  24.4042000  32.0366430  59.1830470  25.6386590
  24.0921480  55.9396450  11.4526570  23.8910540  55.0763810  11.8139910
  23.9213530  55.8529810  10.5148170  26.1215960  54.5387240  27.6890170
  26.7115650  54.2303090  28.3767990  25.3036200  54.0666990  27.8450070
  30.9409390  54.1553050  27.9223190  30.2524910  53.4934590  27.8573180
  31.6615410  53.7091320  28.3671650  31.5709790  50.7504680  13.9813450
  31.8512080  49.9072580  14.3372870  30.7975520  50.9827790  14.4952200
  22.8904280  53.0397070  11.4404450  23.1930180  53.0464500  10.5323600
  23.6298870  52.6894930  11.9372110  26.1089210  51.9831690  12.4260650
  25.7611210  51.3055680  11.8463100  26.3101980  51.5221200  13.2404040
  19.4494850  58.5119340  18.8225020  18.7943690  58.2430980  18.1784720
  20.2872800  58.4023820  18.3727000  32.3985290  53.3060630  13.0443510
  32.8170170  53.1191610  12.2040170  32.0921350  52.4539680  13.3546440
  35.8975020  58.2184770  16.7419310  35.5218620  57.4512700  16.3100600
  35.1678140  58.6007470  17.2294240  20.4870780  58.8971910  23.3628360
  20.8543820  58.8099310  24.2424380  19.9181600  58.1338460  23.2635220
  35.2874640  57.3656290  26.3758830  35.0560730  57.1369040  25.4756780
  35.5479190  58.2855840  26.3303720  20.0386780  55.8081000  27.2686780
  19.1442830  55.7747760  27.6080490  20.5784330  56.0067790  28.0338030
  33.7262710  52.5912720  29.1538530  34.6032890  52.5996120  29.5372530
  33.7383550  51.8543560  28.5430880  18.6632930  55.7218270  14.7650350
  17.7597010  55.9848470  14.5902010  19.1473550  55.9929440  13.9850310
  35.1725980  56.4442260  20.0426550  35.6963460  55.9504910  19.4116720
  35.7585400  56.5792620  20.7874120  35.3515700  56.5282130  23.5646100
  34.4018410  56.4945670  23.6791090  35.5328710  57.4382240  23.3295870
  21.2060140  54.7783810  12.6744730  21.9151840  54.3567030  12.1892010
  20.4900080  54.8459040  12.0428080  20.8534300  50.8323140  11.7147380
  21.5762430  51.3732080  12.0328600  21.1258820  50.5586560  10.8388920
  34.6625950  55.7015610  15.9818960  35.1585070  55.4686480  16.7667840
  34.4642020  54.8627450  15.5656600  20.5426490  50.0829330  21.6170000
  21.1902680  49.5326710  21.1765160  20.9628330  50.3372480  22.4385810
  36.0913110  54.3376560  18.5156640  35.9812390  54.1832600  19.4538910
  36.8520700  53.8097500  18.2732050  34.4378830  50.2770690  24.9739640
  35.0751050  50.8904830  25.3398830  34.5853720  50.3131350  24.0288870
  36.9803380  52.1684480  11.7562780  37.9052690  52.0365660  11.5481070
  36.9579170  52.2477300  12.7099230  37.0541870  52.9395140  14.3819490
  36.2593370  52.8740260  14.9112400  37.2585150  53.8745780  14.3704840
  20.2958490  50.2385000  24.3595320  19.9473310  50.6948820  25.1253500
  19.9646190  49.3442130  24.4417750  27.8083310  51.4296880  27.8814740
  27.7472200  52.0218710  28.6310150  28.7483690  51.3222840  27.7365000
  30.4457870  51.0866940  27.5207030  31.0598280  51.4046230  26.8588110
  30.9907430  50.6015530  28.1402890  20.9679130  49.7661200  27.6346090
  21.5162120  49.5849250  26.8712200  21.0334440  48.9755310  28.1702400
  31.1865910  49.6499080  23.8476320  30.3125750  49.9834190  23.6449250
  31.0776660  49.1772260  24.6728190  32.0937890  51.8569950  25.2318040
  31.7651250  51.0421710  24.8519770  33.0420190  51.8139760  25.1083730
  28.9340730  50.5668920  22.7869230  28.1512520  51.0414420  23.0665990
  28.6403660  49.6623750  22.6782410  33.4861800  51.2692020  20.8318320
  33.9269890  51.2137120  19.9839920  33.2169390  52.1850030  20.9028500
  35.3500370  50.9007260  18.8427140  35.2888770  49.9568480  18.6958160
  36.1292400  51.0087350  19.3880600  20.2781140  50.8716400  15.3082950
  21.0360500  50.9845280  14.7346980  19.8158310  51.7085600  15.2626380
  26.8194950  52.9855670  18.2985260  26.0069460  52.6112560  17.9581140
  27.3236590  52.2300750  18.6006450  31.3219930  49.6498120  19.5368330
  31.9249300  50.2218330  20.0116850  30.5812920  50.2137560  19.3142230
  34.4654530  50.0519680  14.8108610  34.6605160  50.9503130  15.0776040
  33.6784400  49.8206760  15.3041560  22.6506290  51.3980450  13.8484920
  23.1799050  50.6110250  13.7192870  23.2834610  52.0771640  14.0820450
  24.8444130  51.1355590  16.9030310  24.2146870  50.4342900  17.0700440
  24.3049270  51.8959720  16.6863470  24.9699690  50.4139570  29.3382800
  24.6883960  50.9173170  28.5743620  25.3519390  49.6161320  28.9724930
  31.5715150  49.8293150  29.9163270  31.4580600  50.1487760  30.8114790
  32.3884890  50.2305660  29.6200550  28.6091340  59.6264640   2.1607280
  27.8333440  59.1465080   2.4505850  29.2604270  58.9470290   1.9863440
  18.9982130  57.4991990   2.7065130  19.5698240  56.7314190   2.7068770
  18.9983670  57.7980750   1.7971740  20.2407000  52.9076350   4.4934060
  20.0609840  52.0102100   4.7736820  19.8387080  53.4548220   5.1681010
  20.8593670  55.4036850   3.1016400  21.5403780  55.6675220   3.7203800
  20.5441720  54.5637720   3.4354410  25.0518240  56.4504210   2.1888990
  25.5596460  56.9485180   2.8294010  25.5831480  55.6739410   2.0128350
  37.1529170  54.6209400   5.8918340  36.4481340  55.0091110   5.3733450
  37.4187090  55.3159690   6.4939270  23.3354340  51.0902770   6.4552410
  23.3372780  51.6075160   5.6498310  22.5058650  50.6132950   6.4322340
  33.0991100  54.5443030   2.1002250  32.3946670  54.8327920   2.6805360
  33.4603260  55.3543140   1.7401810  23.0169670  52.8012730   4.4622860
  23.3586480  53.6454780   4.1676730  22.0785480  52.9496470   4.5788200
  36.1678020  53.9897820   2.4911460  35.2202930  54.0236800   2.6226890
  36.4928010  54.8036770   2.8760820  32.5602170  56.0948670   5.4428630
  32.1473350  56.9202380   5.6968620  31.8278120  55.5093710   5.2504990
  23.4063580  55.6551780   4.0846340  23.9578170  55.7647120   3.3099590
  23.9207090  56.0289380   4.8001570  36.0858740  55.1465250   9.3250750
  35.4703010  55.6544920   8.7966210  35.7655160  54.2463580   9.2676690
  28.1473060  53.9857140   6.7912940  27.6852430  54.1940160   7.6032880
  27.7451170  53.1716490   6.4883610  33.1477570  55.2066090   7.9209600
  32.2971160  54.9071840   8.2418670  32.9879360  55.4508100   7.0093420
  30.2427280  56.7067840  10.0208390  30.5680690  55.8731590   9.6810620
  31.0307610  57.2296360  10.1686720  25.8979150  51.6635950   3.0467220
  26.1951480  52.5698780   2.9659240  26.4464710  51.1754730   2.4326790
  26.0916680  57.1407770   9.5819140  25.9960280  56.2002500   9.4319540
  26.9348660  57.3622840   9.1867210  21.2227220  53.5521440   7.7352920
  20.8290610  54.3996650   7.9425700  20.5345620  52.9147810   7.9261560
  27.7972270  53.6356410  10.8049660  27.1070590  53.4428610  11.4395750
  28.5404570  53.9191050  11.3373960  18.5244270  51.4749900   1.7683000
  18.2357320  52.0452760   2.4807980  19.2690030  50.9954350   2.1314230
  30.0735240  57.4754850   3.6403580  29.3416360  57.9841660   3.9893680
  29.6759580  56.6584830   3.3392360  30.5361150  52.9288530   3.0526520
  30.5533890  53.3797180   3.8968370  30.2876730  52.0294170   3.2659960
  33.9631900  50.3420710   8.8912900  34.2877670  49.6110370   9.4170880
  33.9988410  50.0234350   7.9893890  26.8120600  58.2110830   3.7921480
  27.1790730  57.7369400   4.5382820  26.6225660  59.0852400   4.1329820
  24.6019970  57.2519470   6.1105690  24.2977040  58.1311450   6.3356050
  25.5566430  57.3119260   6.1463130  20.6583700  58.0922210   7.2577050
  20.2998640  58.7576060   7.8450390  20.3638260  57.2605760   7.6289670
  23.8596820  58.5506450  10.1416600  23.5596960  58.6963630   9.2444420
  24.6308060  57.9911740  10.0489990  19.2332270  51.5815450   7.9349150
  18.5190790  51.7812370   8.5401760  19.6527310  50.8055020   8.3063950
  30.7271050  54.0737760   5.6850600  31.0951870  53.2532970   6.0130170
  29.8669250  54.1339650   6.1006250  27.6873040  56.7277350   5.9088570
  28.1858290  57.2023170   6.5740420  27.8295990  55.8040870   6.1158600
  34.8939900  52.9445310   6.7516960  34.3913500  53.6850710   7.0910770
  35.7096560  53.3329310   6.4353750  19.3861110  59.1238080   9.6771340
  19.8900130  58.5445360  10.2487570  18.6468530  59.4078310  10.2147710
  21.4184190  57.2667670  10.5721410  21.4589530  56.9681540  11.4806640
  22.2729690  57.6675280  10.4128930  23.3590000  55.8459770   8.5395900
  22.8286460  55.3550720   7.9119240  24.0278070  56.2743970   8.0053830
  32.7290230  57.6525390  10.3076240  33.3111000  56.8977710  10.2196720
  32.9052000  58.1832830   9.5307720  23.8462300  52.8122140   8.6193190
  23.7519170  52.1942890   7.8944060  23.2659690  53.5388430   8.3923100
  26.6123740  51.3695380   5.6520580  26.1641040  51.3919640   4.8066130
  25.9788940  50.9714400   6.2490880  29.3547190  57.9965890   7.6570860
  29.4743400  57.4007030   8.3965700  30.2141190  58.0335580   7.2372160
  31.6935090  58.5503080   6.2333370  31.1670310  59.0745700   5.6298510
  32.0366430  59.1830470   6.8643100  26.1215960  54.5387240   8.9146680
  26.7115650  54.2303090   9.6024500  25.3036200  54.0666990   9.0706580
  30.9409390  54.1553050   9.1479700  30.2524910  53.4934590   9.0829690
  31.6615410  53.7091320   9.5928160  20.4870780  58.8971910   4.5884870
  20.8543820  58.8099310   5.4680890  19.9181600  58.1338460   4.4891730
  35.2874640  57.3656290   7.6015340  35.0560730  57.1369040   6.7013290
  35.5479190  58.2855840   7.5560230  20.0386780  55.8081000   8.4943290
  19.1442830  55.7747760   8.8337000  20.5784330  56.0067790   9.2594540
  33.7262710  52.5912720  10.3795040  34.6032890  52.5996120  10.7629040
  33.7383550  51.8543560   9.7687390  35.3515700  56.5282130   4.7902610
  34.4018410  56.4945670   4.9047600  35.5328710  57.4382240   4.5552380
  20.5426490  50.0829330   2.8426510  21.1902680  49.5326710   2.4021670
  20.9628330  50.3372480   3.6642320  34.4378830  50.2770690   6.1996150
  35.0751050  50.8904830   6.5655340  34.5853720  50.3131350   5.2545380
  20.2958490  50.2385000   5.5851830  19.9473310  50.6948820   6.3510010
  19.9646190  49.3442130   5.6674260  27.8083310  51.4296880   9.1071250
  27.7472200  52.0218710   9.8566660  28.7483690  51.3222840   8.9621510
  30.4457870  51.0866940   8.7463540  31.0598280  51.4046230   8.0844620
  30.9907430  50.6015530   9.3659400  20.9679130  49.7661200   8.8602600
  21.5162120  49.5849250   8.0968710  21.0334440  48.9755310   9.3958910
  31.1865910  49.6499080   5.0732830  30.3125750  49.9834190   4.8705760
  31.0776660  49.1772260   5.8984700  32.0937890  51.8569950   6.4574550
  31.7651250  51.0421710   6.0776280  33.0420190  51.8139760   6.3340240
  28.9340730  50.5668920   4.0125740  28.1512520  51.0414420   4.2922500
  28.6403660  49.6623750   3.9038920  24.9699690  50.4139570  10.5639310
  24.6883960  50.9173170   9.8000130  25.3519390  49.6161320  10.1981440
  31.5715150  49.8293150  11.1419780  31.4580600  50.1487760  12.0371300
  32.3884890  50.2305660  10.8457060  30.4773300  39.0742130  56.6028480
  30.3967350  38.1596740  56.3320190  30.0637720  39.5709200  55.8968190
  32.6298770  45.2581340  57.2636880  32.1680300  44.4868580  57.5924050
  33.4424320  45.2847410  57.7689330  21.0349120  36.1242850  53.1455900
  20.1465820  36.4658820  53.0435780  21.3190310  35.9243170  52.2536730
  28.8562080  47.5439350  56.8840870  28.2373520  47.9996850  56.3135310
  29.7113860  47.6990810  56.4830570  23.2110510  34.7074350  54.1794280
  23.3177260  35.6078080  54.4863040  22.3002870  34.6592320  53.8888930
  32.8629620  33.8299160  55.6505180  33.6839240  33.3395730  55.6930660
  32.8963700  34.4196820  56.4037020  29.7225430  42.4278590  54.2772780
  29.1042700  42.8928040  53.7135500  30.2348680  43.1206070  54.6942290
  19.0908630  43.1135120  51.6512410  18.7136610  43.6022220  50.9197310
  19.3481700  43.7860400  52.2818940  26.6997560  31.5151510  57.1097920
  27.0072540  30.9598400  56.3933420  25.7698260  31.6495970  56.9270910
  33.5458040  43.9535020  54.4895550  33.4354370  43.0109350  54.6144970
  33.5426290  44.3150660  55.3758310  29.0878320  39.5800340  53.8458040
  28.1607600  39.5137720  54.0746510  29.2403140  40.5180470  53.7313280
  29.0747400  35.8517340  50.8425200  28.1351070  36.0131300  50.9277660
  29.3930660  36.5703020  50.2961190  33.1175610  41.1420640  54.3493290
  32.4988030  40.8040190  53.7019590  33.1000060  40.4980400  55.0572480
  24.6934960  40.1065080  56.6277770  24.2891960  39.3942330  56.1323670
  24.7798080  39.7618320  57.5165810  31.2940310  40.3807450  51.3566040
  31.7333590  39.5429880  51.2103860  32.0068730  41.0136850  51.4430180
  29.4035690  45.3203520  55.3247280  29.8431600  46.0627850  54.9102670
  29.3422580  45.5630090  56.2486240  34.8757450  31.6350260  49.6707080
  34.5630110  31.7277090  50.5706150  35.6369920  32.2131290  49.6204510
  21.3939590  39.0010060  54.1284420  21.2737190  39.7272150  53.5165690
  21.0840480  38.2312970  53.6512330  20.2772590  43.8725390  56.3459240
  19.8700670  44.0139980  55.4912840  21.1685600  43.5885550  56.1430450
  32.0705870  48.3072640  52.6810290  31.9107010  48.0175580  53.5792120
  31.9052580  47.5312770  52.1455520  24.5494250  48.0871170  54.4581910
  24.3736730  47.1706710  54.2449710  23.6949990  48.4458460  54.6979710
  31.7732000  45.8160200  51.2408290  31.0797160  45.8137490  50.5810570
  32.5154860  45.3919520  50.8102460  31.3381930  47.4422910  55.3156780
  31.7938880  46.6612290  55.6295400  31.6774450  48.1529730  55.8597960
  23.8603250  32.3445130  57.5108090  23.4171400  33.1254670  57.1792610
  24.4188240  32.6675020  58.2179030  26.9762070  31.9655830  52.3913920
  26.3516250  31.9615700  53.1167230  26.8892190  31.0986790  51.9949890
  23.6517470  37.4678700  55.2389340  23.4258390  37.2515870  56.1435960
  22.8710000  37.9007160  54.8935310  30.8815230  37.4742070  53.8379990
  30.2824120  38.1977870  53.6543610  31.4294840  37.4118850  53.0556440
  29.4880100  36.1105610  55.8683270  29.8809670  36.4277810  55.0551960
  29.8496950  35.2317490  55.9827790  18.7114500  36.6426530  49.3016190
  18.6289170  37.5857290  49.4431180  18.3597560  36.5001440  48.4228540
  26.5112630  35.3765560  58.3686540  26.5148690  34.9355510  57.5191080
  27.4063750  35.6982890  58.4758360  22.3615010  35.2592050  57.3280750
  22.0215060  35.7367280  58.0847800  21.5992330  34.8057170  56.9681850
  26.5732780  36.3777640  51.3593300  26.6945600  36.3364120  52.3079120
  26.1881290  37.2401790  51.2040030  25.5854280  38.6878780  50.7576600
  25.0171180  38.2397030  50.1312510  26.2943280  39.0471560  50.2241750
  19.6761090  34.1811030  56.2445420  19.3908010  33.8166700  57.0824040
  19.6139950  33.4491490  55.6308560  23.1301760  42.6836970  53.0303010
  22.3564020  42.1434590  52.8701730  23.8596390  42.1643580  52.6920770
  29.3499680  33.0740290  52.9658790  28.5364290  32.5753460  52.8904100
  29.1561630  33.9138540  52.5495140  32.0648070  37.4459940  51.2620950
  32.9527690  37.7577170  51.0872290  32.0353160  36.5732190  50.8701530
  23.1739160  42.3517350  56.6681820  23.6917830  41.5485610  56.6138710
  22.7223180  42.2896490  57.5098650  28.0608660  43.6183630  51.9409120
  28.4024360  44.3625860  51.4452440  27.2321370  43.9314750  52.3033950
  34.3362340  38.7571780  50.7300810  34.2526060  39.1886000  49.8797250
  35.0556530  39.2170130  51.1627630  35.3649590  45.6114040  53.4582940
  34.7225750  44.9569660  53.7326660  34.9780250  46.0169130  52.6823610
  30.9436070  42.9399470  57.3054630  31.2959890  42.3427600  56.6456000
  30.0598400  42.6143700  57.4762880  27.0299350  43.6997160  54.7125040
  27.7170480  44.2466370  55.0932630  26.2431770  44.2437890  54.7474650
  19.1691750  39.3169980  50.2042120  20.0386600  39.5994780  50.4878040
  18.6782070  40.1305850  50.0890930  26.3326560  40.7043190  54.3250400
  26.7889340  41.5148440  54.5510590  25.9814770  40.3866330  55.1568890
  22.2338340  31.0480840  54.7972920  22.1052970  31.0398740  55.7457840
  21.4100360  31.3863930  54.4463930  33.7546970  44.5030500  49.9959290
  33.5284550  43.7860940  50.5883930  33.3643170  44.2542940  49.1581040
  19.5363000  48.5297360  50.7703750  19.8960640  49.1286700  50.1161020
  19.3955340  49.0757250  51.5438780  33.3363220  42.4202440  51.6573450
  33.0484920  42.8815130  52.4451330  34.1315390  41.9600210  51.9257670
  25.5531620  45.9128560  51.5877420  25.5441720  46.6458250  50.9721930
  24.6329980  45.6660140  51.6804380  21.1538260  41.1343450  52.3324180
  20.5466210  41.8742350  52.3419480  21.6287610  41.2242810  51.5062380
  34.0933080  34.2551210  52.8168630  33.4646240  34.3596880  52.1026860
  33.5985000  34.4747990  53.6062510  28.5391220  45.9756800  50.2502610
  28.6403200  45.7720790  49.3204590  27.6392960  45.7215080  50.4550390
  26.0617110  36.5337160  54.2326510  25.3533260  37.0023500  54.6740120
  26.3461590  35.8759170  54.8671700  30.0932540  33.2587820  55.6722300
  29.9700320  33.2773950  54.7231810  31.0417100  33.3066760  55.7920700
  27.1809330  48.4943120  54.9450280  27.4350830  48.4564510  54.0229650
  26.2321810  48.3676450  54.9378530  24.2652130  34.8422240  51.6077220
  25.1142660  35.2792390  51.5417410  23.8983400  35.1542500  52.4349280
  33.1861910  39.4135000  56.5208790  32.2452050  39.4285230  56.6956480
  33.5005980  38.6270960  56.9669090  23.1643550  41.0954600  50.0812750
  23.9306820  40.9835960  50.6438180  23.2418240  40.3992570  49.4289520
  21.8590310  38.5279670  50.7645640  21.9393900  37.5807180  50.8763040
  22.7510060  38.8586550  50.8706300  22.6605020  48.6775060  57.8680180
  23.3967500  48.1290520  58.1388750  23.0445940  49.5431070  57.7286170
  19.5450500  44.7448630  53.7421690  18.6190280  44.9869770  53.7327100
  20.0106930  45.5722890  53.6206440  25.7707330  47.8505370  49.6905750
  26.5635940  48.1394200  49.2387540  25.2511680  47.4197540  49.0118230
  34.8237500  47.0775500  51.1142490  34.5379010  46.6640640  50.2996670
  34.6257050  48.0063210  50.9943010  26.2884730  43.0708780  49.5548100
  26.1835370  42.4561130  50.2809480  26.1208950  42.5474670  48.7711110
  29.5287460  42.1328810  50.1590090  28.9797560  42.5798110  50.8032830
  30.1506720  41.6278060  50.6827760  25.1962580  41.0919730  52.0555390
  25.6179000  40.9259600  52.8986780  25.3213420  40.2819960  51.5610530
  27.7090220  40.1157340  49.3032490  28.2295880  39.4006360  48.9373640
  28.3558620  40.7543210  49.6033000  24.0921480  37.1652960  49.0013550
  23.8910540  36.3020320  49.3626890  23.9213530  37.0786320  48.0635150
  31.5709790  31.9761190  51.5300430  31.8512080  31.1329090  51.8859850
  30.7975520  32.2084300  52.0439180  22.8904280  34.2653580  48.9891430
  23.1930180  34.2721010  48.0810580  23.6298870  33.9151440  49.4859090
  26.1089210  33.2088200  49.9747630  25.7611210  32.5312190  49.3950080
  26.3101980  32.7477710  50.7891020  28.2738250  48.1968950  51.5934230
  29.1689040  48.5353920  51.6152990  28.3055880  47.4748360  50.9658510
  21.9134410  43.5696000  49.8221230  22.3509280  44.1125670  50.4778810
  22.3982140  42.7442950  49.8317570  19.1280210  46.3585030  57.2741490
  19.4583220  45.4906090  57.0420130  19.5571210  46.5643550  58.1046450
  23.7242130  44.6894040  54.9343460  23.4237670  44.5659010  55.8347370
  23.6179620  43.8302630  54.5259190  36.4934050  44.4690440  49.6370140
  35.6627010  44.5367090  50.1077370  36.6705880  45.3594560  49.3337000
  35.9490510  41.2137920  52.1404340  36.7109420  41.7834570  52.2464030
  35.9644880  40.6465120  52.9112650  19.4494850  39.7375850  56.3712000
  18.7943690  39.4687490  55.7271700  20.2872800  39.6280330  55.9213980
  36.9550480  42.0688020  56.9846270  37.3259310  41.2855340  56.5782240
  37.5952410  42.7577120  56.8063570  36.0009680  41.5072290  49.2976860
  36.2758520  42.4151170  49.1696080  35.8120420  41.4434820  50.2338850
  32.3985290  34.5317140  50.5930490  32.8170170  34.3448120  49.7527150
  32.0921350  33.6796190  50.9033420  35.8975020  39.4441280  54.2906290
  35.5218620  38.6769210  53.8587580  35.1678140  39.8263980  54.7781220
  18.6632930  36.9474780  52.3137330  17.7597010  37.2104980  52.1388990
  19.1473550  37.2185950  51.5337290  35.1725980  37.6698770  57.5913530
  35.6963460  37.1761420  56.9603700  35.7585400  37.8049130  58.3361100
  21.2060140  36.0040320  50.2231710  21.9151840  35.5823540  49.7378990
  20.4900080  36.0715550  49.5915060  20.8534300  32.0579650  49.2634360
  21.5762430  32.5988590  49.5815580  21.1258820  31.7843070  48.3875900
  34.6625950  36.9272120  53.5305940  35.1585070  36.6942990  54.3154820
  34.4642020  36.0883960  53.1143580  36.0913110  35.5633070  56.0643620
  35.9812390  35.4089110  57.0025890  36.8520700  35.0354010  55.8219030
  36.9803380  33.3940990  49.3049760  37.9052690  33.2622170  49.0968050
  36.9579170  33.4733810  50.2586210  37.0541870  34.1651650  51.9306470
  36.2593370  34.0996770  52.4599380  37.2585150  35.1002290  51.9191820
  33.9960290  48.2043200  55.9244860  34.5919360  47.8827770  55.2479280
  34.2538440  47.7315020  56.7158130  33.4861800  32.4948530  58.3805300
  33.9269890  32.4393630  57.5326900  33.2169390  33.4106540  58.4515480
  35.3500370  32.1263770  56.3914120  35.2888770  31.1824990  56.2445140
  36.1292400  32.2343860  56.9367580  19.6553120  48.2656130  55.3538070
  19.4875160  47.6326810  56.0519960  18.7887630  48.4715530  55.0032260
  20.2781140  32.0972910  52.8569930  21.0360500  32.2101790  52.2833960
  19.8158310  32.9342110  52.8113360  26.8194950  34.2112180  55.8472240
  26.0069460  33.8369070  55.5068120  27.3236590  33.4557260  56.1493430
  31.3219930  30.8754630  57.0855310  31.9249300  31.4474840  57.5603830
  30.5812920  31.4394070  56.8629210  34.4654530  31.2776190  52.3595590
  34.6605160  32.1759640  52.6263020  33.6784400  31.0463270  52.8528540
  21.2615820  46.9589360  52.7988210  20.7363440  47.3397390  52.0950170
  21.1860400  47.5840130  53.5197920  22.6506290  32.6236960  51.3971900
  23.1799050  31.8366760  51.2679850  23.2834610  33.3028150  51.6307430
  24.8444130  32.3612100  54.4517290  24.2146870  31.6599410  54.6187420
  24.3049270  33.1216230  54.2350450  36.0181140  48.5176900  54.1202150
  36.1933330  47.8314640  53.4763070  35.3202710  49.0423950  53.7278820
  23.8608790  48.9071740  51.6737460  24.5927610  48.6231020  51.1261350
  24.1202460  48.6685020  52.5636840  23.0223580  45.0236470  51.6783790
  22.3932460  45.4921570  52.2269620  23.1371410  44.1785690  52.1129980
  30.4773300  39.0742130  37.8284990  30.3967350  38.1596740  37.5576700
  30.0637720  39.5709200  37.1224700  28.6091340  40.8521150  39.7094260
  27.8333440  40.3721590  39.9992830  29.2604270  40.1726800  39.5350420
  32.6298770  45.2581340  38.4893390  32.1680300  44.4868580  38.8180560
  33.4424320  45.2847410  38.9945840  28.8562080  47.5439350  38.1097380
  28.2373520  47.9996850  37.5391820  29.7113860  47.6990810  37.7087080
  28.0500330  43.5278340  39.7164420  27.9808610  42.5868280  39.5553550
  28.8120190  43.6179750  40.2886990  29.0805500  36.3348720  39.9433350
  29.4570320  35.4620600  39.8307020  28.9825010  36.6707420  39.0523790
  37.1529170  35.8465910  43.4405320  36.4481340  36.2347620  42.9220430
  37.4187090  36.5416200  44.0426250  23.3354340  32.3159280  44.0039390
  23.3372780  32.8331670  43.1985290  22.5058650  31.8389460  43.9809320
  33.0991100  35.7699540  39.6489230  32.3946670  36.0584430  40.2292340
  33.4603260  36.5799650  39.2888790  19.0908630  43.1135120  32.8768920
  18.7136610  43.6022220  32.1453820  19.3481700  43.7860400  33.5075450
  34.7153880  45.3874670  41.9116710  34.0317400  46.0573780  41.9033380
  35.2548170  45.5855320  41.1461570  36.1678020  35.2154330  40.0398440
  35.2202930  35.2493310  40.1713870  36.4928010  36.0293280  40.4247800
  32.2512620  47.2318800  40.6261890  32.2639780  46.8281090  39.7584150
  31.6987840  48.0066090  40.5223320  33.5458040  43.9535020  35.7152060
  33.4354370  43.0109350  35.8401480  33.5426290  44.3150660  36.6014820
  31.6498060  42.1348640  41.9544500  32.0666850  41.9208750  41.1197960
  32.3737880  42.3921430  42.5253120  35.5960160  40.5335860  42.0460740
  34.7678790  40.6028950  41.5710870  36.1910640  41.1190170  41.5776570
  32.5602170  37.3205180  42.9915610  32.1473350  38.1458890  43.2455600
  31.8278120  36.7350220  42.7991970  33.2502270  47.3664510  43.6796590
  32.7732830  48.1736700  43.4869200  32.5664060  46.7142840  43.8322800
  24.2535090  43.5314330  46.6681290  23.3563620  43.7554300  46.9154690
  24.2787960  43.6549270  45.7192690  23.0806310  40.4027650  45.2438660
  22.9414080  41.2750450  45.6126060  22.1987670  40.0600460  45.0986600
  29.4035690  45.3203520  36.5503790  29.8431600  46.0627850  36.1359180
  29.3422580  45.5630090  37.4742750  24.8786660  46.3449350  47.4523810
  24.8502090  46.7492300  46.5852240  24.7151630  45.4159710  47.2895410
  36.8301480  47.1276450  48.7487980  37.3061200  47.6059340  49.4277060
  37.4508640  47.0593940  48.0233480  20.2772590  43.8725390  37.5715750
  19.8700670  44.0139980  36.7169350  21.1685600  43.5885550  37.3686960
  36.2334730  44.3189300  45.9087990  36.3597790  44.0801180  44.9905170
  36.2756110  43.4873840  46.3810070  30.0951470  48.0217300  44.4782800
  30.6096140  47.9325310  45.2805230  29.2520550  48.3677000  44.7710710
  32.0705870  48.3072640  33.9066800  31.9107010  48.0175580  34.8048630
  31.9052580  47.5312770  33.3712030  24.5494250  48.0871170  35.6838420
  24.3736730  47.1706710  35.4706220  23.6949990  48.4458460  35.9236220
  31.7732000  45.8160200  32.4664800  31.0797160  45.8137490  31.8067080
  32.5154860  45.3919520  32.0358970  31.3381930  47.4422910  36.5413290
  31.7938880  46.6612290  36.8551910  31.6774450  48.1529730  37.0854470
  36.0858740  36.3721760  46.8737730  35.4703010  36.8801430  46.3453190
  35.7655160  35.4720090  46.8163670  28.1473060  35.2113650  44.3399920
  27.6852430  35.4196670  45.1519860  27.7451170  34.3973000  44.0370590
  33.1477570  36.4322600  45.4696580  32.2971160  36.1328350  45.7905650
  32.9879360  36.6764610  44.5580400  30.2427280  37.9324350  47.5695370
  30.5680690  37.0988100  47.2297600  31.0307610  38.4552870  47.7173700
  26.0916680  38.3664280  47.1306120  25.9960280  37.4259010  46.9806520
  26.9348660  38.5879350  46.7354190  21.2227220  34.7777950  45.2839900
  20.8290610  35.6253160  45.4912680  20.5345620  34.1404320  45.4748540
  27.7972270  34.8612920  48.3536640  27.1070590  34.6685120  48.9882730
  28.5404570  35.1447560  48.8860940  18.7114500  36.6426530  30.5272700
  18.6289170  37.5857290  30.6687690  18.3597560  36.5001440  29.6485050
  30.0735240  38.7011360  41.1890560  29.3416360  39.2098170  41.5380660
  29.6759580  37.8841340  40.8879340  30.5361150  34.1545040  40.6013500
  30.5533890  34.6053690  41.4455350  30.2876730  33.2550680  40.8146940
  33.9631900  31.5677220  46.4399880  34.2877670  30.8366880  46.9657860
  33.9988410  31.2490860  45.5380870  20.6623460  42.5890800  45.8599840
  20.2778250  41.9484470  46.4582800  20.9735650  43.2926920  46.4294570
  23.1301760  42.6836970  34.2559520  22.3564020  42.1434590  34.0958240
  23.8596390  42.1643580  33.9177280  33.8889740  41.6802330  40.0485910
  34.6088860  42.1757620  39.6582020  33.6871560  41.0020220  39.4039780
  29.2708540  41.7511390  45.9354910  29.2045850  40.8307060  45.6812500
  28.6413680  41.8486830  46.6499550  28.0608660  43.6183630  33.1665630
  28.4024360  44.3625860  32.6708950  27.2321370  43.9314750  33.5290460
  20.6583700  39.3178720  44.8064030  20.2998640  39.9832570  45.3937370
  20.3638260  38.4862270  45.1776650  23.8596820  39.7762960  47.6903580
  23.5596960  39.9220140  46.7931400  24.6308060  39.2168250  47.5976970
  29.2025270  44.5731960  45.6858710  29.2169810  43.6412920  45.4677620
  28.4950370  44.6591720  46.3248480  35.4136480  41.2139300  45.0327290
  34.6884670  41.8068080  44.8356680  35.9411940  41.2062840  44.2340660
  35.3649590  45.6114040  34.6839450  34.7225750  44.9569660  34.9583170
  34.9780250  46.0169130  33.9080120  30.9436070  42.9399470  38.5311140
  31.2959890  42.3427600  37.8712510  30.0598400  42.6143700  38.7019390
  27.0299350  43.6997160  35.9381550  27.7170480  44.2466370  36.3189140
  26.2431770  44.2437890  35.9731160  19.1691750  39.3169980  31.4298630
  20.0386600  39.5994780  31.7134550  18.6782070  40.1305850  31.3147440
  28.6359170  46.2149530  42.7799210  29.2801390  46.4208910  43.4572630
  28.9988610  45.4537930  42.3270060  29.9091250  44.2181880  41.4976660
  30.5513480  43.5175040  41.6108830  30.4340600  44.9980320  41.3173550
  33.7546970  44.5030500  31.2215800  33.5284550  43.7860940  31.8140440
  33.3643170  44.2542940  30.3837550  31.6828870  45.0176780  44.7012720
  32.0185110  45.6043470  45.3790640  30.7629210  44.8869490  44.9310510
  19.5363000  48.5297360  31.9960260  19.8960640  49.1286700  31.3417530
  19.3955340  49.0757250  32.7695290  19.2332270  32.8071960  45.4836130
  18.5190790  33.0068880  46.0888740  19.6527310  32.0311530  45.8550930
  19.5204860  46.7952220  46.4702660  19.6295980  45.8546960  46.3298050
  18.8685420  47.0606970  45.8216390  27.5117450  45.0668110  47.8700780
  27.1914320  44.3477350  48.4146470  26.8375810  45.7423180  47.9436840
  25.5531620  45.9128560  32.8133930  25.5441720  46.6458250  32.1978440
  24.6329980  45.6660140  32.9060890  21.1538260  41.1343450  33.5580690
  20.5466210  41.8742350  33.5675990  21.6287610  41.2242810  32.7318890
  30.7271050  35.2994270  43.2337580  31.0951870  34.4789480  43.5617150
  29.8669250  35.3596160  43.6493230  28.5391220  45.9756800  31.4759120
  28.6403200  45.7720790  30.5461100  27.6392960  45.7215080  31.6806900
  27.6873040  37.9533860  43.4575550  28.1858290  38.4279680  44.1227400
  27.8295990  37.0297380  43.6645580  27.1809330  48.4943120  36.1706790
  27.4350830  48.4564510  35.2486160  26.2321810  48.3676450  36.1635040
  34.8939900  34.1701820  44.3003940  34.3913500  34.9107220  44.6397750
  35.7096560  34.5585820  43.9840730  33.1861910  39.4135000  37.7465300
  32.2452050  39.4285230  37.9212990  33.5005980  38.6270960  38.1925600
  23.1643550  41.0954600  31.3069260  23.9306820  40.9835960  31.8694690
  23.2418240  40.3992570  30.6546030  21.8590310  38.5279670  31.9902150
  21.9393900  37.5807180  32.1019550  22.7510060  38.8586550  32.0962810
  35.1887490  46.5843850  39.4219560  35.3134910  47.4075020  39.8943370
  36.0553050  46.3734580  39.0743710  22.6605020  48.6775060  39.0936690
  23.3967500  48.1290520  39.3645260  23.0445940  49.5431070  38.9542680
  19.5450500  44.7448630  34.9678200  18.6190280  44.9869770  34.9583610
  20.0106930  45.5722890  34.8462950  21.6663300  47.8621130  48.2822270
  22.4676030  48.1833180  48.6957670  21.1515120  47.5016710  49.0042180
  25.7707330  47.8505370  30.9162260  26.5635940  48.1394200  30.4644050
  25.2511680  47.4197540  30.2374740  30.5027930  43.9701000  48.2297680
  29.8966090  43.9932600  47.4893430  30.1982040  43.2384040  48.7664930
  31.9328300  47.6981290  46.8407090  32.8850050  47.6139310  46.7907330
  31.7856520  48.3623000  47.5140880  34.8237500  47.0775500  32.3399000
  34.5379010  46.6640640  31.5253180  34.6257050  48.0063210  32.2199520
  19.3861110  40.3494590  47.2258320  19.8900130  39.7701870  47.7974550
  18.6468530  40.6334820  47.7634690  26.2884730  43.0708780  30.7804610
  26.1835370  42.4561130  31.5065990  26.1208950  42.5474670  29.9967620
  26.4399050  41.7565580  46.7593840  25.6744720  42.3250580  46.6748510
  26.6215010  41.4641790  45.8662070  33.5822400  43.4870910  47.3168860
  34.3231870  43.8246670  46.8136320  32.8195080  43.6562970  46.7638630
  21.4184190  38.4924180  48.1208390  21.4589530  38.1938050  49.0293620
  22.2729690  38.8931790  47.9615910  25.1962580  41.0919730  33.2811900
  25.6179000  40.9259600  34.1243290  25.3213420  40.2819960  32.7867040
  23.3590000  37.0716280  46.0882880  22.8286460  36.5807230  45.4606220
  24.0278070  37.5000480  45.5540810  32.2568060  41.5385740  45.8524070
  32.6709080  41.6930820  46.7014490  31.3219060  41.6640960  46.0149850
  32.7290230  38.8781900  47.8563220  33.3111000  38.1234220  47.7683700
  32.9052000  39.4089340  47.0794700  23.8462300  34.0378650  46.1680170
  23.7519170  33.4199400  45.4431040  23.2659690  34.7644940  45.9410080
  26.6123740  32.5951890  43.2007560  26.1641040  32.6176150  42.3553110
  25.9788940  32.1970910  43.7977860  27.0183290  41.4906220  43.8220000
  27.4371400  42.3338950  43.6496240  26.0991920  41.6278260  43.5926780
  29.3547190  39.2222400  45.2057840  29.4743400  38.6263540  45.9452680
  30.2141190  39.2592090  44.7859140  31.6935090  39.7759590  43.7820350
  31.1670310  40.3002210  43.1785490  32.0366430  40.4086980  44.4130080
  24.0921480  37.1652960  30.2270060  23.8910540  36.3020320  30.5883400
  23.9213530  37.0786320  29.2891660  24.8690710  47.7959230  44.9377730
  24.3311800  48.5205290  44.6186430  25.1224670  47.3189570  44.1475070
  26.1215960  35.7643750  46.4633660  26.7115650  35.4559600  47.1511480
  25.3036200  35.2923500  46.6193560  30.9409390  35.3809560  46.6966680
  30.2524910  34.7191100  46.6316670  31.6615410  34.9347830  47.1415140
  22.8904280  34.2653580  30.2147940  23.1930180  34.2721010  29.3067090
  23.6298870  33.9151440  30.7115600  27.7252920  49.0310440  45.1964380
  27.6511620  49.9345580  45.5036750  26.8231760  48.7122340  45.1686450
  28.2738250  48.1968950  32.8190740  29.1689040  48.5353920  32.8409500
  28.3055880  47.4748360  32.1915020  21.9134410  43.5696000  31.0477740
  22.3509280  44.1125670  31.7035320  22.3982140  42.7442950  31.0574080
  19.1280210  46.3585030  38.4998000  19.4583220  45.4906090  38.2676640
  19.5571210  46.5643550  39.3302960  23.7242130  44.6894040  36.1599970
  23.4237670  44.5659010  37.0603880  23.6179620  43.8302630  35.7515700
  19.6170420  47.2255620  41.2379630  19.1801410  47.4056420  42.0703780
  20.1848100  47.9830240  41.0961350  35.2532600  46.7272620  45.5256940
  34.6534590  46.7865180  44.7820860  35.3826500  45.7877600  45.6553790
  36.4934050  44.4690440  30.8626650  35.6627010  44.5367090  31.3333880
  36.6705880  45.3594560  30.5593510  36.9550480  42.0688020  38.2102780
  37.3259310  41.2855340  37.8038750  37.5952410  42.7577120  38.0320080
  33.9384240  43.4524600  43.6233100  33.1244080  43.8821760  43.8858890
  34.3458440  44.0643010  43.0102150  35.2874640  38.5912800  45.1502320
  35.0560730  38.3625550  44.2500270  35.5479190  39.5112350  45.1047210
  20.0386780  37.0337510  46.0430270  19.1442830  37.0004270  46.3823980
  20.5784330  37.2324300  46.8081520  33.7262710  33.8169230  47.9282020
  34.6032890  33.8252630  48.3116020  33.7383550  33.0800070  47.3174370
  18.6632930  36.9474780  33.5393840  17.7597010  37.2104980  33.3645500
  19.1473550  37.2185950  32.7593800  35.1725980  37.6698770  38.8170040
  35.6963460  37.1761420  38.1860210  35.7585400  37.8049130  39.5617610
  35.3515700  37.7538640  42.3389590  34.4018410  37.7202180  42.4534580
  35.5328710  38.6638750  42.1039360  21.2060140  36.0040320  31.4488220
  21.9151840  35.5823540  30.9635500  20.4900080  36.0715550  30.8171570
  36.0913110  35.5633070  37.2900130  35.9812390  35.4089110  38.2282400
  36.8520700  35.0354010  37.0475540  34.4378830  31.5027200  43.7483130
  35.0751050  32.1161340  44.1142320  34.5853720  31.5387860  42.8032360
  33.9960290  48.2043200  37.1501370  34.5919360  47.8827770  36.4735790
  34.2538440  47.7315020  37.9414640  20.2958490  31.4641510  43.1338810
  19.9473310  31.9205330  43.8996990  19.9646190  30.5698640  43.2161240
  21.9022860  44.6361110  47.2992000  21.8592490  44.2654020  48.1806460
  22.0333870  45.5738680  47.4393820  25.6028890  46.1920700  42.9001720
  25.3620250  46.4595260  42.0132240  26.5431530  46.3626430  42.9552580
  27.8083310  32.6553390  46.6558230  27.7472200  33.2475220  47.4053640
  28.7483690  32.5479350  46.5108490  30.4457870  32.3123450  46.2950520
  31.0598280  32.6302740  45.6331600  30.9907430  31.8272040  46.9146380
  36.8633050  48.2115080  43.7012360  36.3691330  48.6083950  42.9839490
  36.2546340  47.5864290  44.0949640  20.9679130  30.9917710  46.4089580
  21.5162120  30.8105760  45.6455690  21.0334440  30.2011820  46.9445890
  21.7410890  47.5823360  44.4189780  21.1471210  47.4508060  45.1579820
  21.7334730  46.7461500  43.9531880  31.1865910  30.8755590  42.6219810
  30.3125750  31.2090700  42.4192740  31.0776660  30.4028770  43.4471680
  32.0937890  33.0826460  44.0061530  31.7651250  32.2678220  43.6263260
  33.0420190  33.0396270  43.8827220  34.5472500  48.8538500  40.9799100
  34.0875470  49.6054310  40.6057120  33.9184960  48.1344970  40.9213900
  24.9768220  47.1626740  40.1547230  25.4933240  46.5514100  39.6295490
  25.6265600  47.6655520  40.6458240  27.7163720  48.0535230  40.9816210
  28.0041530  47.7989530  40.1049220  28.2286940  47.5012590  41.5721780
  28.9340730  31.7925430  41.5612720  28.1512520  32.2670930  41.8409480
  28.6403660  30.8880260  41.4525900  33.4861800  32.4948530  39.6061810
  33.9269890  32.4393630  38.7583410  33.2169390  33.4106540  39.6771990
  35.3500370  32.1263770  37.6170630  35.2888770  31.1824990  37.4701650
  36.1292400  32.2343860  38.1624090  19.6553120  48.2656130  36.5794580
  19.4875160  47.6326810  37.2776470  18.7887630  48.4715530  36.2288770
  21.2615820  46.9589360  34.0244720  20.7363440  47.3397390  33.3206680
  21.1860400  47.5840130  34.7454430  27.7836080  48.9751330  48.3484410
  28.7103390  48.7395600  48.3920370  27.7686510  49.8023330  47.8670440
  36.0181140  48.5176900  35.3458660  36.1933330  47.8314640  34.7019580
  35.3202710  49.0423950  34.9535330  24.9699690  31.6396080  48.1126290
  24.6883960  32.1429680  47.3487110  25.3519390  30.8417830  47.7468420
  23.8608790  48.9071740  32.8993970  24.5927610  48.6231020  32.3517860
  24.1202460  48.6685020  33.7893350  23.0223580  45.0236470  32.9040300
  22.3932460  45.4921570  33.4526130  23.1371410  44.1785690  33.3386490
  31.5715150  31.0549660  48.6906760  31.4580600  31.3744270  49.5858280
  32.3884890  31.4562170  48.3944040  34.3513640  48.2021190  48.1725450
  35.1438960  47.7070420  47.9651410  34.6446790  48.8811330  48.7801060
  30.4773300  39.0742130  19.0541500  30.3967350  38.1596740  18.7833210
  30.0637720  39.5709200  18.3481210  28.6091340  40.8521150  20.9350770
  27.8333440  40.3721590  21.2249340  29.2604270  40.1726800  20.7606930
  22.6257170  41.1640960  21.8126530  21.7942050  40.9089670  22.2123040
  23.2338150  41.2351730  22.5484450  32.6298770  45.2581340  19.7149900
  32.1680300  44.4868580  20.0437070  33.4424320  45.2847410  20.2202350
  22.6058430  45.1981050  22.0084550  22.9086470  44.3078790  21.8294770
  23.3502020  45.7551270  21.7806800  21.0349120  36.1242850  15.5968920
  20.1465820  36.4658820  15.4948800  21.3190310  35.9243170  14.7049750
  18.9982130  38.7248500  21.4808620  19.5698240  37.9570700  21.4812260
  18.9983670  39.0237260  20.5715230  28.8562080  47.5439350  19.3353890
  28.2373520  47.9996850  18.7648330  29.7113860  47.6990810  18.9343590
  28.0500330  43.5278340  20.9420930  27.9808610  42.5868280  20.7810060
  28.8120190  43.6179750  21.5143500  20.2407000  34.1332860  23.2677550
  20.0609840  33.2358610  23.5480310  19.8387080  34.6804730  23.9424500
  29.0805500  36.3348720  21.1689860  29.4570320  35.4620600  21.0563530
  28.9825010  36.6707420  20.2780300  23.2110510  34.7074350  16.6307300
  23.3177260  35.6078080  16.9376060  22.3002870  34.6592320  16.3401950
  32.8629620  33.8299160  18.1018200  33.6839240  33.3395730  18.1443680
  32.8963700  34.4196820  18.8550040  20.8593670  36.6293360  21.8759890
  21.5403780  36.8931730  22.4947290  20.5441720  35.7894230  22.2097900
  25.0518240  37.6760720  20.9632480  25.5596460  38.1741690  21.6037500
  25.5831480  36.8995920  20.7871840  23.3354340  32.3159280  25.2295900
  23.3372780  32.8331670  24.4241800  22.5058650  31.8389460  25.2065830
  29.7225430  42.4278590  16.7285800  29.1042700  42.8928040  16.1648520
  30.2348680  43.1206070  17.1455310  24.5857190  41.9554460  23.4069400
  24.2526570  42.5823380  24.0490470  24.7623870  42.4816340  22.6271070
  23.0169670  34.0269240  23.2366350  23.3586480  34.8711290  22.9420220
  22.0785480  34.1752980  23.3531690  23.7976290  43.9235260  25.2218580
  24.4150290  44.5986340  24.9403030  22.9369410  44.3323240  25.1306080
  19.0908630  43.1135120  14.1025430  18.7136610  43.6022220  13.3710330
  19.3481700  43.7860400  14.7331960  34.7153880  45.3874670  23.1373220
  34.0317400  46.0573780  23.1289890  35.2548170  45.5855320  22.3718080
  26.6997560  31.5151510  19.5610940  27.0072540  30.9598400  18.8446440
  25.7698260  31.6495970  19.3783930  32.2512620  47.2318800  21.8518400
  32.2639780  46.8281090  20.9840660  31.6987840  48.0066090  21.7479830
  33.5458040  43.9535020  16.9408570  33.4354370  43.0109350  17.0657990
  33.5426290  44.3150660  17.8271330  31.6498060  42.1348640  23.1801010
  32.0666850  41.9208750  22.3454470  32.3737880  42.3921430  23.7509630
  29.0878320  39.5800340  16.2971060  28.1607600  39.5137720  16.5259530
  29.2403140  40.5180470  16.1826300  29.0747400  35.8517340  13.2938220
  28.1351070  36.0131300  13.3790680  29.3930660  36.5703020  12.7474210
  35.5960160  40.5335860  23.2717250  34.7678790  40.6028950  22.7967380
  36.1910640  41.1190170  22.8033080  33.1175610  41.1420640  16.8006310
  32.4988030  40.8040190  16.1532610  33.1000060  40.4980400  17.5085500
  24.6934960  40.1065080  19.0790790  24.2891960  39.3942330  18.5836690
  24.7798080  39.7618320  19.9678830  25.1616660  43.7932640  21.2430000
  24.8644950  43.1878110  20.5637780  26.1116480  43.8309950  21.1319360
  23.4063580  36.8808290  22.8589830  23.9578170  36.9903630  22.0843080
  23.9207090  37.2545890  23.5745060  33.2502270  47.3664510  24.9053100
  32.7732830  48.1736700  24.7125710  32.5664060  46.7142840  25.0579310
  24.2535090  43.5314330  27.8937800  23.3563620  43.7554300  28.1411200
  24.2787960  43.6549270  26.9449200  31.2940310  40.3807450  13.8079060
  31.7333590  39.5429880  13.6616880  32.0068730  41.0136850  13.8943200
  23.0806310  40.4027650  26.4695170  22.9414080  41.2750450  26.8382570
  22.1987670  40.0600460  26.3243110  29.4035690  45.3203520  17.7760300
  29.8431600  46.0627850  17.3615690  29.3422580  45.5630090  18.6999260
  24.8786660  46.3449350  28.6780320  24.8502090  46.7492300  27.8108750
  24.7151630  45.4159710  28.5151920  34.8757450  31.6350260  12.1220100
  34.5630110  31.7277090  13.0219170  35.6369920  32.2131290  12.0717530
  21.3939590  39.0010060  16.5797440  21.2737190  39.7272150  15.9678710
  21.0840480  38.2312970  16.1025350  36.8301480  47.1276450  29.9744490
  37.3061200  47.6059340  30.6533570  37.4508640  47.0593940  29.2489990
  19.0324960  42.1725200  22.3866080  19.1105380  42.3073970  21.4421800
  19.6466640  41.4641090  22.5794200  20.2772590  43.8725390  18.7972260
  19.8700670  44.0139980  17.9425860  21.1685600  43.5885550  18.5943470
  36.2334730  44.3189300  27.1344500  36.3597790  44.0801180  26.2161680
  36.2756110  43.4873840  27.6066580  30.0951470  48.0217300  25.7039310
  30.6096140  47.9325310  26.5061740  29.2520550  48.3677000  25.9967220
  32.0705870  48.3072640  15.1323310  31.9107010  48.0175580  16.0305140
  31.9052580  47.5312770  14.5968540  24.5494250  48.0871170  16.9094930
  24.3736730  47.1706710  16.6962730  23.6949990  48.4458460  17.1492730
  31.7732000  45.8160200  13.6921310  31.0797160  45.8137490  13.0323590
  32.5154860  45.3919520  13.2615480  31.3381930  47.4422910  17.7669800
  31.7938880  46.6612290  18.0808420  31.6774450  48.1529730  18.3110980
  19.0884480  43.2139370  24.9260540  19.2515520  42.7444730  24.1079910
  19.5536930  42.7062930  25.5909380  23.8603250  32.3445130  19.9621110
  23.4171400  33.1254670  19.6305630  24.4188240  32.6675020  20.6692050
  28.1473060  35.2113650  25.5656430  27.6852430  35.4196670  26.3776370
  27.7451170  34.3973000  25.2627100  26.9762070  31.9655830  14.8426940
  26.3516250  31.9615700  15.5680250  26.8892190  31.0986790  14.4462910
  25.8979150  32.8892460  21.8210710  26.1951480  33.7955290  21.7402730
  26.4464710  32.4011240  21.2070280  23.6517470  37.4678700  17.6902360
  23.4258390  37.2515870  18.5948980  22.8710000  37.9007160  17.3448330
  30.8815230  37.4742070  16.2893010  30.2824120  38.1977870  16.1056630
  31.4294840  37.4118850  15.5069460  26.0916680  38.3664280  28.3562630
  25.9960280  37.4259010  28.2063030  26.9348660  38.5879350  27.9610700
  29.4880100  36.1105610  18.3196290  29.8809670  36.4277810  17.5064980
  29.8496950  35.2317490  18.4340810  21.2227220  34.7777950  26.5096410
  20.8290610  35.6253160  26.7169190  20.5345620  34.1404320  26.7005050
  18.5244270  32.7006410  20.5426490  18.2357320  33.2709270  21.2551470
  19.2690030  32.2210860  20.9057720  18.7114500  36.6426530  11.7529210
  18.6289170  37.5857290  11.8944200  18.3597560  36.5001440  10.8741560
  30.0735240  38.7011360  22.4147070  29.3416360  39.2098170  22.7637170
  29.6759580  37.8841340  22.1135850  26.5112630  35.3765560  20.8199560
  26.5148690  34.9355510  19.9704100  27.4063750  35.6982890  20.9271380
  22.3615010  35.2592050  19.7793770  22.0215060  35.7367280  20.5360820
  21.5992330  34.8057170  19.4194870  26.5732780  36.3777640  13.8106320
  26.6945600  36.3364120  14.7592140  26.1881290  37.2401790  13.6553050
  30.5361150  34.1545040  21.8270010  30.5533890  34.6053690  22.6711860
  30.2876730  33.2550680  22.0403450  25.5854280  38.6878780  13.2089620
  25.0171180  38.2397030  12.5825530  26.2943280  39.0471560  12.6754770
  20.6623460  42.5890800  27.0856350  20.2778250  41.9484470  27.6839310
  20.9735650  43.2926920  27.6551080  26.8120600  39.4367340  22.5664970
  27.1790730  38.9625910  23.3126310  26.6225660  40.3108910  22.9073310
  19.6761090  34.1811030  18.6958440  19.3908010  33.8166700  19.5337060
  19.6139950  33.4491490  18.0821580  24.6019970  38.4775980  24.8849180
  24.2977040  39.3567960  25.1099540  25.5566430  38.5375770  24.9206620
  23.1301760  42.6836970  15.4816030  22.3564020  42.1434590  15.3214750
  23.8596390  42.1643580  15.1433790  33.8889740  41.6802330  21.2742420
  34.6088860  42.1757620  20.8838530  33.6871560  41.0020220  20.6296290
  29.3499680  33.0740290  15.4171810  28.5364290  32.5753460  15.3417120
  29.1561630  33.9138540  15.0008160  29.2708540  41.7511390  27.1611420
  29.2045850  40.8307060  26.9069010  28.6413680  41.8486830  27.8756060
  32.0648070  37.4459940  13.7133970  32.9527690  37.7577170  13.5385310
  32.0353160  36.5732190  13.3214550  23.1739160  42.3517350  19.1194840
  23.6917830  41.5485610  19.0651730  22.7223180  42.2896490  19.9611670
  28.0608660  43.6183630  14.3922140  28.4024360  44.3625860  13.8965460
  27.2321370  43.9314750  14.7546970  20.6583700  39.3178720  26.0320540
  20.2998640  39.9832570  26.6193880  20.3638260  38.4862270  26.4033160
  23.8596820  39.7762960  28.9160090  23.5596960  39.9220140  28.0187910
  24.6308060  39.2168250  28.8233480  29.2025270  44.5731960  26.9115220
  29.2169810  43.6412920  26.6934130  28.4950370  44.6591720  27.5504990
  34.3362340  38.7571780  13.1813830  34.2526060  39.1886000  12.3310270
  35.0556530  39.2170130  13.6140650  35.4136480  41.2139300  26.2583800
  34.6884670  41.8068080  26.0613190  35.9411940  41.2062840  25.4597170
  35.3649590  45.6114040  15.9095960  34.7225750  44.9569660  16.1839680
  34.9780250  46.0169130  15.1336630  30.9436070  42.9399470  19.7567650
  31.2959890  42.3427600  19.0969020  30.0598400  42.6143700  19.9275900
  27.0299350  43.6997160  17.1638060  27.7170480  44.2466370  17.5445650
  26.2431770  44.2437890  17.1987670  19.1691750  39.3169980  12.6555140
  20.0386600  39.5994780  12.9391060  18.6782070  40.1305850  12.5403950
  26.3326560  40.7043190  16.7763420  26.7889340  41.5148440  17.0023610
  25.9814770  40.3866330  17.6081910  28.6359170  46.2149530  24.0055720
  29.2801390  46.4208910  24.6829140  28.9988610  45.4537930  23.5526570
  22.2338340  31.0480840  17.2485940  22.1052970  31.0398740  18.1970860
  21.4100360  31.3863930  16.8976950  29.9091250  44.2181880  22.7233170
  30.5513480  43.5175040  22.8365340  30.4340600  44.9980320  22.5430060
  33.7546970  44.5030500  12.4472310  33.5284550  43.7860940  13.0396950
  33.3643170  44.2542940  11.6094060  31.6828870  45.0176780  25.9269230
  32.0185110  45.6043470  26.6047150  30.7629210  44.8869490  26.1567020
  19.5363000  48.5297360  13.2216770  19.8960640  49.1286700  12.5674040
  19.3955340  49.0757250  13.9951800  19.2332270  32.8071960  26.7092640
  18.5190790  33.0068880  27.3145250  19.6527310  32.0311530  27.0807440
  33.3363220  42.4202440  14.1086470  33.0484920  42.8815130  14.8964350
  34.1315390  41.9600210  14.3770690  19.5204860  46.7952220  27.6959170
  19.6295980  45.8546960  27.5554560  18.8685420  47.0606970  27.0472900
  27.5117450  45.0668110  29.0957290  27.1914320  44.3477350  29.6402980
  26.8375810  45.7423180  29.1693350  25.5531620  45.9128560  14.0390440
  25.5441720  46.6458250  13.4234950  24.6329980  45.6660140  14.1317400
  21.1538260  41.1343450  14.7837200  20.5466210  41.8742350  14.7932500
  21.6287610  41.2242810  13.9575400  34.0933080  34.2551210  15.2681650
  33.4646240  34.3596880  14.5539880  33.5985000  34.4747990  16.0575530
  28.5391220  45.9756800  12.7015630  28.6403200  45.7720790  11.7717610
  27.6392960  45.7215080  12.9063410  26.0617110  36.5337160  16.6839530
  25.3533260  37.0023500  17.1253140  26.3461590  35.8759170  17.3184720
  27.6873040  37.9533860  24.6832060  28.1858290  38.4279680  25.3483910
  27.8295990  37.0297380  24.8902090  30.0932540  33.2587820  18.1235320
  29.9700320  33.2773950  17.1744830  31.0417100  33.3066760  18.2433720
  27.1809330  48.4943120  17.3963300  27.4350830  48.4564510  16.4742670
  26.2321810  48.3676450  17.3891550  24.2652130  34.8422240  14.0590240
  25.1142660  35.2792390  13.9930430  23.8983400  35.1542500  14.8862300
  33.1861910  39.4135000  18.9721810  32.2452050  39.4285230  19.1469500
  33.5005980  38.6270960  19.4182110  23.1643550  41.0954600  12.5325770
  23.9306820  40.9835960  13.0951200  23.2418240  40.3992570  11.8802540
  21.8590310  38.5279670  13.2158660  21.9393900  37.5807180  13.3276060
  22.7510060  38.8586550  13.3219320  35.1887490  46.5843850  20.6476070
  35.3134910  47.4075020  21.1199880  36.0553050  46.3734580  20.3000220
  22.6605020  48.6775060  20.3193200  23.3967500  48.1290520  20.5901770
  23.0445940  49.5431070  20.1799190  19.5450500  44.7448630  16.1934710
  18.6190280  44.9869770  16.1840120  20.0106930  45.5722890  16.0719460
  21.6663300  47.8621130  29.5078780  22.4676030  48.1833180  29.9214180
  21.1515120  47.5016710  30.2298690  25.7707330  47.8505370  12.1418770
  26.5635940  48.1394200  11.6900560  25.2511680  47.4197540  11.4631250
  30.5027930  43.9701000  29.4554190  29.8966090  43.9932600  28.7149940
  30.1982040  43.2384040  29.9921440  31.9328300  47.6981290  28.0663600
  32.8850050  47.6139310  28.0163840  31.7856520  48.3623000  28.7397390
  34.8237500  47.0775500  13.5655510  34.5379010  46.6640640  12.7509690
  34.6257050  48.0063210  13.4456030  19.3861110  40.3494590  28.4514830
  19.8900130  39.7701870  29.0231060  18.6468530  40.6334820  28.9891200
  26.2884730  43.0708780  12.0061120  26.1835370  42.4561130  12.7322500
  26.1208950  42.5474670  11.2224130  26.4399050  41.7565580  27.9850350
  25.6744720  42.3250580  27.9005020  26.6215010  41.4641790  27.0918580
  29.5287460  42.1328810  12.6103110  28.9797560  42.5798110  13.2545850
  30.1506720  41.6278060  13.1340780  33.5822400  43.4870910  28.5425370
  34.3231870  43.8246670  28.0392830  32.8195080  43.6562970  27.9895140
  21.4184190  38.4924180  29.3464900  21.4589530  38.1938050  30.2550130
  22.2729690  38.8931790  29.1872420  25.1962580  41.0919730  14.5068410
  25.6179000  40.9259600  15.3499800  25.3213420  40.2819960  14.0123550
  23.3590000  37.0716280  27.3139390  22.8286460  36.5807230  26.6862730
  24.0278070  37.5000480  26.7797320  27.7090220  40.1157340  11.7545510
  28.2295880  39.4006360  11.3886660  28.3558620  40.7543210  12.0546020
  23.8462300  34.0378650  27.3936680  23.7519170  33.4199400  26.6687550
  23.2659690  34.7644940  27.1666590  26.6123740  32.5951890  24.4264070
  26.1641040  32.6176150  23.5809620  25.9788940  32.1970910  25.0234370
  27.0183290  41.4906220  25.0476510  27.4371400  42.3338950  24.8752750
  26.0991920  41.6278260  24.8183290  29.3547190  39.2222400  26.4314350
  29.4743400  38.6263540  27.1709190  30.2141190  39.2592090  26.0115650
  31.6935090  39.7759590  25.0076860  31.1670310  40.3002210  24.4042000
  32.0366430  40.4086980  25.6386590  24.0921480  37.1652960  11.4526570
  23.8910540  36.3020320  11.8139910  23.9213530  37.0786320  10.5148170
  24.8690710  47.7959230  26.1634240  24.3311800  48.5205290  25.8442940
  25.1224670  47.3189570  25.3731580  26.1215960  35.7643750  27.6890170
  26.7115650  35.4559600  28.3767990  25.3036200  35.2923500  27.8450070
  31.5709790  31.9761190  13.9813450  31.8512080  31.1329090  14.3372870
  30.7975520  32.2084300  14.4952200  22.8904280  34.2653580  11.4404450
  23.1930180  34.2721010  10.5323600  23.6298870  33.9151440  11.9372110
  27.7252920  49.0310440  26.4220890  27.6511620  49.9345580  26.7293260
  26.8231760  48.7122340  26.3942960  26.1089210  33.2088200  12.4260650
  25.7611210  32.5312190  11.8463100  26.3101980  32.7477710  13.2404040
  28.2738250  48.1968950  14.0447250  29.1689040  48.5353920  14.0666010
  28.3055880  47.4748360  13.4171530  21.9134410  43.5696000  12.2734250
  22.3509280  44.1125670  12.9291830  22.3982140  42.7442950  12.2830590
  19.1280210  46.3585030  19.7254510  19.4583220  45.4906090  19.4933150
  19.5571210  46.5643550  20.5559470  23.7242130  44.6894040  17.3856480
  23.4237670  44.5659010  18.2860390  23.6179620  43.8302630  16.9772210
  19.6170420  47.2255620  22.4636140  19.1801410  47.4056420  23.2960290
  20.1848100  47.9830240  22.3217860  35.2532600  46.7272620  26.7513450
  34.6534590  46.7865180  26.0077370  35.3826500  45.7877600  26.8810300
  36.4934050  44.4690440  12.0883160  35.6627010  44.5367090  12.5590390
  36.6705880  45.3594560  11.7850020  35.9490510  41.2137920  14.5917360
  36.7109420  41.7834570  14.6977050  35.9644880  40.6465120  15.3625670
  19.4494850  39.7375850  18.8225020  18.7943690  39.4687490  18.1784720
  20.2872800  39.6280330  18.3727000  33.9384240  43.4524600  24.8489610
  33.1244080  43.8821760  25.1115400  34.3458440  44.0643010  24.2358660
  36.0009680  41.5072290  11.7489880  36.2758520  42.4151170  11.6209100
  35.8120420  41.4434820  12.6851870  32.3985290  34.5317140  13.0443510
  32.8170170  34.3448120  12.2040170  32.0921350  33.6796190  13.3546440
  35.8975020  39.4441280  16.7419310  35.5218620  38.6769210  16.3100600
  35.1678140  39.8263980  17.2294240  20.4870780  40.1228420  23.3628360
  20.8543820  40.0355820  24.2424380  19.9181600  39.3594970  23.2635220
  20.0386780  37.0337510  27.2686780  19.1442830  37.0004270  27.6080490
  20.5784330  37.2324300  28.0338030  18.6632930  36.9474780  14.7650350
  17.7597010  37.2104980  14.5902010  19.1473550  37.2185950  13.9850310
  21.2060140  36.0040320  12.6744730  21.9151840  35.5823540  12.1892010
  20.4900080  36.0715550  12.0428080  20.8534300  32.0579650  11.7147380
  21.5762430  32.5988590  12.0328600  21.1258820  31.7843070  10.8388920
  34.6625950  36.9272120  15.9818960  35.1585070  36.6942990  16.7667840
  34.4642020  36.0883960  15.5656600  20.5426490  31.3085840  21.6170000
  21.1902680  30.7583220  21.1765160  20.9628330  31.5628990  22.4385810
  36.9803380  33.3940990  11.7562780  37.9052690  33.2622170  11.5481070
  36.9579170  33.4733810  12.7099230  37.0541870  34.1651650  14.3819490
  36.2593370  34.0996770  14.9112400  37.2585150  35.1002290  14.3704840
  33.9960290  48.2043200  18.3757880  34.5919360  47.8827770  17.6992300
  34.2538440  47.7315020  19.1671150  20.2958490  31.4641510  24.3595320
  19.9473310  31.9205330  25.1253500  19.9646190  30.5698640  24.4417750
  21.9022860  44.6361110  28.5248510  21.8592490  44.2654020  29.4062970
  22.0333870  45.5738680  28.6650330  25.6028890  46.1920700  24.1258230
  25.3620250  46.4595260  23.2388750  26.5431530  46.3626430  24.1809090
  36.8633050  48.2115080  24.9268870  36.3691330  48.6083950  24.2096000
  36.2546340  47.5864290  25.3206150  20.9679130  30.9917710  27.6346090
  21.5162120  30.8105760  26.8712200  21.0334440  30.2011820  28.1702400
  21.7410890  47.5823360  25.6446290  21.1471210  47.4508060  26.3836330
  21.7334730  46.7461500  25.1788390  31.1865910  30.8755590  23.8476320
  30.3125750  31.2090700  23.6449250  31.0776660  30.4028770  24.6728190
  34.5472500  48.8538500  22.2055610  34.0875470  49.6054310  21.8313630
  33.9184960  48.1344970  22.1470410  21.3723120  44.9481740  24.5954330
  20.6457180  44.3287030  24.5280280  21.4332270  45.3422350  23.7252410
  24.9768220  47.1626740  21.3803740  25.4933240  46.5514100  20.8552000
  25.6265600  47.6655520  21.8714750  27.7163720  48.0535230  22.2072720
  28.0041530  47.7989530  21.3305730  28.2286940  47.5012590  22.7978290
  28.9340730  31.7925430  22.7869230  28.1512520  32.2670930  23.0665990
  28.6403660  30.8880260  22.6782410  19.6553120  48.2656130  17.8051090
  19.4875160  47.6326810  18.5032980  18.7887630  48.4715530  17.4545280
  20.2781140  32.0972910  15.3082950  21.0360500  32.2101790  14.7346980
  19.8158310  32.9342110  15.2626380  26.8194950  34.2112180  18.2985260
  26.0069460  33.8369070  17.9581140  27.3236590  33.4557260  18.6006450
  31.3219930  30.8754630  19.5368330  31.9249300  31.4474840  20.0116850
  30.5812920  31.4394070  19.3142230  34.4654530  31.2776190  14.8108610
  34.6605160  32.1759640  15.0776040  33.6784400  31.0463270  15.3041560
  21.2615820  46.9589360  15.2501230  20.7363440  47.3397390  14.5463190
  21.1860400  47.5840130  15.9710940  22.6506290  32.6236960  13.8484920
  23.1799050  31.8366760  13.7192870  23.2834610  33.3028150  14.0820450
  24.8444130  32.3612100  16.9030310  24.2146870  31.6599410  17.0700440
  24.3049270  33.1216230  16.6863470  27.7836080  48.9751330  29.5740920
  28.7103390  48.7395600  29.6176880  27.7686510  49.8023330  29.0926950
  36.0181140  48.5176900  16.5715170  36.1933330  47.8314640  15.9276090
  35.3202710  49.0423950  16.1791840  23.8608790  48.9071740  14.1250480
  24.5927610  48.6231020  13.5774370  24.1202460  48.6685020  15.0149860
  23.0223580  45.0236470  14.1296810  22.3932460  45.4921570  14.6782640
  23.1371410  44.1785690  14.5643000  34.3513640  48.2021190  29.3981960
  35.1438960  47.7070420  29.1907920  34.6446790  48.8811330  30.0057570
  28.6091340  40.8521150   2.1607280  27.8333440  40.3721590   2.4505850
  29.2604270  40.1726800   1.9863440  22.6257170  41.1640960   3.0383040
  21.7942050  40.9089670   3.4379550  23.2338150  41.2351730   3.7740960
  22.6058430  45.1981050   3.2341060  22.9086470  44.3078790   3.0551280
  23.3502020  45.7551270   3.0063310  18.9982130  38.7248500   2.7065130
  19.5698240  37.9570700   2.7068770  18.9983670  39.0237260   1.7971740
  28.0500330  43.5278340   2.1677440  27.9808610  42.5868280   2.0066570
  28.8120190  43.6179750   2.7400010  20.2407000  34.1332860   4.4934060
  20.0609840  33.2358610   4.7736820  19.8387080  34.6804730   5.1681010
  20.8593670  36.6293360   3.1016400  21.5403780  36.8931730   3.7203800
  20.5441720  35.7894230   3.4354410  25.0518240  37.6760720   2.1888990
  25.5596460  38.1741690   2.8294010  25.5831480  36.8995920   2.0128350
  37.1529170  35.8465910   5.8918340  36.4481340  36.2347620   5.3733450
  37.4187090  36.5416200   6.4939270  23.3354340  32.3159280   6.4552410
  23.3372780  32.8331670   5.6498310  22.5058650  31.8389460   6.4322340
  24.5857190  41.9554460   4.6325910  24.2526570  42.5823380   5.2746980
  24.7623870  42.4816340   3.8527580  33.0991100  35.7699540   2.1002250
  32.3946670  36.0584430   2.6805360  33.4603260  36.5799650   1.7401810
  23.0169670  34.0269240   4.4622860  23.3586480  34.8711290   4.1676730
  22.0785480  34.1752980   4.5788200  23.7976290  43.9235260   6.4475090
  24.4150290  44.5986340   6.1659540  22.9369410  44.3323240   6.3562590
  34.7153880  45.3874670   4.3629730  34.0317400  46.0573780   4.3546400
  35.2548170  45.5855320   3.5974590  36.1678020  35.2154330   2.4911460
  35.2202930  35.2493310   2.6226890  36.4928010  36.0293280   2.8760820
  32.2512620  47.2318800   3.0774910  32.2639780  46.8281090   2.2097170
  31.6987840  48.0066090   2.9736340  31.6498060  42.1348640   4.4057520
  32.0666850  41.9208750   3.5710980  32.3737880  42.3921430   4.9766140
  35.5960160  40.5335860   4.4973760  34.7678790  40.6028950   4.0223890
  36.1910640  41.1190170   4.0289590  32.5602170  37.3205180   5.4428630
  32.1473350  38.1458890   5.6968620  31.8278120  36.7350220   5.2504990
  25.1616660  43.7932640   2.4686510  24.8644950  43.1878110   1.7894290
  26.1116480  43.8309950   2.3575870  23.4063580  36.8808290   4.0846340
  23.9578170  36.9903630   3.3099590  23.9207090  37.2545890   4.8001570
  33.2502270  47.3664510   6.1309610  32.7732830  48.1736700   5.9382220
  32.5664060  46.7142840   6.2835820  24.2535090  43.5314330   9.1194310
  23.3563620  43.7554300   9.3667710  24.2787960  43.6549270   8.1705710
  23.0806310  40.4027650   7.6951680  22.9414080  41.2750450   8.0639080
  22.1987670  40.0600460   7.5499620  24.8786660  46.3449350   9.9036830
  24.8502090  46.7492300   9.0365260  24.7151630  45.4159710   9.7408430
  36.8301480  47.1276450  11.2001000  37.3061200  47.6059340  11.8790080
  37.4508640  47.0593940  10.4746500  19.0324960  42.1725200   3.6122590
  19.1105380  42.3073970   2.6678310  19.6466640  41.4641090   3.8050710
  36.2334730  44.3189300   8.3601010  36.3597790  44.0801180   7.4418190
  36.2756110  43.4873840   8.8323090  30.0951470  48.0217300   6.9295820
  30.6096140  47.9325310   7.7318250  29.2520550  48.3677000   7.2223730
  36.0858740  36.3721760   9.3250750  35.4703010  36.8801430   8.7966210
  35.7655160  35.4720090   9.2676690  19.0884480  43.2139370   6.1517050
  19.2515520  42.7444730   5.3336420  19.5536930  42.7062930   6.8165890
  28.1473060  35.2113650   6.7912940  27.6852430  35.4196670   7.6032880
  27.7451170  34.3973000   6.4883610  33.1477570  36.4322600   7.9209600
  32.2971160  36.1328350   8.2418670  32.9879360  36.6764610   7.0093420
  30.2427280  37.9324350  10.0208390  30.5680690  37.0988100   9.6810620
  31.0307610  38.4552870  10.1686720  25.8979150  32.8892460   3.0467220
  26.1951480  33.7955290   2.9659240  26.4464710  32.4011240   2.4326790
  26.0916680  38.3664280   9.5819140  25.9960280  37.4259010   9.4319540
  26.9348660  38.5879350   9.1867210  21.2227220  34.7777950   7.7352920
  20.8290610  35.6253160   7.9425700  20.5345620  34.1404320   7.9261560
  27.7972270  34.8612920  10.8049660  27.1070590  34.6685120  11.4395750
  28.5404570  35.1447560  11.3373960  18.5244270  32.7006410   1.7683000
  18.2357320  33.2709270   2.4807980  19.2690030  32.2210860   2.1314230
  30.0735240  38.7011360   3.6403580  29.3416360  39.2098170   3.9893680
  29.6759580  37.8841340   3.3392360  30.5361150  34.1545040   3.0526520
  30.5533890  34.6053690   3.8968370  30.2876730  33.2550680   3.2659960
  33.9631900  31.5677220   8.8912900  34.2877670  30.8366880   9.4170880
  33.9988410  31.2490860   7.9893890  20.6623460  42.5890800   8.3112860
  20.2778250  41.9484470   8.9095820  20.9735650  43.2926920   8.8807590
  26.8120600  39.4367340   3.7921480  27.1790730  38.9625910   4.5382820
  26.6225660  40.3108910   4.1329820  24.6019970  38.4775980   6.1105690
  24.2977040  39.3567960   6.3356050  25.5566430  38.5375770   6.1463130
  33.8889740  41.6802330   2.4998930  34.6088860  42.1757620   2.1095040
  33.6871560  41.0020220   1.8552800  29.2708540  41.7511390   8.3867930
  29.2045850  40.8307060   8.1325520  28.6413680  41.8486830   9.1012570
  20.6583700  39.3178720   7.2577050  20.2998640  39.9832570   7.8450390
  20.3638260  38.4862270   7.6289670  23.8596820  39.7762960  10.1416600
  23.5596960  39.9220140   9.2444420  24.6308060  39.2168250  10.0489990
  29.2025270  44.5731960   8.1371730  29.2169810  43.6412920   7.9190640
  28.4950370  44.6591720   8.7761500  35.4136480  41.2139300   7.4840310
  34.6884670  41.8068080   7.2869700  35.9411940  41.2062840   6.6853680
  28.6359170  46.2149530   5.2312230  29.2801390  46.4208910   5.9085650
  28.9988610  45.4537930   4.7783080  29.9091250  44.2181880   3.9489680
  30.5513480  43.5175040   4.0621850  30.4340600  44.9980320   3.7686570
  31.6828870  45.0176780   7.1525740  32.0185110  45.6043470   7.8303660
  30.7629210  44.8869490   7.3823530  19.2332270  32.8071960   7.9349150
  18.5190790  33.0068880   8.5401760  19.6527310  32.0311530   8.3063950
  19.5204860  46.7952220   8.9215680  19.6295980  45.8546960   8.7811070
  18.8685420  47.0606970   8.2729410  27.5117450  45.0668110  10.3213800
  27.1914320  44.3477350  10.8659490  26.8375810  45.7423180  10.3949860
  30.7271050  35.2994270   5.6850600  31.0951870  34.4789480   6.0130170
  29.8669250  35.3596160   6.1006250  27.6873040  37.9533860   5.9088570
  28.1858290  38.4279680   6.5740420  27.8295990  37.0297380   6.1158600
  34.8939900  34.1701820   6.7516960  34.3913500  34.9107220   7.0910770
  35.7096560  34.5585820   6.4353750  21.6663300  47.8621130  10.7335290
  22.4676030  48.1833180  11.1470690  21.1515120  47.5016710  11.4555200
  30.5027930  43.9701000  10.6810700  29.8966090  43.9932600   9.9406450
  30.1982040  43.2384040  11.2177950  31.9328300  47.6981290   9.2920110
  32.8850050  47.6139310   9.2420350  31.7856520  48.3623000   9.9653900
  19.3861110  40.3494590   9.6771340  19.8900130  39.7701870  10.2487570
  18.6468530  40.6334820  10.2147710  26.4399050  41.7565580   9.2106860
  25.6744720  42.3250580   9.1261530  26.6215010  41.4641790   8.3175090
  33.5822400  43.4870910   9.7681880  34.3231870  43.8246670   9.2649340
  32.8195080  43.6562970   9.2151650  21.4184190  38.4924180  10.5721410
  21.4589530  38.1938050  11.4806640  22.2729690  38.8931790  10.4128930
  23.3590000  37.0716280   8.5395900  22.8286460  36.5807230   7.9119240
  24.0278070  37.5000480   8.0053830  32.2568060  41.5385740   8.3037090
  32.6709080  41.6930820   9.1527510  31.3219060  41.6640960   8.4662870
  32.7290230  38.8781900  10.3076240  33.3111000  38.1234220  10.2196720
  32.9052000  39.4089340   9.5307720  23.8462300  34.0378650   8.6193190
  23.7519170  33.4199400   7.8944060  23.2659690  34.7644940   8.3923100
  26.6123740  32.5951890   5.6520580  26.1641040  32.6176150   4.8066130
  25.9788940  32.1970910   6.2490880  27.0183290  41.4906220   6.2733020
  27.4371400  42.3338950   6.1009260  26.0991920  41.6278260   6.0439800
  29.3547190  39.2222400   7.6570860  29.4743400  38.6263540   8.3965700
  30.2141190  39.2592090   7.2372160  31.6935090  39.7759590   6.2333370
  31.1670310  40.3002210   5.6298510  32.0366430  40.4086980   6.8643100
  24.8690710  47.7959230   7.3890750  24.3311800  48.5205290   7.0699450
  25.1224670  47.3189570   6.5988090  26.1215960  35.7643750   8.9146680
  26.7115650  35.4559600   9.6024500  25.3036200  35.2923500   9.0706580
  30.9409390  35.3809560   9.1479700  30.2524910  34.7191100   9.0829690
  31.6615410  34.9347830   9.5928160  27.7252920  49.0310440   7.6477400
  27.6511620  49.9345580   7.9549770  26.8231760  48.7122340   7.6199470
  19.6170420  47.2255620   3.6892650  19.1801410  47.4056420   4.5216800
  20.1848100  47.9830240   3.5474370  35.2532600  46.7272620   7.9769960
  34.6534590  46.7865180   7.2333880  35.3826500  45.7877600   8.1066810
  33.9384240  43.4524600   6.0746120  33.1244080  43.8821760   6.3371910
  34.3458440  44.0643010   5.4615170  20.4870780  40.1228420   4.5884870
  20.8543820  40.0355820   5.4680890  19.9181600  39.3594970   4.4891730
  35.2874640  38.5912800   7.6015340  35.0560730  38.3625550   6.7013290
  35.5479190  39.5112350   7.5560230  20.0386780  37.0337510   8.4943290
  19.1442830  37.0004270   8.8337000  20.5784330  37.2324300   9.2594540
  33.7262710  33.8169230  10.3795040  34.6032890  33.8252630  10.7629040
  33.7383550  33.0800070   9.7687390  35.3515700  37.7538640   4.7902610
  34.4018410  37.7202180   4.9047600  35.5328710  38.6638750   4.5552380
  20.5426490  31.3085840   2.8426510  21.1902680  30.7583220   2.4021670
  20.9628330  31.5628990   3.6642320  34.4378830  31.5027200   6.1996150
  35.0751050  32.1161340   6.5655340  34.5853720  31.5387860   5.2545380
  20.2958490  31.4641510   5.5851830  19.9473310  31.9205330   6.3510010
  19.9646190  30.5698640   5.6674260  21.9022860  44.6361110   9.7505020
  21.8592490  44.2654020  10.6319480  22.0333870  45.5738680   9.8906840
  25.6028890  46.1920700   5.3514740  25.3620250  46.4595260   4.4645260
  26.5431530  46.3626430   5.4065600  27.8083310  32.6553390   9.1071250
  27.7472200  33.2475220   9.8566660  28.7483690  32.5479350   8.9621510
  30.4457870  32.3123450   8.7463540  31.0598280  32.6302740   8.0844620
  30.9907430  31.8272040   9.3659400  36.8633050  48.2115080   6.1525380
  36.3691330  48.6083950   5.4352510  36.2546340  47.5864290   6.5462660
  20.9679130  30.9917710   8.8602600  21.5162120  30.8105760   8.0968710
  21.0334440  30.2011820   9.3958910  21.7410890  47.5823360   6.8702800
  21.1471210  47.4508060   7.6092840  21.7334730  46.7461500   6.4044900
  31.1865910  30.8755590   5.0732830  30.3125750  31.2090700   4.8705760
  31.0776660  30.4028770   5.8984700  32.0937890  33.0826460   6.4574550
  31.7651250  32.2678220   6.0776280  33.0420190  33.0396270   6.3340240
  34.5472500  48.8538500   3.4312120  34.0875470  49.6054310   3.0570140
  33.9184960  48.1344970   3.3726920  21.3723120  44.9481740   5.8210840
  20.6457180  44.3287030   5.7536790  21.4332270  45.3422350   4.9508920
  24.9768220  47.1626740   2.6060250  25.4933240  46.5514100   2.0808510
  25.6265600  47.6655520   3.0971260  27.7163720  48.0535230   3.4329230
  28.0041530  47.7989530   2.5562240  28.2286940  47.5012590   4.0234800
  28.9340730  31.7925430   4.0125740  28.1512520  32.2670930   4.2922500
  28.6403660  30.8880260   3.9038920  27.7836080  48.9751330  10.7997430
  28.7103390  48.7395600  10.8433390  27.7686510  49.8023330  10.3183460
  24.9699690  31.6396080  10.5639310  24.6883960  32.1429680   9.8000130
  25.3519390  30.8417830  10.1981440  31.5715150  31.0549660  11.1419780
  31.4580600  31.3744270  12.0371300  32.3884890  31.4562170  10.8457060
  34.3513640  48.2021190  10.6238470  35.1438960  47.7070420  10.4164430
  34.6446790  48.8811330  11.2314080  30.4773300  20.2998640  56.6028480
  30.3967350  19.3853250  56.3320190  30.0637720  20.7965710  55.8968190
  32.6298770  26.4837850  57.2636880  32.1680300  25.7125090  57.5924050
  33.4424320  26.5103920  57.7689330  21.0349120  17.3499360  53.1455900
  20.1465820  17.6915330  53.0435780  21.3190310  17.1499680  52.2536730
  28.8562080  28.7695860  56.8840870  28.2373520  29.2253360  56.3135310
  29.7113860  28.9247320  56.4830570  23.2110510  15.9330860  54.1794280
  23.3177260  16.8334590  54.4863040  22.3002870  15.8848830  53.8888930
  32.8629620  15.0555670  55.6505180  33.6839240  14.5652240  55.6930660
  32.8963700  15.6453330  56.4037020  29.7225430  23.6535100  54.2772780
  29.1042700  24.1184550  53.7135500  30.2348680  24.3462580  54.6942290
  19.0908630  24.3391630  51.6512410  18.7136610  24.8278730  50.9197310
  19.3481700  25.0116910  52.2818940  26.6997560  12.7408020  57.1097920
  27.0072540  12.1854910  56.3933420  25.7698260  12.8752480  56.9270910
  33.5458040  25.1791530  54.4895550  33.4354370  24.2365860  54.6144970
  33.5426290  25.5407170  55.3758310  29.0878320  20.8056850  53.8458040
  28.1607600  20.7394230  54.0746510  29.2403140  21.7436980  53.7313280
  29.0747400  17.0773850  50.8425200  28.1351070  17.2387810  50.9277660
  29.3930660  17.7959530  50.2961190  33.1175610  22.3677150  54.3493290
  32.4988030  22.0296700  53.7019590  33.1000060  21.7236910  55.0572480
  24.6934960  21.3321590  56.6277770  24.2891960  20.6198840  56.1323670
  24.7798080  20.9874830  57.5165810  31.2940310  21.6063960  51.3566040
  31.7333590  20.7686390  51.2103860  32.0068730  22.2393360  51.4430180
  29.4035690  26.5460030  55.3247280  29.8431600  27.2884360  54.9102670
  29.3422580  26.7886600  56.2486240  34.8757450  12.8606770  49.6707080
  34.5630110  12.9533600  50.5706150  35.6369920  13.4387800  49.6204510
  21.3939590  20.2266570  54.1284420  21.2737190  20.9528660  53.5165690
  21.0840480  19.4569480  53.6512330  20.2772590  25.0981900  56.3459240
  19.8700670  25.2396490  55.4912840  21.1685600  24.8142060  56.1430450
  32.0705870  29.5329150  52.6810290  31.9107010  29.2432090  53.5792120
  31.9052580  28.7569280  52.1455520  24.5494250  29.3127680  54.4581910
  24.3736730  28.3963220  54.2449710  23.6949990  29.6714970  54.6979710
  31.7732000  27.0416710  51.2408290  31.0797160  27.0394000  50.5810570
  32.5154860  26.6176030  50.8102460  31.3381930  28.6679420  55.3156780
  31.7938880  27.8868800  55.6295400  31.6774450  29.3786240  55.8597960
  23.8603250  13.5701640  57.5108090  23.4171400  14.3511180  57.1792610
  24.4188240  13.8931530  58.2179030  26.9762070  13.1912340  52.3913920
  26.3516250  13.1872210  53.1167230  26.8892190  12.3243300  51.9949890
  23.6517470  18.6935210  55.2389340  23.4258390  18.4772380  56.1435960
  22.8710000  19.1263670  54.8935310  30.8815230  18.6998580  53.8379990
  30.2824120  19.4234380  53.6543610  31.4294840  18.6375360  53.0556440
  29.4880100  17.3362120  55.8683270  29.8809670  17.6534320  55.0551960
  29.8496950  16.4574000  55.9827790  18.7114500  17.8683040  49.3016190
  18.6289170  18.8113800  49.4431180  18.3597560  17.7257950  48.4228540
  26.5112630  16.6022070  58.3686540  26.5148690  16.1612020  57.5191080
  27.4063750  16.9239400  58.4758360  22.3615010  16.4848560  57.3280750
  22.0215060  16.9623790  58.0847800  21.5992330  16.0313680  56.9681850
  26.5732780  17.6034150  51.3593300  26.6945600  17.5620630  52.3079120
  26.1881290  18.4658300  51.2040030  25.5854280  19.9135290  50.7576600
  25.0171180  19.4653540  50.1312510  26.2943280  20.2728070  50.2241750
  19.6761090  15.4067540  56.2445420  19.3908010  15.0423210  57.0824040
  19.6139950  14.6748000  55.6308560  23.1301760  23.9093480  53.0303010
  22.3564020  23.3691100  52.8701730  23.8596390  23.3900090  52.6920770
  29.3499680  14.2996800  52.9658790  28.5364290  13.8009970  52.8904100
  29.1561630  15.1395050  52.5495140  32.0648070  18.6716450  51.2620950
  32.9527690  18.9833680  51.0872290  32.0353160  17.7988700  50.8701530
  23.1739160  23.5773860  56.6681820  23.6917830  22.7742120  56.6138710
  22.7223180  23.5153000  57.5098650  28.0608660  24.8440140  51.9409120
  28.4024360  25.5882370  51.4452440  27.2321370  25.1571260  52.3033950
  34.3362340  19.9828290  50.7300810  34.2526060  20.4142510  49.8797250
  35.0556530  20.4426640  51.1627630  35.3649590  26.8370550  53.4582940
  34.7225750  26.1826170  53.7326660  34.9780250  27.2425640  52.6823610
  30.9436070  24.1655980  57.3054630  31.2959890  23.5684110  56.6456000
  30.0598400  23.8400210  57.4762880  27.0299350  24.9253670  54.7125040
  27.7170480  25.4722880  55.0932630  26.2431770  25.4694400  54.7474650
  19.1691750  20.5426490  50.2042120  20.0386600  20.8251290  50.4878040
  18.6782070  21.3562360  50.0890930  26.3326560  21.9299700  54.3250400
  26.7889340  22.7404950  54.5510590  25.9814770  21.6122840  55.1568890
  22.2338340  12.2737350  54.7972920  22.1052970  12.2655250  55.7457840
  21.4100360  12.6120440  54.4463930  33.7546970  25.7287010  49.9959290
  33.5284550  25.0117450  50.5883930  33.3643170  25.4799450  49.1581040
  19.5363000  29.7553870  50.7703750  19.8960640  30.3543210  50.1161020
  19.3955340  30.3013760  51.5438780  33.3363220  23.6458950  51.6573450
  33.0484920  24.1071640  52.4451330  34.1315390  23.1856720  51.9257670
  25.5531620  27.1385070  51.5877420  25.5441720  27.8714760  50.9721930
  24.6329980  26.8916650  51.6804380  21.1538260  22.3599960  52.3324180
  20.5466210  23.0998860  52.3419480  21.6287610  22.4499320  51.5062380
  34.0933080  15.4807720  52.8168630  33.4646240  15.5853390  52.1026860
  33.5985000  15.7004500  53.6062510  28.5391220  27.2013310  50.2502610
  28.6403200  26.9977300  49.3204590  27.6392960  26.9471590  50.4550390
  26.0617110  17.7593670  54.2326510  25.3533260  18.2280010  54.6740120
  26.3461590  17.1015680  54.8671700  30.0932540  14.4844330  55.6722300
  29.9700320  14.5030460  54.7231810  31.0417100  14.5323270  55.7920700
  27.1809330  29.7199630  54.9450280  27.4350830  29.6821020  54.0229650
  26.2321810  29.5932960  54.9378530  24.2652130  16.0678750  51.6077220
  25.1142660  16.5048900  51.5417410  23.8983400  16.3799010  52.4349280
  33.1861910  20.6391510  56.5208790  32.2452050  20.6541740  56.6956480
  33.5005980  19.8527470  56.9669090  23.1643550  22.3211110  50.0812750
  23.9306820  22.2092470  50.6438180  23.2418240  21.6249080  49.4289520
  21.8590310  19.7536180  50.7645640  21.9393900  18.8063690  50.8763040
  22.7510060  20.0843060  50.8706300  22.6605020  29.9031570  57.8680180
  23.3967500  29.3547030  58.1388750  23.0445940  30.7687580  57.7286170
  19.5450500  25.9705140  53.7421690  18.6190280  26.2126280  53.7327100
  20.0106930  26.7979400  53.6206440  25.7707330  29.0761880  49.6905750
  26.5635940  29.3650710  49.2387540  25.2511680  28.6454050  49.0118230
  34.8237500  28.3032010  51.1142490  34.5379010  27.8897150  50.2996670
  34.6257050  29.2319720  50.9943010  26.2884730  24.2965290  49.5548100
  26.1835370  23.6817640  50.2809480  26.1208950  23.7731180  48.7711110
  29.5287460  23.3585320  50.1590090  28.9797560  23.8054620  50.8032830
  30.1506720  22.8534570  50.6827760  25.1962580  22.3176240  52.0555390
  25.6179000  22.1516110  52.8986780  25.3213420  21.5076470  51.5610530
  27.7090220  21.3413850  49.3032490  28.2295880  20.6262870  48.9373640
  28.3558620  21.9799720  49.6033000  24.0921480  18.3909470  49.0013550
  23.8910540  17.5276830  49.3626890  23.9213530  18.3042830  48.0635150
  31.5709790  13.2017700  51.5300430  31.8512080  12.3585600  51.8859850
  30.7975520  13.4340810  52.0439180  22.8904280  15.4910090  48.9891430
  23.1930180  15.4977520  48.0810580  23.6298870  15.1407950  49.4859090
  26.1089210  14.4344710  49.9747630  25.7611210  13.7568700  49.3950080
  26.3101980  13.9734220  50.7891020  28.2738250  29.4225460  51.5934230
  29.1689040  29.7610430  51.6152990  28.3055880  28.7004870  50.9658510
  21.9134410  24.7952510  49.8221230  22.3509280  25.3382180  50.4778810
  22.3982140  23.9699460  49.8317570  19.1280210  27.5841540  57.2741490
  19.4583220  26.7162600  57.0420130  19.5571210  27.7900060  58.1046450
  23.7242130  25.9150550  54.9343460  23.4237670  25.7915520  55.8347370
  23.6179620  25.0559140  54.5259190  36.4934050  25.6946950  49.6370140
  35.6627010  25.7623600  50.1077370  36.6705880  26.5851070  49.3337000
  35.9490510  22.4394430  52.1404340  36.7109420  23.0091080  52.2464030
  35.9644880  21.8721630  52.9112650  19.4494850  20.9632360  56.3712000
  18.7943690  20.6944000  55.7271700  20.2872800  20.8536840  55.9213980
  36.9550480  23.2944530  56.9846270  37.3259310  22.5111850  56.5782240
  37.5952410  23.9833630  56.8063570  36.0009680  22.7328800  49.2976860
  36.2758520  23.6407680  49.1696080  35.8120420  22.6691330  50.2338850
  32.3985290  15.7573650  50.5930490  32.8170170  15.5704630  49.7527150
  32.0921350  14.9052700  50.9033420  35.8975020  20.6697790  54.2906290
  35.5218620  19.9025720  53.8587580  35.1678140  21.0520490  54.7781220
  18.6632930  18.1731290  52.3137330  17.7597010  18.4361490  52.1388990
  19.1473550  18.4442460  51.5337290  35.1725980  18.8955280  57.5913530
  35.6963460  18.4017930  56.9603700  35.7585400  19.0305640  58.3361100
  21.2060140  17.2296830  50.2231710  21.9151840  16.8080050  49.7378990
  20.4900080  17.2972060  49.5915060  20.8534300  13.2836160  49.2634360
  21.5762430  13.8245100  49.5815580  21.1258820  13.0099580  48.3875900
  34.6625950  18.1528630  53.5305940  35.1585070  17.9199500  54.3154820
  34.4642020  17.3140470  53.1143580  36.0913110  16.7889580  56.0643620
  35.9812390  16.6345620  57.0025890  36.8520700  16.2610520  55.8219030
  36.9803380  14.6197500  49.3049760  37.9052690  14.4878680  49.0968050
  36.9579170  14.6990320  50.2586210  37.0541870  15.3908160  51.9306470
  36.2593370  15.3253280  52.4599380  37.2585150  16.3258800  51.9191820
  33.9960290  29.4299710  55.9244860  34.5919360  29.1084280  55.2479280
  34.2538440  28.9571530  56.7158130  33.4861800  13.7205040  58.3805300
  33.9269890  13.6650140  57.5326900  33.2169390  14.6363050  58.4515480
  35.3500370  13.3520280  56.3914120  35.2888770  12.4081500  56.2445140
  36.1292400  13.4600370  56.9367580  19.6553120  29.4912640  55.3538070
  19.4875160  28.8583320  56.0519960  18.7887630  29.6972040  55.0032260
  20.2781140  13.3229420  52.8569930  21.0360500  13.4358300  52.2833960
  19.8158310  14.1598620  52.8113360  26.8194950  15.4368690  55.8472240
  26.0069460  15.0625580  55.5068120  27.3236590  14.6813770  56.1493430
  31.3219930  12.1011140  57.0855310  31.9249300  12.6731350  57.5603830
  30.5812920  12.6650580  56.8629210  34.4654530  12.5032700  52.3595590
  34.6605160  13.4016150  52.6263020  33.6784400  12.2719780  52.8528540
  21.2615820  28.1845870  52.7988210  20.7363440  28.5653900  52.0950170
  21.1860400  28.8096640  53.5197920  22.6506290  13.8493470  51.3971900
  23.1799050  13.0623270  51.2679850  23.2834610  14.5284660  51.6307430
  24.8444130  13.5868610  54.4517290  24.2146870  12.8855920  54.6187420
  24.3049270  14.3472740  54.2350450  36.0181140  29.7433410  54.1202150
  36.1933330  29.0571150  53.4763070  35.3202710  30.2680460  53.7278820
  23.8608790  30.1328250  51.6737460  24.5927610  29.8487530  51.1261350
  24.1202460  29.8941530  52.5636840  23.0223580  26.2492980  51.6783790
  22.3932460  26.7178080  52.2269620  23.1371410  25.4042200  52.1129980
  30.4773300  20.2998640  37.8284990  30.3967350  19.3853250  37.5576700
  30.0637720  20.7965710  37.1224700  28.6091340  22.0777660  39.7094260
  27.8333440  21.5978100  39.9992830  29.2604270  21.3983310  39.5350420
  22.6257170  22.3897470  40.5870020  21.7942050  22.1346180  40.9866530
  23.2338150  22.4608240  41.3227940  32.6298770  26.4837850  38.4893390
  32.1680300  25.7125090  38.8180560  33.4424320  26.5103920  38.9945840
  22.6058430  26.4237560  40.7828040  22.9086470  25.5335300  40.6038260
  23.3502020  26.9807780  40.5550290  21.0349120  17.3499360  34.3712410
  20.1465820  17.6915330  34.2692290  21.3190310  17.1499680  33.4793240
  18.9982130  19.9505010  40.2552110  19.5698240  19.1827210  40.2555750
  18.9983670  20.2493770  39.3458720  28.0500330  24.7534850  39.7164420
  27.9808610  23.8124790  39.5553550  28.8120190  24.8436260  40.2886990
  20.2407000  15.3589370  42.0421040  20.0609840  14.4615120  42.3223800
  19.8387080  15.9061240  42.7167990  29.0805500  17.5605230  39.9433350
  29.4570320  16.6877110  39.8307020  28.9825010  17.8963930  39.0523790
  23.2110510  15.9330860  35.4050790  23.3177260  16.8334590  35.7119550
  22.3002870  15.8848830  35.1145440  32.8629620  15.0555670  36.8761690
  33.6839240  14.5652240  36.9187170  32.8963700  15.6453330  37.6293530
  20.8593670  17.8549870  40.6503380  21.5403780  18.1188240  41.2690780
  20.5441720  17.0150740  40.9841390  25.0518240  18.9017230  39.7375970
  25.5596460  19.3998200  40.3780990  25.5831480  18.1252430  39.5615330
  37.1529170  17.0722420  43.4405320  36.4481340  17.4604130  42.9220430
  37.4187090  17.7672710  44.0426250  23.3354340  13.5415790  44.0039390
  23.3372780  14.0588180  43.1985290  22.5058650  13.0645970  43.9809320
  29.7225430  23.6535100  35.5029290  29.1042700  24.1184550  34.9392010
  30.2348680  24.3462580  35.9198800  24.5857190  23.1810970  42.1812890
  24.2526570  23.8079890  42.8233960  24.7623870  23.7072850  41.4014560
  33.0991100  16.9956050  39.6489230  32.3946670  17.2840940  40.2292340
  33.4603260  17.8056160  39.2888790  23.0169670  15.2525750  42.0109840
  23.3586480  16.0967800  41.7163710  22.0785480  15.4009490  42.1275180
  23.7976290  25.1491770  43.9962070  24.4150290  25.8242850  43.7146520
  22.9369410  25.5579750  43.9049570  19.0908630  24.3391630  32.8768920
  18.7136610  24.8278730  32.1453820  19.3481700  25.0116910  33.5075450
  34.7153880  26.6131180  41.9116710  34.0317400  27.2830290  41.9033380
  35.2548170  26.8111830  41.1461570  36.1678020  16.4410840  40.0398440
  35.2202930  16.4749820  40.1713870  36.4928010  17.2549790  40.4247800
  26.6997560  12.7408020  38.3354430  27.0072540  12.1854910  37.6189930
  25.7698260  12.8752480  38.1527420  32.2512620  28.4575310  40.6261890
  32.2639780  28.0537600  39.7584150  31.6987840  29.2322600  40.5223320
  33.5458040  25.1791530  35.7152060  33.4354370  24.2365860  35.8401480
  33.5426290  25.5407170  36.6014820  31.6498060  23.3605150  41.9544500
  32.0666850  23.1465260  41.1197960  32.3737880  23.6177940  42.5253120
  29.0878320  20.8056850  35.0714550  28.1607600  20.7394230  35.3003020
  29.2403140  21.7436980  34.9569790  29.0747400  17.0773850  32.0681710
  28.1351070  17.2387810  32.1534170  29.3930660  17.7959530  31.5217700
  35.5960160  21.7592370  42.0460740  34.7678790  21.8285460  41.5710870
  36.1910640  22.3446680  41.5776570  33.1175610  22.3677150  35.5749800
  32.4988030  22.0296700  34.9276100  33.1000060  21.7236910  36.2828990
  32.5602170  18.5461690  42.9915610  32.1473350  19.3715400  43.2455600
  31.8278120  17.9606730  42.7991970  24.6934960  21.3321590  37.8534280
  24.2891960  20.6198840  37.3580180  24.7798080  20.9874830  38.7422320
  25.1616660  25.0189150  40.0173490  24.8644950  24.4134620  39.3381270
  26.1116480  25.0566460  39.9062850  23.4063580  18.1064800  41.6333320
  23.9578170  18.2160140  40.8586570  23.9207090  18.4802400  42.3488550
  33.2502270  28.5921020  43.6796590  32.7732830  29.3993210  43.4869200
  32.5664060  27.9399350  43.8322800  24.2535090  24.7570840  46.6681290
  23.3563620  24.9810810  46.9154690  24.2787960  24.8805780  45.7192690
  31.2940310  21.6063960  32.5822550  31.7333590  20.7686390  32.4360370
  32.0068730  22.2393360  32.6686690  23.0806310  21.6284160  45.2438660
  22.9414080  22.5006960  45.6126060  22.1987670  21.2856970  45.0986600
  29.4035690  26.5460030  36.5503790  29.8431600  27.2884360  36.1359180
  29.3422580  26.7886600  37.4742750  24.8786660  27.5705860  47.4523810
  24.8502090  27.9748810  46.5852240  24.7151630  26.6416220  47.2895410
  34.8757450  12.8606770  30.8963590  34.5630110  12.9533600  31.7962660
  35.6369920  13.4387800  30.8461020  21.3939590  20.2266570  35.3540930
  21.2737190  20.9528660  34.7422200  21.0840480  19.4569480  34.8768840
  36.8301480  28.3532960  48.7487980  37.3061200  28.8315850  49.4277060
  37.4508640  28.2850450  48.0233480  19.0324960  23.3981710  41.1609570
  19.1105380  23.5330480  40.2165290  19.6466640  22.6897600  41.3537690
  20.2772590  25.0981900  37.5715750  19.8700670  25.2396490  36.7169350
  21.1685600  24.8142060  37.3686960  36.2334730  25.5445810  45.9087990
  36.3597790  25.3057690  44.9905170  36.2756110  24.7130350  46.3810070
  30.0951470  29.2473810  44.4782800  30.6096140  29.1581820  45.2805230
  29.2520550  29.5933510  44.7710710  31.7732000  27.0416710  32.4664800
  31.0797160  27.0394000  31.8067080  32.5154860  26.6176030  32.0358970
  36.0858740  17.5978270  46.8737730  35.4703010  18.1057940  46.3453190
  35.7655160  16.6976600  46.8163670  19.0884480  24.4395880  43.7004030
  19.2515520  23.9701240  42.8823400  19.5536930  23.9319440  44.3652870
  23.8603250  13.5701640  38.7364600  23.4171400  14.3511180  38.4049120
  24.4188240  13.8931530  39.4435540  28.1473060  16.4370160  44.3399920
  27.6852430  16.6453180  45.1519860  27.7451170  15.6229510  44.0370590
  33.1477570  17.6579110  45.4696580  32.2971160  17.3584860  45.7905650
  32.9879360  17.9021120  44.5580400  30.2427280  19.1580860  47.5695370
  30.5680690  18.3244610  47.2297600  31.0307610  19.6809380  47.7173700
  26.9762070  13.1912340  33.6170430  26.3516250  13.1872210  34.3423740
  26.8892190  12.3243300  33.2206400  25.8979150  14.1148970  40.5954200
  26.1951480  15.0211800  40.5146220  26.4464710  13.6267750  39.9813770
  23.6517470  18.6935210  36.4645850  23.4258390  18.4772380  37.3692470
  22.8710000  19.1263670  36.1191820  30.8815230  18.6998580  35.0636500
  30.2824120  19.4234380  34.8800120  31.4294840  18.6375360  34.2812950
  26.0916680  19.5920790  47.1306120  25.9960280  18.6515520  46.9806520
  26.9348660  19.8135860  46.7354190  29.4880100  17.3362120  37.0939780
  29.8809670  17.6534320  36.2808470  29.8496950  16.4574000  37.2084300
  21.2227220  16.0034460  45.2839900  20.8290610  16.8509670  45.4912680
  20.5345620  15.3660830  45.4748540  27.7972270  16.0869430  48.3536640
  27.1070590  15.8941630  48.9882730  28.5404570  16.3704070  48.8860940
  18.5244270  13.9262920  39.3169980  18.2357320  14.4965780  40.0294960
  19.2690030  13.4467370  39.6801210  18.7114500  17.8683040  30.5272700
  18.6289170  18.8113800  30.6687690  18.3597560  17.7257950  29.6485050
  30.0735240  19.9267870  41.1890560  29.3416360  20.4354680  41.5380660
  29.6759580  19.1097850  40.8879340  26.5112630  16.6022070  39.5943050
  26.5148690  16.1612020  38.7447590  27.4063750  16.9239400  39.7014870
  22.3615010  16.4848560  38.5537260  22.0215060  16.9623790  39.3104310
  21.5992330  16.0313680  38.1938360  26.5732780  17.6034150  32.5849810
  26.6945600  17.5620630  33.5335630  26.1881290  18.4658300  32.4296540
  30.5361150  15.3801550  40.6013500  30.5533890  15.8310200  41.4455350
  30.2876730  14.4807190  40.8146940  25.5854280  19.9135290  31.9833110
  25.0171180  19.4653540  31.3569020  26.2943280  20.2728070  31.4498260
  33.9631900  12.7933730  46.4399880  34.2877670  12.0623390  46.9657860
  33.9988410  12.4747370  45.5380870  20.6623460  23.8147310  45.8599840
  20.2778250  23.1740980  46.4582800  20.9735650  24.5183430  46.4294570
  26.8120600  20.6623850  41.3408460  27.1790730  20.1882420  42.0869800
  26.6225660  21.5365420  41.6816800  19.6761090  15.4067540  37.4701930
  19.3908010  15.0423210  38.3080550  19.6139950  14.6748000  36.8565070
  24.6019970  19.7032490  43.6592670  24.2977040  20.5824470  43.8843030
  25.5566430  19.7632280  43.6950110  23.1301760  23.9093480  34.2559520
  22.3564020  23.3691100  34.0958240  23.8596390  23.3900090  33.9177280
  33.8889740  22.9058840  40.0485910  34.6088860  23.4014130  39.6582020
  33.6871560  22.2276730  39.4039780  29.3499680  14.2996800  34.1915300
  28.5364290  13.8009970  34.1160610  29.1561630  15.1395050  33.7751650
  29.2708540  22.9767900  45.9354910  29.2045850  22.0563570  45.6812500
  28.6413680  23.0743340  46.6499550  32.0648070  18.6716450  32.4877460
  32.9527690  18.9833680  32.3128800  32.0353160  17.7988700  32.0958040
  23.1739160  23.5773860  37.8938330  23.6917830  22.7742120  37.8395220
  22.7223180  23.5153000  38.7355160  28.0608660  24.8440140  33.1665630
  28.4024360  25.5882370  32.6708950  27.2321370  25.1571260  33.5290460
  20.6583700  20.5435230  44.8064030  20.2998640  21.2089080  45.3937370
  20.3638260  19.7118780  45.1776650  23.8596820  21.0019470  47.6903580
  23.5596960  21.1476650  46.7931400  24.6308060  20.4424760  47.5976970
  29.2025270  25.7988470  45.6858710  29.2169810  24.8669430  45.4677620
  28.4950370  25.8848230  46.3248480  34.3362340  19.9828290  31.9557320
  34.2526060  20.4142510  31.1053760  35.0556530  20.4426640  32.3884140
  35.4136480  22.4395810  45.0327290  34.6884670  23.0324590  44.8356680
  35.9411940  22.4319350  44.2340660  35.3649590  26.8370550  34.6839450
  34.7225750  26.1826170  34.9583170  34.9780250  27.2425640  33.9080120
  30.9436070  24.1655980  38.5311140  31.2959890  23.5684110  37.8712510
  30.0598400  23.8400210  38.7019390  27.0299350  24.9253670  35.9381550
  27.7170480  25.4722880  36.3189140  26.2431770  25.4694400  35.9731160
  19.1691750  20.5426490  31.4298630  20.0386600  20.8251290  31.7134550
  18.6782070  21.3562360  31.3147440  26.3326560  21.9299700  35.5506910
  26.7889340  22.7404950  35.7767100  25.9814770  21.6122840  36.3825400
  28.6359170  27.4406040  42.7799210  29.2801390  27.6465420  43.4572630
  28.9988610  26.6794440  42.3270060  22.2338340  12.2737350  36.0229430
  22.1052970  12.2655250  36.9714350  21.4100360  12.6120440  35.6720440
  29.9091250  25.4438390  41.4976660  30.5513480  24.7431550  41.6108830
  30.4340600  26.2236830  41.3173550  33.7546970  25.7287010  31.2215800
  33.5284550  25.0117450  31.8140440  33.3643170  25.4799450  30.3837550
  31.6828870  26.2433290  44.7012720  32.0185110  26.8299980  45.3790640
  30.7629210  26.1126000  44.9310510  19.2332270  14.0328470  45.4836130
  18.5190790  14.2325390  46.0888740  19.6527310  13.2568040  45.8550930
  33.3363220  23.6458950  32.8829960  33.0484920  24.1071640  33.6707840
  34.1315390  23.1856720  33.1514180  19.5204860  28.0208730  46.4702660
  19.6295980  27.0803470  46.3298050  18.8685420  28.2863480  45.8216390
  27.5117450  26.2924620  47.8700780  27.1914320  25.5733860  48.4146470
  26.8375810  26.9679690  47.9436840  25.5531620  27.1385070  32.8133930
  25.5441720  27.8714760  32.1978440  24.6329980  26.8916650  32.9060890
  21.1538260  22.3599960  33.5580690  20.5466210  23.0998860  33.5675990
  21.6287610  22.4499320  32.7318890  30.7271050  16.5250780  43.2337580
  31.0951870  15.7045990  43.5617150  29.8669250  16.5852670  43.6493230
  34.0933080  15.4807720  34.0425140  33.4646240  15.5853390  33.3283370
  33.5985000  15.7004500  34.8319020  26.0617110  17.7593670  35.4583020
  25.3533260  18.2280010  35.8996630  26.3461590  17.1015680  36.0928210
  27.6873040  19.1790370  43.4575550  28.1858290  19.6536190  44.1227400
  27.8295990  18.2553890  43.6645580  30.0932540  14.4844330  36.8978810
  29.9700320  14.5030460  35.9488320  31.0417100  14.5323270  37.0177210
  24.2652130  16.0678750  32.8333730  25.1142660  16.5048900  32.7673920
  23.8983400  16.3799010  33.6605790  34.8939900  15.3958330  44.3003940
  34.3913500  16.1363730  44.6397750  35.7096560  15.7842330  43.9840730
  33.1861910  20.6391510  37.7465300  32.2452050  20.6541740  37.9212990
  33.5005980  19.8527470  38.1925600  23.1643550  22.3211110  31.3069260
  23.9306820  22.2092470  31.8694690  23.2418240  21.6249080  30.6546030
  21.8590310  19.7536180  31.9902150  21.9393900  18.8063690  32.1019550
  22.7510060  20.0843060  32.0962810  35.1887490  27.8100360  39.4219560
  35.3134910  28.6331530  39.8943370  36.0553050  27.5991090  39.0743710
  19.5450500  25.9705140  34.9678200  18.6190280  26.2126280  34.9583610
  20.0106930  26.7979400  34.8462950  21.6663300  29.0877640  48.2822270
  22.4676030  29.4089690  48.6957670  21.1515120  28.7273220  49.0042180
  30.5027930  25.1957510  48.2297680  29.8966090  25.2189110  47.4893430
  30.1982040  24.4640550  48.7664930  31.9328300  28.9237800  46.8407090
  32.8850050  28.8395820  46.7907330  31.7856520  29.5879510  47.5140880
  34.8237500  28.3032010  32.3399000  34.5379010  27.8897150  31.5253180
  34.6257050  29.2319720  32.2199520  19.3861110  21.5751100  47.2258320
  19.8900130  20.9958380  47.7974550  18.6468530  21.8591330  47.7634690
  26.2884730  24.2965290  30.7804610  26.1835370  23.6817640  31.5065990
  26.1208950  23.7731180  29.9967620  26.4399050  22.9822090  46.7593840
  25.6744720  23.5507090  46.6748510  26.6215010  22.6898300  45.8662070
  29.5287460  23.3585320  31.3846600  28.9797560  23.8054620  32.0289340
  30.1506720  22.8534570  31.9084270  33.5822400  24.7127420  47.3168860
  34.3231870  25.0503180  46.8136320  32.8195080  24.8819480  46.7638630
  21.4184190  19.7180690  48.1208390  21.4589530  19.4194560  49.0293620
  22.2729690  20.1188300  47.9615910  25.1962580  22.3176240  33.2811900
  25.6179000  22.1516110  34.1243290  25.3213420  21.5076470  32.7867040
  23.3590000  18.2972790  46.0882880  22.8286460  17.8063740  45.4606220
  24.0278070  18.7256990  45.5540810  27.7090220  21.3413850  30.5289000
  28.2295880  20.6262870  30.1630150  28.3558620  21.9799720  30.8289510
  32.2568060  22.7642250  45.8524070  32.6709080  22.9187330  46.7014490
  31.3219060  22.8897470  46.0149850  32.7290230  20.1038410  47.8563220
  33.3111000  19.3490730  47.7683700  32.9052000  20.6345850  47.0794700
  23.8462300  15.2635160  46.1680170  23.7519170  14.6455910  45.4431040
  23.2659690  15.9901450  45.9410080  26.6123740  13.8208400  43.2007560
  26.1641040  13.8432660  42.3553110  25.9788940  13.4227420  43.7977860
  27.0183290  22.7162730  43.8220000  27.4371400  23.5595460  43.6496240
  26.0991920  22.8534770  43.5926780  29.3547190  20.4478910  45.2057840
  29.4743400  19.8520050  45.9452680  30.2141190  20.4848600  44.7859140
  31.6935090  21.0016100  43.7820350  31.1670310  21.5258720  43.1785490
  32.0366430  21.6343490  44.4130080  24.0921480  18.3909470  30.2270060
  23.8910540  17.5276830  30.5883400  23.9213530  18.3042830  29.2891660
  24.8690710  29.0215740  44.9377730  24.3311800  29.7461800  44.6186430
  25.1224670  28.5446080  44.1475070  26.1215960  16.9900260  46.4633660
  26.7115650  16.6816110  47.1511480  25.3036200  16.5180010  46.6193560
  30.9409390  16.6066070  46.6966680  30.2524910  15.9447610  46.6316670
  31.6615410  16.1604340  47.1415140  31.5709790  13.2017700  32.7556940
  31.8512080  12.3585600  33.1116360  30.7975520  13.4340810  33.2695690
  22.8904280  15.4910090  30.2147940  23.1930180  15.4977520  29.3067090
  23.6298870  15.1407950  30.7115600  27.7252920  30.2566950  45.1964380
  27.6511620  31.1602090  45.5036750  26.8231760  29.9378850  45.1686450
  26.1089210  14.4344710  31.2004140  25.7611210  13.7568700  30.6206590
  26.3101980  13.9734220  32.0147530  21.9134410  24.7952510  31.0477740
  22.3509280  25.3382180  31.7035320  22.3982140  23.9699460  31.0574080
  23.7242130  25.9150550  36.1599970  23.4237670  25.7915520  37.0603880
  23.6179620  25.0559140  35.7515700  35.2532600  27.9529130  45.5256940
  34.6534590  28.0121690  44.7820860  35.3826500  27.0134110  45.6553790
  36.4934050  25.6946950  30.8626650  35.6627010  25.7623600  31.3333880
  36.6705880  26.5851070  30.5593510  35.9490510  22.4394430  33.3660850
  36.7109420  23.0091080  33.4720540  35.9644880  21.8721630  34.1369160
  19.4494850  20.9632360  37.5968510  18.7943690  20.6944000  36.9528210
  20.2872800  20.8536840  37.1470490  36.9550480  23.2944530  38.2102780
  37.3259310  22.5111850  37.8038750  37.5952410  23.9833630  38.0320080
  33.9384240  24.6781110  43.6233100  33.1244080  25.1078270  43.8858890
  34.3458440  25.2899520  43.0102150  36.0009680  22.7328800  30.5233370
  36.2758520  23.6407680  30.3952590  35.8120420  22.6691330  31.4595360
  32.3985290  15.7573650  31.8187000  32.8170170  15.5704630  30.9783660
  32.0921350  14.9052700  32.1289930  35.8975020  20.6697790  35.5162800
  35.5218620  19.9025720  35.0844090  35.1678140  21.0520490  36.0037730
  20.4870780  21.3484930  42.1371850  20.8543820  21.2612330  43.0167870
  19.9181600  20.5851480  42.0378710  35.2874640  19.8169310  45.1502320
  35.0560730  19.5882060  44.2500270  35.5479190  20.7368860  45.1047210
  20.0386780  18.2594020  46.0430270  19.1442830  18.2260780  46.3823980
  20.5784330  18.4580810  46.8081520  33.7262710  15.0425740  47.9282020
  34.6032890  15.0509140  48.3116020  33.7383550  14.3056580  47.3174370
  18.6632930  18.1731290  33.5393840  17.7597010  18.4361490  33.3645500
  19.1473550  18.4442460  32.7593800  35.1725980  18.8955280  38.8170040
  35.6963460  18.4017930  38.1860210  35.7585400  19.0305640  39.5617610
  35.3515700  18.9795150  42.3389590  34.4018410  18.9458690  42.4534580
  35.5328710  19.8895260  42.1039360  21.2060140  17.2296830  31.4488220
  21.9151840  16.8080050  30.9635500  20.4900080  17.2972060  30.8171570
  20.8534300  13.2836160  30.4890870  21.5762430  13.8245100  30.8072090
  21.1258820  13.0099580  29.6132410  34.6625950  18.1528630  34.7562450
  35.1585070  17.9199500  35.5411330  34.4642020  17.3140470  34.3400090
  20.5426490  12.5342350  40.3913490  21.1902680  11.9839730  39.9508650
  20.9628330  12.7885500  41.2129300  36.0913110  16.7889580  37.2900130
  35.9812390  16.6345620  38.2282400  36.8520700  16.2610520  37.0475540
  34.4378830  12.7283710  43.7483130  35.0751050  13.3417850  44.1142320
  34.5853720  12.7644370  42.8032360  36.9803380  14.6197500  30.5306270
  37.9052690  14.4878680  30.3224560  36.9579170  14.6990320  31.4842720
  37.0541870  15.3908160  33.1562980  36.2593370  15.3253280  33.6855890
  37.2585150  16.3258800  33.1448330  33.9960290  29.4299710  37.1501370
  34.5919360  29.1084280  36.4735790  34.2538440  28.9571530  37.9414640
  20.2958490  12.6898020  43.1338810  19.9473310  13.1461840  43.8996990
  19.9646190  11.7955150  43.2161240  21.9022860  25.8617620  47.2992000
  21.8592490  25.4910530  48.1806460  22.0333870  26.7995190  47.4393820
  25.6028890  27.4177210  42.9001720  25.3620250  27.6851770  42.0132240
  26.5431530  27.5882940  42.9552580  27.8083310  13.8809900  46.6558230
  27.7472200  14.4731730  47.4053640  28.7483690  13.7735860  46.5108490
  30.4457870  13.5379960  46.2950520  31.0598280  13.8559250  45.6331600
  30.9907430  13.0528550  46.9146380  36.8633050  29.4371590  43.7012360
  36.3691330  29.8340460  42.9839490  36.2546340  28.8120800  44.0949640
  20.9679130  12.2174220  46.4089580  21.5162120  12.0362270  45.6455690
  21.0334440  11.4268330  46.9445890  21.7410890  28.8079870  44.4189780
  21.1471210  28.6764570  45.1579820  21.7334730  27.9718010  43.9531880
  31.1865910  12.1012100  42.6219810  30.3125750  12.4347210  42.4192740
  31.0776660  11.6285280  43.4471680  32.0937890  14.3082970  44.0061530
  31.7651250  13.4934730  43.6263260  33.0420190  14.2652780  43.8827220
  34.5472500  30.0795010  40.9799100  34.0875470  30.8310820  40.6057120
  33.9184960  29.3601480  40.9213900  21.3723120  26.1738250  43.3697820
  20.6457180  25.5543540  43.3023770  21.4332270  26.5678860  42.4995900
  27.7163720  29.2791740  40.9816210  28.0041530  29.0246040  40.1049220
  28.2286940  28.7269100  41.5721780  28.9340730  13.0181940  41.5612720
  28.1512520  13.4927440  41.8409480  28.6403660  12.1136770  41.4525900
  33.4861800  13.7205040  39.6061810  33.9269890  13.6650140  38.7583410
  33.2169390  14.6363050  39.6771990  35.3500370  13.3520280  37.6170630
  35.2888770  12.4081500  37.4701650  36.1292400  13.4600370  38.1624090
  20.2781140  13.3229420  34.0826440  21.0360500  13.4358300  33.5090470
  19.8158310  14.1598620  34.0369870  26.8194950  15.4368690  37.0728750
  26.0069460  15.0625580  36.7324630  27.3236590  14.6813770  37.3749940
  31.3219930  12.1011140  38.3111820  31.9249300  12.6731350  38.7860340
  30.5812920  12.6650580  38.0885720  34.4654530  12.5032700  33.5852100
  34.6605160  13.4016150  33.8519530  33.6784400  12.2719780  34.0785050
  22.6506290  13.8493470  32.6228410  23.1799050  13.0623270  32.4936360
  23.2834610  14.5284660  32.8563940  24.8444130  13.5868610  35.6773800
  24.2146870  12.8855920  35.8443930  24.3049270  14.3472740  35.4606960
  27.7836080  30.2007840  48.3484410  28.7103390  29.9652110  48.3920370
  27.7686510  31.0279840  47.8670440  36.0181140  29.7433410  35.3458660
  36.1933330  29.0571150  34.7019580  35.3202710  30.2680460  34.9535330
  24.9699690  12.8652590  48.1126290  24.6883960  13.3686190  47.3487110
  25.3519390  12.0674340  47.7468420  23.0223580  26.2492980  32.9040300
  22.3932460  26.7178080  33.4526130  23.1371410  25.4042200  33.3386490
  31.5715150  12.2806170  48.6906760  31.4580600  12.6000780  49.5858280
  32.3884890  12.6818680  48.3944040  34.3513640  29.4277700  48.1725450
  35.1438960  28.9326930  47.9651410  34.6446790  30.1067840  48.7801060
  30.4773300  20.2998640  19.0541500  30.3967350  19.3853250  18.7833210
  30.0637720  20.7965710  18.3481210  28.6091340  22.0777660  20.9350770
  27.8333440  21.5978100  21.2249340  29.2604270  21.3983310  20.7606930
  22.6257170  22.3897470  21.8126530  21.7942050  22.1346180  22.2123040
  23.2338150  22.4608240  22.5484450  32.6298770  26.4837850  19.7149900
  32.1680300  25.7125090  20.0437070  33.4424320  26.5103920  20.2202350
  22.6058430  26.4237560  22.0084550  22.9086470  25.5335300  21.8294770
  23.3502020  26.9807780  21.7806800  21.0349120  17.3499360  15.5968920
  20.1465820  17.6915330  15.4948800  21.3190310  17.1499680  14.7049750
  18.9982130  19.9505010  21.4808620  19.5698240  19.1827210  21.4812260
  18.9983670  20.2493770  20.5715230  28.8562080  28.7695860  19.3353890
  28.2373520  29.2253360  18.7648330  29.7113860  28.9247320  18.9343590
  28.0500330  24.7534850  20.9420930  27.9808610  23.8124790  20.7810060
  28.8120190  24.8436260  21.5143500  20.2407000  15.3589370  23.2677550
  20.0609840  14.4615120  23.5480310  19.8387080  15.9061240  23.9424500
  29.0805500  17.5605230  21.1689860  29.4570320  16.6877110  21.0563530
  28.9825010  17.8963930  20.2780300  23.2110510  15.9330860  16.6307300
  23.3177260  16.8334590  16.9376060  22.3002870  15.8848830  16.3401950
  32.8629620  15.0555670  18.1018200  33.6839240  14.5652240  18.1443680
  32.8963700  15.6453330  18.8550040  20.8593670  17.8549870  21.8759890
  21.5403780  18.1188240  22.4947290  20.5441720  17.0150740  22.2097900
  25.0518240  18.9017230  20.9632480  25.5596460  19.3998200  21.6037500
  25.5831480  18.1252430  20.7871840  37.1529170  17.0722420  24.6661830
  36.4481340  17.4604130  24.1476940  37.4187090  17.7672710  25.2682760
  23.3354340  13.5415790  25.2295900  23.3372780  14.0588180  24.4241800
  22.5058650  13.0645970  25.2065830  29.7225430  23.6535100  16.7285800
  29.1042700  24.1184550  16.1648520  30.2348680  24.3462580  17.1455310
  24.5857190  23.1810970  23.4069400  24.2526570  23.8079890  24.0490470
  24.7623870  23.7072850  22.6271070  33.0991100  16.9956050  20.8745740
  32.3946670  17.2840940  21.4548850  33.4603260  17.8056160  20.5145300
  23.0169670  15.2525750  23.2366350  23.3586480  16.0967800  22.9420220
  22.0785480  15.4009490  23.3531690  23.7976290  25.1491770  25.2218580
  24.4150290  25.8242850  24.9403030  22.9369410  25.5579750  25.1306080
  19.0908630  24.3391630  14.1025430  18.7136610  24.8278730  13.3710330
  19.3481700  25.0116910  14.7331960  34.7153880  26.6131180  23.1373220
  34.0317400  27.2830290  23.1289890  35.2548170  26.8111830  22.3718080
  36.1678020  16.4410840  21.2654950  35.2202930  16.4749820  21.3970380
  36.4928010  17.2549790  21.6504310  26.6997560  12.7408020  19.5610940
  27.0072540  12.1854910  18.8446440  25.7698260  12.8752480  19.3783930
  32.2512620  28.4575310  21.8518400  32.2639780  28.0537600  20.9840660
  31.6987840  29.2322600  21.7479830  33.5458040  25.1791530  16.9408570
  33.4354370  24.2365860  17.0657990  33.5426290  25.5407170  17.8271330
  31.6498060  23.3605150  23.1801010  32.0666850  23.1465260  22.3454470
  32.3737880  23.6177940  23.7509630  29.0878320  20.8056850  16.2971060
  28.1607600  20.7394230  16.5259530  29.2403140  21.7436980  16.1826300
  29.0747400  17.0773850  13.2938220  28.1351070  17.2387810  13.3790680
  29.3930660  17.7959530  12.7474210  35.5960160  21.7592370  23.2717250
  34.7678790  21.8285460  22.7967380  36.1910640  22.3446680  22.8033080
  33.1175610  22.3677150  16.8006310  32.4988030  22.0296700  16.1532610
  33.1000060  21.7236910  17.5085500  32.5602170  18.5461690  24.2172120
  32.1473350  19.3715400  24.4712110  31.8278120  17.9606730  24.0248480
  24.6934960  21.3321590  19.0790790  24.2891960  20.6198840  18.5836690
  24.7798080  20.9874830  19.9678830  25.1616660  25.0189150  21.2430000
  24.8644950  24.4134620  20.5637780  26.1116480  25.0566460  21.1319360
  23.4063580  18.1064800  22.8589830  23.9578170  18.2160140  22.0843080
  23.9207090  18.4802400  23.5745060  33.2502270  28.5921020  24.9053100
  32.7732830  29.3993210  24.7125710  32.5664060  27.9399350  25.0579310
  24.2535090  24.7570840  27.8937800  23.3563620  24.9810810  28.1411200
  24.2787960  24.8805780  26.9449200  31.2940310  21.6063960  13.8079060
  31.7333590  20.7686390  13.6616880  32.0068730  22.2393360  13.8943200
  23.0806310  21.6284160  26.4695170  22.9414080  22.5006960  26.8382570
  22.1987670  21.2856970  26.3243110  29.4035690  26.5460030  17.7760300
  29.8431600  27.2884360  17.3615690  29.3422580  26.7886600  18.6999260
  34.8757450  12.8606770  12.1220100  34.5630110  12.9533600  13.0219170
  35.6369920  13.4387800  12.0717530  21.3939590  20.2266570  16.5797440
  21.2737190  20.9528660  15.9678710  21.0840480  19.4569480  16.1025350
  36.8301480  28.3532960  29.9744490  37.3061200  28.8315850  30.6533570
  37.4508640  28.2850450  29.2489990  19.0324960  23.3981710  22.3866080
  19.1105380  23.5330480  21.4421800  19.6466640  22.6897600  22.5794200
  20.2772590  25.0981900  18.7972260  19.8700670  25.2396490  17.9425860
  21.1685600  24.8142060  18.5943470  30.0951470  29.2473810  25.7039310
  30.6096140  29.1581820  26.5061740  29.2520550  29.5933510  25.9967220
  32.0705870  29.5329150  15.1323310  31.9107010  29.2432090  16.0305140
  31.9052580  28.7569280  14.5968540  24.5494250  29.3127680  16.9094930
  24.3736730  28.3963220  16.6962730  23.6949990  29.6714970  17.1492730
  31.7732000  27.0416710  13.6921310  31.0797160  27.0394000  13.0323590
  32.5154860  26.6176030  13.2615480  31.3381930  28.6679420  17.7669800
  31.7938880  27.8868800  18.0808420  31.6774450  29.3786240  18.3110980
  36.0858740  17.5978270  28.0994240  35.4703010  18.1057940  27.5709700
  35.7655160  16.6976600  28.0420180  19.0884480  24.4395880  24.9260540
  19.2515520  23.9701240  24.1079910  19.5536930  23.9319440  25.5909380
  23.8603250  13.5701640  19.9621110  23.4171400  14.3511180  19.6305630
  24.4188240  13.8931530  20.6692050  28.1473060  16.4370160  25.5656430
  27.6852430  16.6453180  26.3776370  27.7451170  15.6229510  25.2627100
  33.1477570  17.6579110  26.6953090  32.2971160  17.3584860  27.0162160
  32.9879360  17.9021120  25.7836910  30.2427280  19.1580860  28.7951880
  30.5680690  18.3244610  28.4554110  31.0307610  19.6809380  28.9430210
  26.9762070  13.1912340  14.8426940  26.3516250  13.1872210  15.5680250
  26.8892190  12.3243300  14.4462910  25.8979150  14.1148970  21.8210710
  26.1951480  15.0211800  21.7402730  26.4464710  13.6267750  21.2070280
  23.6517470  18.6935210  17.6902360  23.4258390  18.4772380  18.5948980
  22.8710000  19.1263670  17.3448330  30.8815230  18.6998580  16.2893010
  30.2824120  19.4234380  16.1056630  31.4294840  18.6375360  15.5069460
  26.0916680  19.5920790  28.3562630  25.9960280  18.6515520  28.2063030
  26.9348660  19.8135860  27.9610700  29.4880100  17.3362120  18.3196290
  29.8809670  17.6534320  17.5064980  29.8496950  16.4574000  18.4340810
  21.2227220  16.0034460  26.5096410  20.8290610  16.8509670  26.7169190
  20.5345620  15.3660830  26.7005050  27.7972270  16.0869430  29.5793150
  27.1070590  15.8941630  30.2139240  28.5404570  16.3704070  30.1117450
  18.5244270  13.9262920  20.5426490  18.2357320  14.4965780  21.2551470
  19.2690030  13.4467370  20.9057720  18.7114500  17.8683040  11.7529210
  18.6289170  18.8113800  11.8944200  18.3597560  17.7257950  10.8741560
  30.0735240  19.9267870  22.4147070  29.3416360  20.4354680  22.7637170
  29.6759580  19.1097850  22.1135850  26.5112630  16.6022070  20.8199560
  26.5148690  16.1612020  19.9704100  27.4063750  16.9239400  20.9271380
  22.3615010  16.4848560  19.7793770  22.0215060  16.9623790  20.5360820
  21.5992330  16.0313680  19.4194870  26.5732780  17.6034150  13.8106320
  26.6945600  17.5620630  14.7592140  26.1881290  18.4658300  13.6553050
  30.5361150  15.3801550  21.8270010  30.5533890  15.8310200  22.6711860
  30.2876730  14.4807190  22.0403450  25.5854280  19.9135290  13.2089620
  25.0171180  19.4653540  12.5825530  26.2943280  20.2728070  12.6754770
  33.9631900  12.7933730  27.6656390  34.2877670  12.0623390  28.1914370
  33.9988410  12.4747370  26.7637380  20.6623460  23.8147310  27.0856350
  20.2778250  23.1740980  27.6839310  20.9735650  24.5183430  27.6551080
  26.8120600  20.6623850  22.5664970  27.1790730  20.1882420  23.3126310
  26.6225660  21.5365420  22.9073310  19.6761090  15.4067540  18.6958440
  19.3908010  15.0423210  19.5337060  19.6139950  14.6748000  18.0821580
  24.6019970  19.7032490  24.8849180  24.2977040  20.5824470  25.1099540
  25.5566430  19.7632280  24.9206620  23.1301760  23.9093480  15.4816030
  22.3564020  23.3691100  15.3214750  23.8596390  23.3900090  15.1433790
  33.8889740  22.9058840  21.2742420  34.6088860  23.4014130  20.8838530
  33.6871560  22.2276730  20.6296290  29.3499680  14.2996800  15.4171810
  28.5364290  13.8009970  15.3417120  29.1561630  15.1395050  15.0008160
  29.2708540  22.9767900  27.1611420  29.2045850  22.0563570  26.9069010
  28.6413680  23.0743340  27.8756060  32.0648070  18.6716450  13.7133970
  32.9527690  18.9833680  13.5385310  32.0353160  17.7988700  13.3214550
  23.1739160  23.5773860  19.1194840  23.6917830  22.7742120  19.0651730
  22.7223180  23.5153000  19.9611670  28.0608660  24.8440140  14.3922140
  28.4024360  25.5882370  13.8965460  27.2321370  25.1571260  14.7546970
  20.6583700  20.5435230  26.0320540  20.2998640  21.2089080  26.6193880
  20.3638260  19.7118780  26.4033160  23.8596820  21.0019470  28.9160090
  23.5596960  21.1476650  28.0187910  24.6308060  20.4424760  28.8233480
  29.2025270  25.7988470  26.9115220  29.2169810  24.8669430  26.6934130
  28.4950370  25.8848230  27.5504990  34.3362340  19.9828290  13.1813830
  34.2526060  20.4142510  12.3310270  35.0556530  20.4426640  13.6140650
  35.4136480  22.4395810  26.2583800  34.6884670  23.0324590  26.0613190
  35.9411940  22.4319350  25.4597170  35.3649590  26.8370550  15.9095960
  34.7225750  26.1826170  16.1839680  34.9780250  27.2425640  15.1336630
  30.9436070  24.1655980  19.7567650  31.2959890  23.5684110  19.0969020
  30.0598400  23.8400210  19.9275900  27.0299350  24.9253670  17.1638060
  27.7170480  25.4722880  17.5445650  26.2431770  25.4694400  17.1987670
  19.1691750  20.5426490  12.6555140  20.0386600  20.8251290  12.9391060
  18.6782070  21.3562360  12.5403950  26.3326560  21.9299700  16.7763420
  26.7889340  22.7404950  17.0023610  25.9814770  21.6122840  17.6081910
  28.6359170  27.4406040  24.0055720  29.2801390  27.6465420  24.6829140
  28.9988610  26.6794440  23.5526570  22.2338340  12.2737350  17.2485940
  22.1052970  12.2655250  18.1970860  21.4100360  12.6120440  16.8976950
  29.9091250  25.4438390  22.7233170  30.5513480  24.7431550  22.8365340
  30.4340600  26.2236830  22.5430060  33.7546970  25.7287010  12.4472310
  33.5284550  25.0117450  13.0396950  33.3643170  25.4799450  11.6094060
  31.6828870  26.2433290  25.9269230  32.0185110  26.8299980  26.6047150
  30.7629210  26.1126000  26.1567020  19.5363000  29.7553870  13.2216770
  19.8960640  30.3543210  12.5674040  19.3955340  30.3013760  13.9951800
  19.2332270  14.0328470  26.7092640  18.5190790  14.2325390  27.3145250
  19.6527310  13.2568040  27.0807440  33.3363220  23.6458950  14.1086470
  33.0484920  24.1071640  14.8964350  34.1315390  23.1856720  14.3770690
  19.5204860  28.0208730  27.6959170  19.6295980  27.0803470  27.5554560
  18.8685420  28.2863480  27.0472900  25.5531620  27.1385070  14.0390440
  25.5441720  27.8714760  13.4234950  24.6329980  26.8916650  14.1317400
  21.1538260  22.3599960  14.7837200  20.5466210  23.0998860  14.7932500
  21.6287610  22.4499320  13.9575400  30.7271050  16.5250780  24.4594090
  31.0951870  15.7045990  24.7873660  29.8669250  16.5852670  24.8749740
  34.0933080  15.4807720  15.2681650  33.4646240  15.5853390  14.5539880
  33.5985000  15.7004500  16.0575530  28.5391220  27.2013310  12.7015630
  28.6403200  26.9977300  11.7717610  27.6392960  26.9471590  12.9063410
  26.0617110  17.7593670  16.6839530  25.3533260  18.2280010  17.1253140
  26.3461590  17.1015680  17.3184720  27.6873040  19.1790370  24.6832060
  28.1858290  19.6536190  25.3483910  27.8295990  18.2553890  24.8902090
  30.0932540  14.4844330  18.1235320  29.9700320  14.5030460  17.1744830
  31.0417100  14.5323270  18.2433720  27.1809330  29.7199630  17.3963300
  27.4350830  29.6821020  16.4742670  26.2321810  29.5932960  17.3891550
  24.2652130  16.0678750  14.0590240  25.1142660  16.5048900  13.9930430
  23.8983400  16.3799010  14.8862300  34.8939900  15.3958330  25.5260450
  34.3913500  16.1363730  25.8654260  35.7096560  15.7842330  25.2097240
  33.1861910  20.6391510  18.9721810  32.2452050  20.6541740  19.1469500
  33.5005980  19.8527470  19.4182110  23.1643550  22.3211110  12.5325770
  23.9306820  22.2092470  13.0951200  23.2418240  21.6249080  11.8802540
  21.8590310  19.7536180  13.2158660  21.9393900  18.8063690  13.3276060
  22.7510060  20.0843060  13.3219320  35.1887490  27.8100360  20.6476070
  35.3134910  28.6331530  21.1199880  36.0553050  27.5991090  20.3000220
  22.6605020  29.9031570  20.3193200  23.3967500  29.3547030  20.5901770
  23.0445940  30.7687580  20.1799190  19.5450500  25.9705140  16.1934710
  18.6190280  26.2126280  16.1840120  20.0106930  26.7979400  16.0719460
  21.6663300  29.0877640  29.5078780  22.4676030  29.4089690  29.9214180
  21.1515120  28.7273220  30.2298690  25.7707330  29.0761880  12.1418770
  26.5635940  29.3650710  11.6900560  25.2511680  28.6454050  11.4631250
  30.5027930  25.1957510  29.4554190  29.8966090  25.2189110  28.7149940
  30.1982040  24.4640550  29.9921440  31.9328300  28.9237800  28.0663600
  32.8850050  28.8395820  28.0163840  31.7856520  29.5879510  28.7397390
  34.8237500  28.3032010  13.5655510  34.5379010  27.8897150  12.7509690
  34.6257050  29.2319720  13.4456030  19.3861110  21.5751100  28.4514830
  19.8900130  20.9958380  29.0231060  18.6468530  21.8591330  28.9891200
  26.2884730  24.2965290  12.0061120  26.1835370  23.6817640  12.7322500
  26.1208950  23.7731180  11.2224130  26.4399050  22.9822090  27.9850350
  25.6744720  23.5507090  27.9005020  26.6215010  22.6898300  27.0918580
  29.5287460  23.3585320  12.6103110  28.9797560  23.8054620  13.2545850
  30.1506720  22.8534570  13.1340780  33.5822400  24.7127420  28.5425370
  34.3231870  25.0503180  28.0392830  32.8195080  24.8819480  27.9895140
  21.4184190  19.7180690  29.3464900  21.4589530  19.4194560  30.2550130
  22.2729690  20.1188300  29.1872420  25.1962580  22.3176240  14.5068410
  25.6179000  22.1516110  15.3499800  25.3213420  21.5076470  14.0123550
  23.3590000  18.2972790  27.3139390  22.8286460  17.8063740  26.6862730
  24.0278070  18.7256990  26.7797320  27.7090220  21.3413850  11.7545510
  28.2295880  20.6262870  11.3886660  28.3558620  21.9799720  12.0546020
  32.2568060  22.7642250  27.0780580  32.6709080  22.9187330  27.9271000
  31.3219060  22.8897470  27.2406360  32.7290230  20.1038410  29.0819730
  33.3111000  19.3490730  28.9940210  32.9052000  20.6345850  28.3051210
  23.8462300  15.2635160  27.3936680  23.7519170  14.6455910  26.6687550
  23.2659690  15.9901450  27.1666590  26.6123740  13.8208400  24.4264070
  26.1641040  13.8432660  23.5809620  25.9788940  13.4227420  25.0234370
  27.0183290  22.7162730  25.0476510  27.4371400  23.5595460  24.8752750
  26.0991920  22.8534770  24.8183290  29.3547190  20.4478910  26.4314350
  29.4743400  19.8520050  27.1709190  30.2141190  20.4848600  26.0115650
  31.6935090  21.0016100  25.0076860  31.1670310  21.5258720  24.4042000
  32.0366430  21.6343490  25.6386590  24.0921480  18.3909470  11.4526570
  23.8910540  17.5276830  11.8139910  23.9213530  18.3042830  10.5148170
  24.8690710  29.0215740  26.1634240  24.3311800  29.7461800  25.8442940
  25.1224670  28.5446080  25.3731580  26.1215960  16.9900260  27.6890170
  26.7115650  16.6816110  28.3767990  25.3036200  16.5180010  27.8450070
  30.9409390  16.6066070  27.9223190  30.2524910  15.9447610  27.8573180
  31.6615410  16.1604340  28.3671650  31.5709790  13.2017700  13.9813450
  31.8512080  12.3585600  14.3372870  30.7975520  13.4340810  14.4952200
  22.8904280  15.4910090  11.4404450  23.1930180  15.4977520  10.5323600
  23.6298870  15.1407950  11.9372110  27.7252920  30.2566950  26.4220890
  27.6511620  31.1602090  26.7293260  26.8231760  29.9378850  26.3942960
  26.1089210  14.4344710  12.4260650  25.7611210  13.7568700  11.8463100
  26.3101980  13.9734220  13.2404040  28.2738250  29.4225460  14.0447250
  29.1689040  29.7610430  14.0666010  28.3055880  28.7004870  13.4171530
  21.9134410  24.7952510  12.2734250  22.3509280  25.3382180  12.9291830
  22.3982140  23.9699460  12.2830590  19.1280210  27.5841540  19.7254510
  19.4583220  26.7162600  19.4933150  19.5571210  27.7900060  20.5559470
  23.7242130  25.9150550  17.3856480  23.4237670  25.7915520  18.2860390
  23.6179620  25.0559140  16.9772210  19.6170420  28.4512130  22.4636140
  19.1801410  28.6312930  23.2960290  20.1848100  29.2086750  22.3217860
  36.4934050  25.6946950  12.0883160  35.6627010  25.7623600  12.5590390
  36.6705880  26.5851070  11.7850020  35.9490510  22.4394430  14.5917360
  36.7109420  23.0091080  14.6977050  35.9644880  21.8721630  15.3625670
  19.4494850  20.9632360  18.8225020  18.7943690  20.6944000  18.1784720
  20.2872800  20.8536840  18.3727000  36.9550480  23.2944530  19.4359290
  37.3259310  22.5111850  19.0295260  37.5952410  23.9833630  19.2576590
  33.9384240  24.6781110  24.8489610  33.1244080  25.1078270  25.1115400
  34.3458440  25.2899520  24.2358660  36.0009680  22.7328800  11.7489880
  36.2758520  23.6407680  11.6209100  35.8120420  22.6691330  12.6851870
  32.3985290  15.7573650  13.0443510  32.8170170  15.5704630  12.2040170
  32.0921350  14.9052700  13.3546440  35.8975020  20.6697790  16.7419310
  35.5218620  19.9025720  16.3100600  35.1678140  21.0520490  17.2294240
  20.4870780  21.3484930  23.3628360  20.8543820  21.2612330  24.2424380
  19.9181600  20.5851480  23.2635220  35.2874640  19.8169310  26.3758830
  35.0560730  19.5882060  25.4756780  35.5479190  20.7368860  26.3303720
  20.0386780  18.2594020  27.2686780  19.1442830  18.2260780  27.6080490
  20.5784330  18.4580810  28.0338030  33.7262710  15.0425740  29.1538530
  34.6032890  15.0509140  29.5372530  33.7383550  14.3056580  28.5430880
  18.6632930  18.1731290  14.7650350  17.7597010  18.4361490  14.5902010
  19.1473550  18.4442460  13.9850310  35.1725980  18.8955280  20.0426550
  35.6963460  18.4017930  19.4116720  35.7585400  19.0305640  20.7874120
  35.3515700  18.9795150  23.5646100  34.4018410  18.9458690  23.6791090
  35.5328710  19.8895260  23.3295870  21.2060140  17.2296830  12.6744730
  21.9151840  16.8080050  12.1892010  20.4900080  17.2972060  12.0428080
  20.8534300  13.2836160  11.7147380  21.5762430  13.8245100  12.0328600
  21.1258820  13.0099580  10.8388920  34.6625950  18.1528630  15.9818960
  35.1585070  17.9199500  16.7667840  34.4642020  17.3140470  15.5656600
  20.5426490  12.5342350  21.6170000  21.1902680  11.9839730  21.1765160
  20.9628330  12.7885500  22.4385810  36.0913110  16.7889580  18.5156640
  35.9812390  16.6345620  19.4538910  36.8520700  16.2610520  18.2732050
  34.4378830  12.7283710  24.9739640  35.0751050  13.3417850  25.3398830
  34.5853720  12.7644370  24.0288870  36.9803380  14.6197500  11.7562780
  37.9052690  14.4878680  11.5481070  36.9579170  14.6990320  12.7099230
  37.0541870  15.3908160  14.3819490  36.2593370  15.3253280  14.9112400
  37.2585150  16.3258800  14.3704840  33.9960290  29.4299710  18.3757880
  34.5919360  29.1084280  17.6992300  34.2538440  28.9571530  19.1671150
  20.2958490  12.6898020  24.3595320  19.9473310  13.1461840  25.1253500
  19.9646190  11.7955150  24.4417750  21.9022860  25.8617620  28.5248510
  21.8592490  25.4910530  29.4062970  22.0333870  26.7995190  28.6650330
  25.6028890  27.4177210  24.1258230  25.3620250  27.6851770  23.2388750
  26.5431530  27.5882940  24.1809090  27.8083310  13.8809900  27.8814740
  27.7472200  14.4731730  28.6310150  28.7483690  13.7735860  27.7365000
  30.4457870  13.5379960  27.5207030  31.0598280  13.8559250  26.8588110
  30.9907430  13.0528550  28.1402890  20.9679130  12.2174220  27.6346090
  21.5162120  12.0362270  26.8712200  21.0334440  11.4268330  28.1702400
  21.7410890  28.8079870  25.6446290  21.1471210  28.6764570  26.3836330
  21.7334730  27.9718010  25.1788390  31.1865910  12.1012100  23.8476320
  30.3125750  12.4347210  23.6449250  31.0776660  11.6285280  24.6728190
  32.0937890  14.3082970  25.2318040  31.7651250  13.4934730  24.8519770
  33.0420190  14.2652780  25.1083730  34.5472500  30.0795010  22.2055610
  34.0875470  30.8310820  21.8313630  33.9184960  29.3601480  22.1470410
  21.3723120  26.1738250  24.5954330  20.6457180  25.5543540  24.5280280
  21.4332270  26.5678860  23.7252410  24.9768220  28.3883250  21.3803740
  25.4933240  27.7770610  20.8552000  25.6265600  28.8912030  21.8714750
  27.7163720  29.2791740  22.2072720  28.0041530  29.0246040  21.3305730
  28.2286940  28.7269100  22.7978290  28.9340730  13.0181940  22.7869230
  28.1512520  13.4927440  23.0665990  28.6403660  12.1136770  22.6782410
  33.4861800  13.7205040  20.8318320  33.9269890  13.6650140  19.9839920
  33.2169390  14.6363050  20.9028500  35.3500370  13.3520280  18.8427140
  35.2888770  12.4081500  18.6958160  36.1292400  13.4600370  19.3880600
  19.6553120  29.4912640  17.8051090  19.4875160  28.8583320  18.5032980
  18.7887630  29.6972040  17.4545280  20.2781140  13.3229420  15.3082950
  21.0360500  13.4358300  14.7346980  19.8158310  14.1598620  15.2626380
  26.8194950  15.4368690  18.2985260  26.0069460  15.0625580  17.9581140
  27.3236590  14.6813770  18.6006450  31.3219930  12.1011140  19.5368330
  31.9249300  12.6731350  20.0116850  30.5812920  12.6650580  19.3142230
  34.4654530  12.5032700  14.8108610  34.6605160  13.4016150  15.0776040
  33.6784400  12.2719780  15.3041560  21.2615820  28.1845870  15.2501230
  20.7363440  28.5653900  14.5463190  21.1860400  28.8096640  15.9710940
  22.6506290  13.8493470  13.8484920  23.1799050  13.0623270  13.7192870
  23.2834610  14.5284660  14.0820450  24.8444130  13.5868610  16.9030310
  24.2146870  12.8855920  17.0700440  24.3049270  14.3472740  16.6863470
  36.0181140  29.7433410  16.5715170  36.1933330  29.0571150  15.9276090
  35.3202710  30.2680460  16.1791840  24.9699690  12.8652590  29.3382800
  24.6883960  13.3686190  28.5743620  25.3519390  12.0674340  28.9724930
  23.8608790  30.1328250  14.1250480  24.5927610  29.8487530  13.5774370
  24.1202460  29.8941530  15.0149860  23.0223580  26.2492980  14.1296810
  22.3932460  26.7178080  14.6782640  23.1371410  25.4042200  14.5643000
  31.5715150  12.2806170  29.9163270  31.4580600  12.6000780  30.8114790
  32.3884890  12.6818680  29.6200550  28.6091340  22.0777660   2.1607280
  27.8333440  21.5978100   2.4505850  29.2604270  21.3983310   1.9863440
  22.6257170  22.3897470   3.0383040  21.7942050  22.1346180   3.4379550
  23.2338150  22.4608240   3.7740960  22.6058430  26.4237560   3.2341060
  22.9086470  25.5335300   3.0551280  23.3502020  26.9807780   3.0063310
  18.9982130  19.9505010   2.7065130  19.5698240  19.1827210   2.7068770
  18.9983670  20.2493770   1.7971740  28.0500330  24.7534850   2.1677440
  27.9808610  23.8124790   2.0066570  28.8120190  24.8436260   2.7400010
  20.2407000  15.3589370   4.4934060  20.0609840  14.4615120   4.7736820
  19.8387080  15.9061240   5.1681010  20.8593670  17.8549870   3.1016400
  21.5403780  18.1188240   3.7203800  20.5441720  17.0150740   3.4354410
  25.0518240  18.9017230   2.1888990  25.5596460  19.3998200   2.8294010
  25.5831480  18.1252430   2.0128350  37.1529170  17.0722420   5.8918340
  36.4481340  17.4604130   5.3733450  37.4187090  17.7672710   6.4939270
  23.3354340  13.5415790   6.4552410  23.3372780  14.0588180   5.6498310
  22.5058650  13.0645970   6.4322340  24.5857190  23.1810970   4.6325910
  24.2526570  23.8079890   5.2746980  24.7623870  23.7072850   3.8527580
  33.0991100  16.9956050   2.1002250  32.3946670  17.2840940   2.6805360
  33.4603260  17.8056160   1.7401810  23.0169670  15.2525750   4.4622860
  23.3586480  16.0967800   4.1676730  22.0785480  15.4009490   4.5788200
  23.7976290  25.1491770   6.4475090  24.4150290  25.8242850   6.1659540
  22.9369410  25.5579750   6.3562590  34.7153880  26.6131180   4.3629730
  34.0317400  27.2830290   4.3546400  35.2548170  26.8111830   3.5974590
  36.1678020  16.4410840   2.4911460  35.2202930  16.4749820   2.6226890
  36.4928010  17.2549790   2.8760820  32.2512620  28.4575310   3.0774910
  32.2639780  28.0537600   2.2097170  31.6987840  29.2322600   2.9736340
  31.6498060  23.3605150   4.4057520  32.0666850  23.1465260   3.5710980
  32.3737880  23.6177940   4.9766140  35.5960160  21.7592370   4.4973760
  34.7678790  21.8285460   4.0223890  36.1910640  22.3446680   4.0289590
  32.5602170  18.5461690   5.4428630  32.1473350  19.3715400   5.6968620
  31.8278120  17.9606730   5.2504990  25.1616660  25.0189150   2.4686510
  24.8644950  24.4134620   1.7894290  26.1116480  25.0566460   2.3575870
  23.4063580  18.1064800   4.0846340  23.9578170  18.2160140   3.3099590
  23.9207090  18.4802400   4.8001570  33.2502270  28.5921020   6.1309610
  32.7732830  29.3993210   5.9382220  32.5664060  27.9399350   6.2835820
  24.2535090  24.7570840   9.1194310  23.3563620  24.9810810   9.3667710
  24.2787960  24.8805780   8.1705710  23.0806310  21.6284160   7.6951680
  22.9414080  22.5006960   8.0639080  22.1987670  21.2856970   7.5499620
  24.8786660  27.5705860   9.9036830  24.8502090  27.9748810   9.0365260
  24.7151630  26.6416220   9.7408430  36.8301480  28.3532960  11.2001000
  37.3061200  28.8315850  11.8790080  37.4508640  28.2850450  10.4746500
  19.0324960  23.3981710   3.6122590  19.1105380  23.5330480   2.6678310
  19.6466640  22.6897600   3.8050710  36.2334730  25.5445810   8.3601010
  36.3597790  25.3057690   7.4418190  36.2756110  24.7130350   8.8323090
  30.0951470  29.2473810   6.9295820  30.6096140  29.1581820   7.7318250
  29.2520550  29.5933510   7.2223730  36.0858740  17.5978270   9.3250750
  35.4703010  18.1057940   8.7966210  35.7655160  16.6976600   9.2676690
  19.0884480  24.4395880   6.1517050  19.2515520  23.9701240   5.3336420
  19.5536930  23.9319440   6.8165890  28.1473060  16.4370160   6.7912940
  27.6852430  16.6453180   7.6032880  27.7451170  15.6229510   6.4883610
  33.1477570  17.6579110   7.9209600  32.2971160  17.3584860   8.2418670
  32.9879360  17.9021120   7.0093420  30.2427280  19.1580860  10.0208390
  30.5680690  18.3244610   9.6810620  31.0307610  19.6809380  10.1686720
  25.8979150  14.1148970   3.0467220  26.1951480  15.0211800   2.9659240
  26.4464710  13.6267750   2.4326790  26.0916680  19.5920790   9.5819140
  25.9960280  18.6515520   9.4319540  26.9348660  19.8135860   9.1867210
  21.2227220  16.0034460   7.7352920  20.8290610  16.8509670   7.9425700
  20.5345620  15.3660830   7.9261560  27.7972270  16.0869430  10.8049660
  27.1070590  15.8941630  11.4395750  28.5404570  16.3704070  11.3373960
  18.5244270  13.9262920   1.7683000  18.2357320  14.4965780   2.4807980
  19.2690030  13.4467370   2.1314230  30.0735240  19.9267870   3.6403580
  29.3416360  20.4354680   3.9893680  29.6759580  19.1097850   3.3392360
  30.5361150  15.3801550   3.0526520  30.5533890  15.8310200   3.8968370
  30.2876730  14.4807190   3.2659960  33.9631900  12.7933730   8.8912900
  34.2877670  12.0623390   9.4170880  33.9988410  12.4747370   7.9893890
  20.6623460  23.8147310   8.3112860  20.2778250  23.1740980   8.9095820
  20.9735650  24.5183430   8.8807590  26.8120600  20.6623850   3.7921480
  27.1790730  20.1882420   4.5382820  26.6225660  21.5365420   4.1329820
  24.6019970  19.7032490   6.1105690  24.2977040  20.5824470   6.3356050
  25.5566430  19.7632280   6.1463130  33.8889740  22.9058840   2.4998930
  34.6088860  23.4014130   2.1095040  33.6871560  22.2276730   1.8552800
  29.2708540  22.9767900   8.3867930  29.2045850  22.0563570   8.1325520
  28.6413680  23.0743340   9.1012570  20.6583700  20.5435230   7.2577050
  20.2998640  21.2089080   7.8450390  20.3638260  19.7118780   7.6289670
  23.8596820  21.0019470  10.1416600  23.5596960  21.1476650   9.2444420
  24.6308060  20.4424760  10.0489990  29.2025270  25.7988470   8.1371730
  29.2169810  24.8669430   7.9190640  28.4950370  25.8848230   8.7761500
  35.4136480  22.4395810   7.4840310  34.6884670  23.0324590   7.2869700
  35.9411940  22.4319350   6.6853680  28.6359170  27.4406040   5.2312230
  29.2801390  27.6465420   5.9085650  28.9988610  26.6794440   4.7783080
  29.9091250  25.4438390   3.9489680  30.5513480  24.7431550   4.0621850
  30.4340600  26.2236830   3.7686570  31.6828870  26.2433290   7.1525740
  32.0185110  26.8299980   7.8303660  30.7629210  26.1126000   7.3823530
  19.2332270  14.0328470   7.9349150  18.5190790  14.2325390   8.5401760
  19.6527310  13.2568040   8.3063950  19.5204860  28.0208730   8.9215680
  19.6295980  27.0803470   8.7811070  18.8685420  28.2863480   8.2729410
  27.5117450  26.2924620  10.3213800  27.1914320  25.5733860  10.8659490
  26.8375810  26.9679690  10.3949860  30.7271050  16.5250780   5.6850600
  31.0951870  15.7045990   6.0130170  29.8669250  16.5852670   6.1006250
  27.6873040  19.1790370   5.9088570  28.1858290  19.6536190   6.5740420
  27.8295990  18.2553890   6.1158600  34.8939900  15.3958330   6.7516960
  34.3913500  16.1363730   7.0910770  35.7096560  15.7842330   6.4353750
  21.6663300  29.0877640  10.7335290  22.4676030  29.4089690  11.1470690
  21.1515120  28.7273220  11.4555200  30.5027930  25.1957510  10.6810700
  29.8966090  25.2189110   9.9406450  30.1982040  24.4640550  11.2177950
  31.9328300  28.9237800   9.2920110  32.8850050  28.8395820   9.2420350
  31.7856520  29.5879510   9.9653900  19.3861110  21.5751100   9.6771340
  19.8900130  20.9958380  10.2487570  18.6468530  21.8591330  10.2147710
  26.4399050  22.9822090   9.2106860  25.6744720  23.5507090   9.1261530
  26.6215010  22.6898300   8.3175090  33.5822400  24.7127420   9.7681880
  34.3231870  25.0503180   9.2649340  32.8195080  24.8819480   9.2151650
  21.4184190  19.7180690  10.5721410  21.4589530  19.4194560  11.4806640
  22.2729690  20.1188300  10.4128930  23.3590000  18.2972790   8.5395900
  22.8286460  17.8063740   7.9119240  24.0278070  18.7256990   8.0053830
  32.2568060  22.7642250   8.3037090  32.6709080  22.9187330   9.1527510
  31.3219060  22.8897470   8.4662870  32.7290230  20.1038410  10.3076240
  33.3111000  19.3490730  10.2196720  32.9052000  20.6345850   9.5307720
  23.8462300  15.2635160   8.6193190  23.7519170  14.6455910   7.8944060
  23.2659690  15.9901450   8.3923100  26.6123740  13.8208400   5.6520580
  26.1641040  13.8432660   4.8066130  25.9788940  13.4227420   6.2490880
  27.0183290  22.7162730   6.2733020  27.4371400  23.5595460   6.1009260
  26.0991920  22.8534770   6.0439800  29.3547190  20.4478910   7.6570860
  29.4743400  19.8520050   8.3965700  30.2141190  20.4848600   7.2372160
  31.6935090  21.0016100   6.2333370  31.1670310  21.5258720   5.6298510
  32.0366430  21.6343490   6.8643100  24.8690710  29.0215740   7.3890750
  24.3311800  29.7461800   7.0699450  25.1224670  28.5446080   6.5988090
  26.1215960  16.9900260   8.9146680  26.7115650  16.6816110   9.6024500
  25.3036200  16.5180010   9.0706580  30.9409390  16.6066070   9.1479700
  30.2524910  15.9447610   9.0829690  31.6615410  16.1604340   9.5928160
  27.7252920  30.2566950   7.6477400  27.6511620  31.1602090   7.9549770
  26.8231760  29.9378850   7.6199470  19.6170420  28.4512130   3.6892650
  19.1801410  28.6312930   4.5216800  20.1848100  29.2086750   3.5474370
  35.2532600  27.9529130   7.9769960  34.6534590  28.0121690   7.2333880
  35.3826500  27.0134110   8.1066810  33.9384240  24.6781110   6.0746120
  33.1244080  25.1078270   6.3371910  34.3458440  25.2899520   5.4615170
  20.4870780  21.3484930   4.5884870  20.8543820  21.2612330   5.4680890
  19.9181600  20.5851480   4.4891730  35.2874640  19.8169310   7.6015340
  35.0560730  19.5882060   6.7013290  35.5479190  20.7368860   7.5560230
  20.0386780  18.2594020   8.4943290  19.1442830  18.2260780   8.8337000
  20.5784330  18.4580810   9.2594540  33.7262710  15.0425740  10.3795040
  34.6032890  15.0509140  10.7629040  33.7383550  14.3056580   9.7687390
  35.3515700  18.9795150   4.7902610  34.4018410  18.9458690   4.9047600
  35.5328710  19.8895260   4.5552380  20.5426490  12.5342350   2.8426510
  21.1902680  11.9839730   2.4021670  20.9628330  12.7885500   3.6642320
  34.4378830  12.7283710   6.1996150  35.0751050  13.3417850   6.5655340
  34.5853720  12.7644370   5.2545380  20.2958490  12.6898020   5.5851830
  19.9473310  13.1461840   6.3510010  19.9646190  11.7955150   5.6674260
  21.9022860  25.8617620   9.7505020  21.8592490  25.4910530  10.6319480
  22.0333870  26.7995190   9.8906840  25.6028890  27.4177210   5.3514740
  25.3620250  27.6851770   4.4645260  26.5431530  27.5882940   5.4065600
  27.8083310  13.8809900   9.1071250  27.7472200  14.4731730   9.8566660
  28.7483690  13.7735860   8.9621510  30.4457870  13.5379960   8.7463540
  31.0598280  13.8559250   8.0844620  30.9907430  13.0528550   9.3659400
  36.8633050  29.4371590   6.1525380  36.3691330  29.8340460   5.4352510
  36.2546340  28.8120800   6.5462660  20.9679130  12.2174220   8.8602600
  21.5162120  12.0362270   8.0968710  21.0334440  11.4268330   9.3958910
  21.7410890  28.8079870   6.8702800  21.1471210  28.6764570   7.6092840
  21.7334730  27.9718010   6.4044900  31.1865910  12.1012100   5.0732830
  30.3125750  12.4347210   4.8705760  31.0776660  11.6285280   5.8984700
  32.0937890  14.3082970   6.4574550  31.7651250  13.4934730   6.0776280
  33.0420190  14.2652780   6.3340240  34.5472500  30.0795010   3.4312120
  34.0875470  30.8310820   3.0570140  33.9184960  29.3601480   3.3726920
  21.3723120  26.1738250   5.8210840  20.6457180  25.5543540   5.7536790
  21.4332270  26.5678860   4.9508920  24.9768220  28.3883250   2.6060250
  25.4933240  27.7770610   2.0808510  25.6265600  28.8912030   3.0971260
  27.7163720  29.2791740   3.4329230  28.0041530  29.0246040   2.5562240
  28.2286940  28.7269100   4.0234800  28.9340730  13.0181940   4.0125740
  28.1512520  13.4927440   4.2922500  28.6403660  12.1136770   3.9038920
  27.7836080  30.2007840  10.7997430  28.7103390  29.9652110  10.8433390
  27.7686510  31.0279840  10.3183460  24.9699690  12.8652590  10.5639310
  24.6883960  13.3686190   9.8000130  25.3519390  12.0674340  10.1981440
  31.5715150  12.2806170  11.1419780  31.4580600  12.6000780  12.0371300
  32.3884890  12.6818680  10.8457060  34.3513640  29.4277700  10.6238470
  35.1438960  28.9326930  10.4164430  34.6446790  30.1067840  11.2314080
  32.6298770   7.7094360  57.2636880  32.1680300   6.9381600  57.5924050
  33.4424320   7.7360430  57.7689330  28.8562080   9.9952370  56.8840870
  28.2373520  10.4509870  56.3135310  29.7113860  10.1503830  56.4830570
  29.7225430   4.8791610  54.2772780  29.1042700   5.3441060  53.7135500
  30.2348680   5.5719090  54.6942290  19.0908630   5.5648140  51.6512410
  18.7136610   6.0535240  50.9197310  19.3481700   6.2373420  52.2818940
  33.5458040   6.4048040  54.4895550  33.4354370   5.4622370  54.6144970
  33.5426290   6.7663680  55.3758310  29.0878320   2.0313360  53.8458040
  28.1607600   1.9650740  54.0746510  29.2403140   2.9693490  53.7313280
  33.1175610   3.5933660  54.3493290  32.4988030   3.2553210  53.7019590
  33.1000060   2.9493420  55.0572480  24.6934960   2.5578100  56.6277770
  24.2891960   1.8455350  56.1323670  24.7798080   2.2131340  57.5165810
  31.2940310   2.8320470  51.3566040  31.7333590   1.9942900  51.2103860
  32.0068730   3.4649870  51.4430180  29.4035690   7.7716540  55.3247280
  29.8431600   8.5140870  54.9102670  29.3422580   8.0143110  56.2486240
  20.2772590   6.3238410  56.3459240  19.8700670   6.4653000  55.4912840
  21.1685600   6.0398570  56.1430450  32.0705870  10.7585660  52.6810290
  31.9107010  10.4688600  53.5792120  31.9052580   9.9825790  52.1455520
  24.5494250  10.5384190  54.4581910  24.3736730   9.6219730  54.2449710
  23.6949990  10.8971480  54.6979710  31.7732000   8.2673220  51.2408290
  31.0797160   8.2650510  50.5810570  32.5154860   7.8432540  50.8102460
  31.3381930   9.8935930  55.3156780  31.7938880   9.1125310  55.6295400
  31.6774450  10.6042750  55.8597960  23.1301760   5.1349990  53.0303010
  22.3564020   4.5947610  52.8701730  23.8596390   4.6156600  52.6920770
  23.1739160   4.8030370  56.6681820  23.6917830   3.9998630  56.6138710
  22.7223180   4.7409510  57.5098650  28.0608660   6.0696650  51.9409120
  28.4024360   6.8138880  51.4452440  27.2321370   6.3827770  52.3033950
  35.3649590   8.0627060  53.4582940  34.7225750   7.4082680  53.7326660
  34.9780250   8.4682150  52.6823610  30.9436070   5.3912490  57.3054630
  31.2959890   4.7940620  56.6456000  30.0598400   5.0656720  57.4762880
  27.0299350   6.1510180  54.7125040  27.7170480   6.6979390  55.0932630
  26.2431770   6.6950910  54.7474650  19.1691750   1.7683000  50.2042120
  20.0386600   2.0507800  50.4878040  18.6782070   2.5818870  50.0890930
  26.3326560   3.1556210  54.3250400  26.7889340   3.9661460  54.5510590
  25.9814770   2.8379350  55.1568890  33.7546970   6.9543520  49.9959290
  33.5284550   6.2373960  50.5883930  33.3643170   6.7055960  49.1581040
  19.5363000  10.9810380  50.7703750  19.8960640  11.5799720  50.1161020
  19.3955340  11.5270270  51.5438780  33.3363220   4.8715460  51.6573450
  33.0484920   5.3328150  52.4451330  34.1315390   4.4113230  51.9257670
  25.5531620   8.3641580  51.5877420  25.5441720   9.0971270  50.9721930
  24.6329980   8.1173160  51.6804380  21.1538260   3.5856470  52.3324180
  20.5466210   4.3255370  52.3419480  21.6287610   3.6755830  51.5062380
  28.5391220   8.4269820  50.2502610  28.6403200   8.2233810  49.3204590
  27.6392960   8.1728100  50.4550390  27.1809330  10.9456140  54.9450280
  27.4350830  10.9077530  54.0229650  26.2321810  10.8189470  54.9378530
  23.1643550   3.5467620  50.0812750  23.9306820   3.4348980  50.6438180
  23.2418240   2.8505590  49.4289520  22.6605020  11.1288080  57.8680180
  23.3967500  10.5803540  58.1388750  23.0445940  11.9944090  57.7286170
  19.5450500   7.1961650  53.7421690  18.6190280   7.4382790  53.7327100
  20.0106930   8.0235910  53.6206440  25.7707330  10.3018390  49.6905750
  26.5635940  10.5907220  49.2387540  25.2511680   9.8710560  49.0118230
  34.8237500   9.5288520  51.1142490  34.5379010   9.1153660  50.2996670
  34.6257050  10.4576230  50.9943010  26.2884730   5.5221800  49.5548100
  26.1835370   4.9074150  50.2809480  26.1208950   4.9987690  48.7711110
  29.5287460   4.5841830  50.1590090  28.9797560   5.0311130  50.8032830
  30.1506720   4.0791080  50.6827760  25.1962580   3.5432750  52.0555390
  25.6179000   3.3772620  52.8986780  25.3213420   2.7332980  51.5610530
  27.7090220   2.5670360  49.3032490  28.2295880   1.8519380  48.9373640
  28.3558620   3.2056230  49.6033000  28.2738250  10.6481970  51.5934230
  29.1689040  10.9866940  51.6152990  28.3055880   9.9261380  50.9658510
  21.9134410   6.0209020  49.8221230  22.3509280   6.5638690  50.4778810
  22.3982140   5.1955970  49.8317570  19.1280210   8.8098050  57.2741490
  19.4583220   7.9419110  57.0420130  19.5571210   9.0156570  58.1046450
  23.7242130   7.1407060  54.9343460  23.4237670   7.0172030  55.8347370
  23.6179620   6.2815650  54.5259190  36.4934050   6.9203460  49.6370140
  35.6627010   6.9880110  50.1077370  36.6705880   7.8107580  49.3337000
  35.9490510   3.6650940  52.1404340  36.7109420   4.2347590  52.2464030
  35.9644880   3.0978140  52.9112650  19.4494850   2.1888870  56.3712000
  18.7943690   1.9200510  55.7271700  20.2872800   2.0793350  55.9213980
  36.9550480   4.5201040  56.9846270  37.3259310   3.7368360  56.5782240
  37.5952410   5.2090140  56.8063570  36.0009680   3.9585310  49.2976860
  36.2758520   4.8664190  49.1696080  35.8120420   3.8947840  50.2338850
  33.9960290  10.6556220  55.9244860  34.5919360  10.3340790  55.2479280
  34.2538440  10.1828040  56.7158130  19.6553120  10.7169150  55.3538070
  19.4875160  10.0839830  56.0519960  18.7887630  10.9228550  55.0032260
  21.2615820   9.4102380  52.7988210  20.7363440   9.7910410  52.0950170
  21.1860400  10.0353150  53.5197920  36.0181140  10.9689920  54.1202150
  36.1933330  10.2827660  53.4763070  35.3202710  11.4936970  53.7278820
  23.8608790  11.3584760  51.6737460  24.5927610  11.0744040  51.1261350
  24.1202460  11.1198040  52.5636840  23.0223580   7.4749490  51.6783790
  22.3932460   7.9434590  52.2269620  23.1371410   6.6298710  52.1129980
  28.6091340   3.3034170  39.7094260  27.8333440   2.8234610  39.9992830
  29.2604270   2.6239820  39.5350420  22.6257170   3.6153980  40.5870020
  21.7942050   3.3602690  40.9866530  23.2338150   3.6864750  41.3227940
  32.6298770   7.7094360  38.4893390  32.1680300   6.9381600  38.8180560
  33.4424320   7.7360430  38.9945840  22.6058430   7.6494070  40.7828040
  22.9086470   6.7591810  40.6038260  23.3502020   8.2064290  40.5550290
  28.8562080   9.9952370  38.1097380  28.2373520  10.4509870  37.5391820
  29.7113860  10.1503830  37.7087080  28.0500330   5.9791360  39.7164420
  27.9808610   5.0381300  39.5553550  28.8120190   6.0692770  40.2886990
  29.7225430   4.8791610  35.5029290  29.1042700   5.3441060  34.9392010
  30.2348680   5.5719090  35.9198800  24.5857190   4.4067480  42.1812890
  24.2526570   5.0336400  42.8233960  24.7623870   4.9329360  41.4014560
  23.7976290   6.3748280  43.9962070  24.4150290   7.0499360  43.7146520
  22.9369410   6.7836260  43.9049570  19.0908630   5.5648140  32.8768920
  18.7136610   6.0535240  32.1453820  19.3481700   6.2373420  33.5075450
  34.7153880   7.8387690  41.9116710  34.0317400   8.5086800  41.9033380
  35.2548170   8.0368340  41.1461570  32.2512620   9.6831820  40.6261890
  32.2639780   9.2794110  39.7584150  31.6987840  10.4579110  40.5223320
  33.5458040   6.4048040  35.7152060  33.4354370   5.4622370  35.8401480
  33.5426290   6.7663680  36.6014820  31.6498060   4.5861660  41.9544500
  32.0666850   4.3721770  41.1197960  32.3737880   4.8434450  42.5253120
  29.0878320   2.0313360  35.0714550  28.1607600   1.9650740  35.3003020
  29.2403140   2.9693490  34.9569790  35.5960160   2.9848880  42.0460740
  34.7678790   3.0541970  41.5710870  36.1910640   3.5703190  41.5776570
  33.1175610   3.5933660  35.5749800  32.4988030   3.2553210  34.9276100
  33.1000060   2.9493420  36.2828990  24.6934960   2.5578100  37.8534280
  24.2891960   1.8455350  37.3580180  24.7798080   2.2131340  38.7422320
  25.1616660   6.2445660  40.0173490  24.8644950   5.6391130  39.3381270
  26.1116480   6.2822970  39.9062850  33.2502270   9.8177530  43.6796590
  32.7732830  10.6249720  43.4869200  32.5664060   9.1655860  43.8322800
  24.2535090   5.9827350  46.6681290  23.3563620   6.2067320  46.9154690
  24.2787960   6.1062290  45.7192690  31.2940310   2.8320470  32.5822550
  31.7333590   1.9942900  32.4360370  32.0068730   3.4649870  32.6686690
  23.0806310   2.8540670  45.2438660  22.9414080   3.7263470  45.6126060
  22.1987670   2.5113480  45.0986600  29.4035690   7.7716540  36.5503790
  29.8431600   8.5140870  36.1359180  29.3422580   8.0143110  37.4742750
  24.8786660   8.7962370  47.4523810  24.8502090   9.2005320  46.5852240
  24.7151630   7.8672730  47.2895410  36.8301480   9.5789470  48.7487980
  37.3061200  10.0572360  49.4277060  37.4508640   9.5106960  48.0233480
  19.0324960   4.6238220  41.1609570  19.1105380   4.7586990  40.2165290
  19.6466640   3.9154110  41.3537690  20.2772590   6.3238410  37.5715750
  19.8700670   6.4653000  36.7169350  21.1685600   6.0398570  37.3686960
  36.2334730   6.7702320  45.9087990  36.3597790   6.5314200  44.9905170
  36.2756110   5.9386860  46.3810070  30.0951470  10.4730320  44.4782800
  30.6096140  10.3838330  45.2805230  29.2520550  10.8190020  44.7710710
  32.0705870  10.7585660  33.9066800  31.9107010  10.4688600  34.8048630
  31.9052580   9.9825790  33.3712030  24.5494250  10.5384190  35.6838420
  24.3736730   9.6219730  35.4706220  23.6949990  10.8971480  35.9236220
  31.7732000   8.2673220  32.4664800  31.0797160   8.2650510  31.8067080
  32.5154860   7.8432540  32.0358970  31.3381930   9.8935930  36.5413290
  31.7938880   9.1125310  36.8551910  31.6774450  10.6042750  37.0854470
  19.0884480   5.6652390  43.7004030  19.2515520   5.1957750  42.8823400
  19.5536930   5.1575950  44.3652870  20.6623460   5.0403820  45.8599840
  20.2778250   4.3997490  46.4582800  20.9735650   5.7439940  46.4294570
  26.8120600   1.8880360  41.3408460  27.1790730   1.4138930  42.0869800
  26.6225660   2.7621930  41.6816800  23.1301760   5.1349990  34.2559520
  22.3564020   4.5947610  34.0958240  23.8596390   4.6156600  33.9177280
  33.8889740   4.1315350  40.0485910  34.6088860   4.6270640  39.6582020
  33.6871560   3.4533240  39.4039780  29.2708540   4.2024410  45.9354910
  29.2045850   3.2820080  45.6812500  28.6413680   4.2999850  46.6499550
  23.1739160   4.8030370  37.8938330  23.6917830   3.9998630  37.8395220
  22.7223180   4.7409510  38.7355160  28.0608660   6.0696650  33.1665630
  28.4024360   6.8138880  32.6708950  27.2321370   6.3827770  33.5290460
  23.8596820   2.2275980  47.6903580  23.5596960   2.3733160  46.7931400
  24.6308060   1.6681270  47.5976970  29.2025270   7.0244980  45.6858710
  29.2169810   6.0925940  45.4677620  28.4950370   7.1104740  46.3248480
  35.4136480   3.6652320  45.0327290  34.6884670   4.2581100  44.8356680
  35.9411940   3.6575860  44.2340660  35.3649590   8.0627060  34.6839450
  34.7225750   7.4082680  34.9583170  34.9780250   8.4682150  33.9080120
  30.9436070   5.3912490  38.5311140  31.2959890   4.7940620  37.8712510
  30.0598400   5.0656720  38.7019390  27.0299350   6.1510180  35.9381550
  27.7170480   6.6979390  36.3189140  26.2431770   6.6950910  35.9731160
  19.1691750   1.7683000  31.4298630  20.0386600   2.0507800  31.7134550
  18.6782070   2.5818870  31.3147440  26.3326560   3.1556210  35.5506910
  26.7889340   3.9661460  35.7767100  25.9814770   2.8379350  36.3825400
  28.6359170   8.6662550  42.7799210  29.2801390   8.8721930  43.4572630
  28.9988610   7.9050950  42.3270060  29.9091250   6.6694900  41.4976660
  30.5513480   5.9688060  41.6108830  30.4340600   7.4493340  41.3173550
  33.7546970   6.9543520  31.2215800  33.5284550   6.2373960  31.8140440
  33.3643170   6.7055960  30.3837550  31.6828870   7.4689800  44.7012720
  32.0185110   8.0556490  45.3790640  30.7629210   7.3382510  44.9310510
  19.5363000  10.9810380  31.9960260  19.8960640  11.5799720  31.3417530
  19.3955340  11.5270270  32.7695290  33.3363220   4.8715460  32.8829960
  33.0484920   5.3328150  33.6707840  34.1315390   4.4113230  33.1514180
  19.5204860   9.2465240  46.4702660  19.6295980   8.3059980  46.3298050
  18.8685420   9.5119990  45.8216390  27.5117450   7.5181130  47.8700780
  27.1914320   6.7990370  48.4146470  26.8375810   8.1936200  47.9436840
  25.5531620   8.3641580  32.8133930  25.5441720   9.0971270  32.1978440
  24.6329980   8.1173160  32.9060890  21.1538260   3.5856470  33.5580690
  20.5466210   4.3255370  33.5675990  21.6287610   3.6755830  32.7318890
  28.5391220   8.4269820  31.4759120  28.6403200   8.2233810  30.5461100
  27.6392960   8.1728100  31.6806900  27.1809330  10.9456140  36.1706790
  27.4350830  10.9077530  35.2486160  26.2321810  10.8189470  36.1635040
  23.1643550   3.5467620  31.3069260  23.9306820   3.4348980  31.8694690
  23.2418240   2.8505590  30.6546030  35.1887490   9.0356870  39.4219560
  35.3134910   9.8588040  39.8943370  36.0553050   8.8247600  39.0743710
  22.6605020  11.1288080  39.0936690  23.3967500  10.5803540  39.3645260
  23.0445940  11.9944090  38.9542680  19.5450500   7.1961650  34.9678200
  18.6190280   7.4382790  34.9583610  20.0106930   8.0235910  34.8462950
  21.6663300  10.3134150  48.2822270  22.4676030  10.6346200  48.6957670
  21.1515120   9.9529730  49.0042180  25.7707330  10.3018390  30.9162260
  26.5635940  10.5907220  30.4644050  25.2511680   9.8710560  30.2374740
  30.5027930   6.4214020  48.2297680  29.8966090   6.4445620  47.4893430
  30.1982040   5.6897060  48.7664930  31.9328300  10.1494310  46.8407090
  32.8850050  10.0652330  46.7907330  31.7856520  10.8136020  47.5140880
  34.8237500   9.5288520  32.3399000  34.5379010   9.1153660  31.5253180
  34.6257050  10.4576230  32.2199520  19.3861110   2.8007610  47.2258320
  19.8900130   2.2214890  47.7974550  18.6468530   3.0847840  47.7634690
  26.2884730   5.5221800  30.7804610  26.1835370   4.9074150  31.5065990
  26.1208950   4.9987690  29.9967620  26.4399050   4.2078600  46.7593840
  25.6744720   4.7763600  46.6748510  26.6215010   3.9154810  45.8662070
  29.5287460   4.5841830  31.3846600  28.9797560   5.0311130  32.0289340
  30.1506720   4.0791080  31.9084270  33.5822400   5.9383930  47.3168860
  34.3231870   6.2759690  46.8136320  32.8195080   6.1075990  46.7638630
  25.1962580   3.5432750  33.2811900  25.6179000   3.3772620  34.1243290
  25.3213420   2.7332980  32.7867040  27.7090220   2.5670360  30.5289000
  28.2295880   1.8519380  30.1630150  28.3558620   3.2056230  30.8289510
  32.2568060   3.9898760  45.8524070  32.6709080   4.1443840  46.7014490
  31.3219060   4.1153980  46.0149850  27.0183290   3.9419240  43.8220000
  27.4371400   4.7851970  43.6496240  26.0991920   4.0791280  43.5926780
  31.6935090   2.2272610  43.7820350  31.1670310   2.7515230  43.1785490
  32.0366430   2.8600000  44.4130080  24.8690710  10.2472250  44.9377730
  24.3311800  10.9718310  44.6186430  25.1224670   9.7702590  44.1475070
  27.7252920  11.4823460  45.1964380  27.6511620  12.3858600  45.5036750
  26.8231760  11.1635360  45.1686450  28.2738250  10.6481970  32.8190740
  29.1689040  10.9866940  32.8409500  28.3055880   9.9261380  32.1915020
  21.9134410   6.0209020  31.0477740  22.3509280   6.5638690  31.7035320
  22.3982140   5.1955970  31.0574080  19.1280210   8.8098050  38.4998000
  19.4583220   7.9419110  38.2676640  19.5571210   9.0156570  39.3302960
  23.7242130   7.1407060  36.1599970  23.4237670   7.0172030  37.0603880
  23.6179620   6.2815650  35.7515700  19.6170420   9.6768640  41.2379630
  19.1801410   9.8569440  42.0703780  20.1848100  10.4343260  41.0961350
  35.2532600   9.1785640  45.5256940  34.6534590   9.2378200  44.7820860
  35.3826500   8.2390620  45.6553790  36.4934050   6.9203460  30.8626650
  35.6627010   6.9880110  31.3333880  36.6705880   7.8107580  30.5593510
  35.9490510   3.6650940  33.3660850  36.7109420   4.2347590  33.4720540
  35.9644880   3.0978140  34.1369160  19.4494850   2.1888870  37.5968510
  18.7943690   1.9200510  36.9528210  20.2872800   2.0793350  37.1470490
  36.9550480   4.5201040  38.2102780  37.3259310   3.7368360  37.8038750
  37.5952410   5.2090140  38.0320080  33.9384240   5.9037620  43.6233100
  33.1244080   6.3334780  43.8858890  34.3458440   6.5156030  43.0102150
  36.0009680   3.9585310  30.5233370  36.2758520   4.8664190  30.3952590
  35.8120420   3.8947840  31.4595360  20.4870780   2.5741440  42.1371850
  20.8543820   2.4868840  43.0167870  19.9181600   1.8107990  42.0378710
  33.9960290  10.6556220  37.1501370  34.5919360  10.3340790  36.4735790
  34.2538440  10.1828040  37.9414640  21.9022860   7.0874130  47.2992000
  21.8592490   6.7167040  48.1806460  22.0333870   8.0251700  47.4393820
  25.6028890   8.6433720  42.9001720  25.3620250   8.9108280  42.0132240
  26.5431530   8.8139450  42.9552580  36.8633050  10.6628100  43.7012360
  36.3691330  11.0596970  42.9839490  36.2546340  10.0377310  44.0949640
  21.7410890  10.0336380  44.4189780  21.1471210   9.9021080  45.1579820
  21.7334730   9.1974520  43.9531880  34.5472500  11.3051520  40.9799100
  34.0875470  12.0567330  40.6057120  33.9184960  10.5857990  40.9213900
  21.3723120   7.3994760  43.3697820  20.6457180   6.7800050  43.3023770
  21.4332270   7.7935370  42.4995900  24.9768220   9.6139760  40.1547230
  25.4933240   9.0027120  39.6295490  25.6265600  10.1168540  40.6458240
  27.7163720  10.5048250  40.9816210  28.0041530  10.2502550  40.1049220
  28.2286940   9.9525610  41.5721780  19.6553120  10.7169150  36.5794580
  19.4875160  10.0839830  37.2776470  18.7887630  10.9228550  36.2288770
  21.2615820   9.4102380  34.0244720  20.7363440   9.7910410  33.3206680
  21.1860400  10.0353150  34.7454430  27.7836080  11.4264350  48.3484410
  28.7103390  11.1908620  48.3920370  27.7686510  12.2536350  47.8670440
  36.0181140  10.9689920  35.3458660  36.1933330  10.2827660  34.7019580
  35.3202710  11.4936970  34.9535330  23.8608790  11.3584760  32.8993970
  24.5927610  11.0744040  32.3517860  24.1202460  11.1198040  33.7893350
  23.0223580   7.4749490  32.9040300  22.3932460   7.9434590  33.4526130
  23.1371410   6.6298710  33.3386490  34.3513640  10.6534210  48.1725450
  35.1438960  10.1583440  47.9651410  34.6446790  11.3324350  48.7801060
  28.6091340   3.3034170  20.9350770  27.8333440   2.8234610  21.2249340
  29.2604270   2.6239820  20.7606930  22.6257170   3.6153980  21.8126530
  21.7942050   3.3602690  22.2123040  23.2338150   3.6864750  22.5484450
  32.6298770   7.7094360  19.7149900  32.1680300   6.9381600  20.0437070
  33.4424320   7.7360430  20.2202350  22.6058430   7.6494070  22.0084550
  22.9086470   6.7591810  21.8294770  23.3502020   8.2064290  21.7806800
  28.8562080   9.9952370  19.3353890  28.2373520  10.4509870  18.7648330
  29.7113860  10.1503830  18.9343590  28.0500330   5.9791360  20.9420930
  27.9808610   5.0381300  20.7810060  28.8120190   6.0692770  21.5143500
  29.7225430   4.8791610  16.7285800  29.1042700   5.3441060  16.1648520
  30.2348680   5.5719090  17.1455310  24.5857190   4.4067480  23.4069400
  24.2526570   5.0336400  24.0490470  24.7623870   4.9329360  22.6271070
  23.7976290   6.3748280  25.2218580  24.4150290   7.0499360  24.9403030
  22.9369410   6.7836260  25.1306080  19.0908630   5.5648140  14.1025430
  18.7136610   6.0535240  13.3710330  19.3481700   6.2373420  14.7331960
  34.7153880   7.8387690  23.1373220  34.0317400   8.5086800  23.1289890
  35.2548170   8.0368340  22.3718080  32.2512620   9.6831820  21.8518400
  32.2639780   9.2794110  20.9840660  31.6987840  10.4579110  21.7479830
  33.5458040   6.4048040  16.9408570  33.4354370   5.4622370  17.0657990
  33.5426290   6.7663680  17.8271330  31.6498060   4.5861660  23.1801010
  32.0666850   4.3721770  22.3454470  32.3737880   4.8434450  23.7509630
  29.0878320   2.0313360  16.2971060  28.1607600   1.9650740  16.5259530
  29.2403140   2.9693490  16.1826300  35.5960160   2.9848880  23.2717250
  34.7678790   3.0541970  22.7967380  36.1910640   3.5703190  22.8033080
  33.1175610   3.5933660  16.8006310  32.4988030   3.2553210  16.1532610
  33.1000060   2.9493420  17.5085500  24.6934960   2.5578100  19.0790790
  24.2891960   1.8455350  18.5836690  24.7798080   2.2131340  19.9678830
  25.1616660   6.2445660  21.2430000  24.8644950   5.6391130  20.5637780
  26.1116480   6.2822970  21.1319360  33.2502270   9.8177530  24.9053100
  32.7732830  10.6249720  24.7125710  32.5664060   9.1655860  25.0579310
  24.2535090   5.9827350  27.8937800  23.3563620   6.2067320  28.1411200
  24.2787960   6.1062290  26.9449200  31.2940310   2.8320470  13.8079060
  31.7333590   1.9942900  13.6616880  32.0068730   3.4649870  13.8943200
  23.0806310   2.8540670  26.4695170  22.9414080   3.7263470  26.8382570
  22.1987670   2.5113480  26.3243110  29.4035690   7.7716540  17.7760300
  29.8431600   8.5140870  17.3615690  29.3422580   8.0143110  18.6999260
  24.8786660   8.7962370  28.6780320  24.8502090   9.2005320  27.8108750
  24.7151630   7.8672730  28.5151920  36.8301480   9.5789470  29.9744490
  37.3061200  10.0572360  30.6533570  37.4508640   9.5106960  29.2489990
  19.0324960   4.6238220  22.3866080  19.1105380   4.7586990  21.4421800
  19.6466640   3.9154110  22.5794200  20.2772590   6.3238410  18.7972260
  19.8700670   6.4653000  17.9425860  21.1685600   6.0398570  18.5943470
  36.2334730   6.7702320  27.1344500  36.3597790   6.5314200  26.2161680
  36.2756110   5.9386860  27.6066580  30.0951470  10.4730320  25.7039310
  30.6096140  10.3838330  26.5061740  29.2520550  10.8190020  25.9967220
  32.0705870  10.7585660  15.1323310  31.9107010  10.4688600  16.0305140
  31.9052580   9.9825790  14.5968540  24.5494250  10.5384190  16.9094930
  24.3736730   9.6219730  16.6962730  23.6949990  10.8971480  17.1492730
  31.7732000   8.2673220  13.6921310  31.0797160   8.2650510  13.0323590
  32.5154860   7.8432540  13.2615480  31.3381930   9.8935930  17.7669800
  31.7938880   9.1125310  18.0808420  31.6774450  10.6042750  18.3110980
  19.0884480   5.6652390  24.9260540  19.2515520   5.1957750  24.1079910
  19.5536930   5.1575950  25.5909380  20.6623460   5.0403820  27.0856350
  20.2778250   4.3997490  27.6839310  20.9735650   5.7439940  27.6551080
  26.8120600   1.8880360  22.5664970  27.1790730   1.4138930  23.3126310
  26.6225660   2.7621930  22.9073310  23.1301760   5.1349990  15.4816030
  22.3564020   4.5947610  15.3214750  23.8596390   4.6156600  15.1433790
  33.8889740   4.1315350  21.2742420  34.6088860   4.6270640  20.8838530
  33.6871560   3.4533240  20.6296290  29.2708540   4.2024410  27.1611420
  29.2045850   3.2820080  26.9069010  28.6413680   4.2999850  27.8756060
  23.1739160   4.8030370  19.1194840  23.6917830   3.9998630  19.0651730
  22.7223180   4.7409510  19.9611670  28.0608660   6.0696650  14.3922140
  28.4024360   6.8138880  13.8965460  27.2321370   6.3827770  14.7546970
  23.8596820   2.2275980  28.9160090  23.5596960   2.3733160  28.0187910
  24.6308060   1.6681270  28.8233480  29.2025270   7.0244980  26.9115220
  29.2169810   6.0925940  26.6934130  28.4950370   7.1104740  27.5504990
  35.4136480   3.6652320  26.2583800  34.6884670   4.2581100  26.0613190
  35.9411940   3.6575860  25.4597170  35.3649590   8.0627060  15.9095960
  34.7225750   7.4082680  16.1839680  34.9780250   8.4682150  15.1336630
  30.9436070   5.3912490  19.7567650  31.2959890   4.7940620  19.0969020
  30.0598400   5.0656720  19.9275900  27.0299350   6.1510180  17.1638060
  27.7170480   6.6979390  17.5445650  26.2431770   6.6950910  17.1987670
  19.1691750   1.7683000  12.6555140  20.0386600   2.0507800  12.9391060
  18.6782070   2.5818870  12.5403950  26.3326560   3.1556210  16.7763420
  26.7889340   3.9661460  17.0023610  25.9814770   2.8379350  17.6081910
  28.6359170   8.6662550  24.0055720  29.2801390   8.8721930  24.6829140
  28.9988610   7.9050950  23.5526570  29.9091250   6.6694900  22.7233170
  30.5513480   5.9688060  22.8365340  30.4340600   7.4493340  22.5430060
  33.7546970   6.9543520  12.4472310  33.5284550   6.2373960  13.0396950
  33.3643170   6.7055960  11.6094060  31.6828870   7.4689800  25.9269230
  32.0185110   8.0556490  26.6047150  30.7629210   7.3382510  26.1567020
  19.5363000  10.9810380  13.2216770  19.8960640  11.5799720  12.5674040
  19.3955340  11.5270270  13.9951800  33.3363220   4.8715460  14.1086470
  33.0484920   5.3328150  14.8964350  34.1315390   4.4113230  14.3770690
  19.5204860   9.2465240  27.6959170  19.6295980   8.3059980  27.5554560
  18.8685420   9.5119990  27.0472900  27.5117450   7.5181130  29.0957290
  27.1914320   6.7990370  29.6402980  26.8375810   8.1936200  29.1693350
  25.5531620   8.3641580  14.0390440  25.5441720   9.0971270  13.4234950
  24.6329980   8.1173160  14.1317400  21.1538260   3.5856470  14.7837200
  20.5466210   4.3255370  14.7932500  21.6287610   3.6755830  13.9575400
  28.5391220   8.4269820  12.7015630  28.6403200   8.2233810  11.7717610
  27.6392960   8.1728100  12.9063410  27.1809330  10.9456140  17.3963300
  27.4350830  10.9077530  16.4742670  26.2321810  10.8189470  17.3891550
  23.1643550   3.5467620  12.5325770  23.9306820   3.4348980  13.0951200
  23.2418240   2.8505590  11.8802540  35.1887490   9.0356870  20.6476070
  35.3134910   9.8588040  21.1199880  36.0553050   8.8247600  20.3000220
  22.6605020  11.1288080  20.3193200  23.3967500  10.5803540  20.5901770
  23.0445940  11.9944090  20.1799190  19.5450500   7.1961650  16.1934710
  18.6190280   7.4382790  16.1840120  20.0106930   8.0235910  16.0719460
  21.6663300  10.3134150  29.5078780  22.4676030  10.6346200  29.9214180
  21.1515120   9.9529730  30.2298690  25.7707330  10.3018390  12.1418770
  26.5635940  10.5907220  11.6900560  25.2511680   9.8710560  11.4631250
  30.5027930   6.4214020  29.4554190  29.8966090   6.4445620  28.7149940
  30.1982040   5.6897060  29.9921440  31.9328300  10.1494310  28.0663600
  32.8850050  10.0652330  28.0163840  31.7856520  10.8136020  28.7397390
  34.8237500   9.5288520  13.5655510  34.5379010   9.1153660  12.7509690
  34.6257050  10.4576230  13.4456030  19.3861110   2.8007610  28.4514830
  19.8900130   2.2214890  29.0231060  18.6468530   3.0847840  28.9891200
  26.2884730   5.5221800  12.0061120  26.1835370   4.9074150  12.7322500
  26.1208950   4.9987690  11.2224130  26.4399050   4.2078600  27.9850350
  25.6744720   4.7763600  27.9005020  26.6215010   3.9154810  27.0918580
  29.5287460   4.5841830  12.6103110  28.9797560   5.0311130  13.2545850
  30.1506720   4.0791080  13.1340780  33.5822400   5.9383930  28.5425370
  34.3231870   6.2759690  28.0392830  32.8195080   6.1075990  27.9895140
  25.1962580   3.5432750  14.5068410  25.6179000   3.3772620  15.3499800
  25.3213420   2.7332980  14.0123550  27.7090220   2.5670360  11.7545510
  28.2295880   1.8519380  11.3886660  28.3558620   3.2056230  12.0546020
  32.2568060   3.9898760  27.0780580  32.6709080   4.1443840  27.9271000
  31.3219060   4.1153980  27.2406360  27.0183290   3.9419240  25.0476510
  27.4371400   4.7851970  24.8752750  26.0991920   4.0791280  24.8183290
  31.6935090   2.2272610  25.0076860  31.1670310   2.7515230  24.4042000
  32.0366430   2.8600000  25.6386590  24.8690710  10.2472250  26.1634240
  24.3311800  10.9718310  25.8442940  25.1224670   9.7702590  25.3731580
  27.7252920  11.4823460  26.4220890  27.6511620  12.3858600  26.7293260
  26.8231760  11.1635360  26.3942960  28.2738250  10.6481970  14.0447250
  29.1689040  10.9866940  14.0666010  28.3055880   9.9261380  13.4171530
  21.9134410   6.0209020  12.2734250  22.3509280   6.5638690  12.9291830
  22.3982140   5.1955970  12.2830590  19.1280210   8.8098050  19.7254510
  19.4583220   7.9419110  19.4933150  19.5571210   9.0156570  20.5559470
  23.7242130   7.1407060  17.3856480  23.4237670   7.0172030  18.2860390
  23.6179620   6.2815650  16.9772210  19.6170420   9.6768640  22.4636140
  19.1801410   9.8569440  23.2960290  20.1848100  10.4343260  22.3217860
  35.2532600   9.1785640  26.7513450  34.6534590   9.2378200  26.0077370
  35.3826500   8.2390620  26.8810300  36.4934050   6.9203460  12.0883160
  35.6627010   6.9880110  12.5590390  36.6705880   7.8107580  11.7850020
  35.9490510   3.6650940  14.5917360  36.7109420   4.2347590  14.6977050
  35.9644880   3.0978140  15.3625670  19.4494850   2.1888870  18.8225020
  18.7943690   1.9200510  18.1784720  20.2872800   2.0793350  18.3727000
  36.9550480   4.5201040  19.4359290  37.3259310   3.7368360  19.0295260
  37.5952410   5.2090140  19.2576590  33.9384240   5.9037620  24.8489610
  33.1244080   6.3334780  25.1115400  34.3458440   6.5156030  24.2358660
  36.0009680   3.9585310  11.7489880  36.2758520   4.8664190  11.6209100
  35.8120420   3.8947840  12.6851870  20.4870780   2.5741440  23.3628360
  20.8543820   2.4868840  24.2424380  19.9181600   1.8107990  23.2635220
  33.9960290  10.6556220  18.3757880  34.5919360  10.3340790  17.6992300
  34.2538440  10.1828040  19.1671150  21.9022860   7.0874130  28.5248510
  21.8592490   6.7167040  29.4062970  22.0333870   8.0251700  28.6650330
  25.6028890   8.6433720  24.1258230  25.3620250   8.9108280  23.2388750
  26.5431530   8.8139450  24.1809090  36.8633050  10.6628100  24.9268870
  36.3691330  11.0596970  24.2096000  36.2546340  10.0377310  25.3206150
  21.7410890  10.0336380  25.6446290  21.1471210   9.9021080  26.3836330
  21.7334730   9.1974520  25.1788390  34.5472500  11.3051520  22.2055610
  34.0875470  12.0567330  21.8313630  33.9184960  10.5857990  22.1470410
  21.3723120   7.3994760  24.5954330  20.6457180   6.7800050  24.5280280
  21.4332270   7.7935370  23.7252410  24.9768220   9.6139760  21.3803740
  25.4933240   9.0027120  20.8552000  25.6265600  10.1168540  21.8714750
  27.7163720  10.5048250  22.2072720  28.0041530  10.2502550  21.3305730
  28.2286940   9.9525610  22.7978290  19.6553120  10.7169150  17.8051090
  19.4875160  10.0839830  18.5032980  18.7887630  10.9228550  17.4545280
  21.2615820   9.4102380  15.2501230  20.7363440   9.7910410  14.5463190
  21.1860400  10.0353150  15.9710940  27.7836080  11.4264350  29.5740920
  28.7103390  11.1908620  29.6176880  27.7686510  12.2536350  29.0926950
  36.0181140  10.9689920  16.5715170  36.1933330  10.2827660  15.9276090
  35.3202710  11.4936970  16.1791840  23.8608790  11.3584760  14.1250480
  24.5927610  11.0744040  13.5774370  24.1202460  11.1198040  15.0149860
  23.0223580   7.4749490  14.1296810  22.3932460   7.9434590  14.6782640
  23.1371410   6.6298710  14.5643000  34.3513640  10.6534210  29.3981960
  35.1438960  10.1583440  29.1907920  34.6446790  11.3324350  30.0057570
  28.6091340   3.3034170   2.1607280  27.8333440   2.8234610   2.4505850
  29.2604270   2.6239820   1.9863440  22.6257170   3.6153980   3.0383040
  21.7942050   3.3602690   3.4379550  23.2338150   3.6864750   3.7740960
  22.6058430   7.6494070   3.2341060  22.9086470   6.7591810   3.0551280
  23.3502020   8.2064290   3.0063310  28.0500330   5.9791360   2.1677440
  27.9808610   5.0381300   2.0066570  28.8120190   6.0692770   2.7400010
  24.5857190   4.4067480   4.6325910  24.2526570   5.0336400   5.2746980
  24.7623870   4.9329360   3.8527580  23.7976290   6.3748280   6.4475090
  24.4150290   7.0499360   6.1659540  22.9369410   6.7836260   6.3562590
  34.7153880   7.8387690   4.3629730  34.0317400   8.5086800   4.3546400
  35.2548170   8.0368340   3.5974590  32.2512620   9.6831820   3.0774910
  32.2639780   9.2794110   2.2097170  31.6987840  10.4579110   2.9736340
  31.6498060   4.5861660   4.4057520  32.0666850   4.3721770   3.5710980
  32.3737880   4.8434450   4.9766140  35.5960160   2.9848880   4.4973760
  34.7678790   3.0541970   4.0223890  36.1910640   3.5703190   4.0289590
  25.1616660   6.2445660   2.4686510  24.8644950   5.6391130   1.7894290
  26.1116480   6.2822970   2.3575870  33.2502270   9.8177530   6.1309610
  32.7732830  10.6249720   5.9382220  32.5664060   9.1655860   6.2835820
  24.2535090   5.9827350   9.1194310  23.3563620   6.2067320   9.3667710
  24.2787960   6.1062290   8.1705710  23.0806310   2.8540670   7.6951680
  22.9414080   3.7263470   8.0639080  22.1987670   2.5113480   7.5499620
  24.8786660   8.7962370   9.9036830  24.8502090   9.2005320   9.0365260
  24.7151630   7.8672730   9.7408430  36.8301480   9.5789470  11.2001000
  37.3061200  10.0572360  11.8790080  37.4508640   9.5106960  10.4746500
  19.0324960   4.6238220   3.6122590  19.1105380   4.7586990   2.6678310
  19.6466640   3.9154110   3.8050710  36.2334730   6.7702320   8.3601010
  36.3597790   6.5314200   7.4418190  36.2756110   5.9386860   8.8323090
  30.0951470  10.4730320   6.9295820  30.6096140  10.3838330   7.7318250
  29.2520550  10.8190020   7.2223730  19.0884480   5.6652390   6.1517050
  19.2515520   5.1957750   5.3336420  19.5536930   5.1575950   6.8165890
  20.6623460   5.0403820   8.3112860  20.2778250   4.3997490   8.9095820
  20.9735650   5.7439940   8.8807590  26.8120600   1.8880360   3.7921480
  27.1790730   1.4138930   4.5382820  26.6225660   2.7621930   4.1329820
  33.8889740   4.1315350   2.4998930  34.6088860   4.6270640   2.1095040
  33.6871560   3.4533240   1.8552800  29.2708540   4.2024410   8.3867930
  29.2045850   3.2820080   8.1325520  28.6413680   4.2999850   9.1012570
  23.8596820   2.2275980  10.1416600  23.5596960   2.3733160   9.2444420
  24.6308060   1.6681270  10.0489990  29.2025270   7.0244980   8.1371730
  29.2169810   6.0925940   7.9190640  28.4950370   7.1104740   8.7761500
  35.4136480   3.6652320   7.4840310  34.6884670   4.2581100   7.2869700
  35.9411940   3.6575860   6.6853680  28.6359170   8.6662550   5.2312230
  29.2801390   8.8721930   5.9085650  28.9988610   7.9050950   4.7783080
  29.9091250   6.6694900   3.9489680  30.5513480   5.9688060   4.0621850
  30.4340600   7.4493340   3.7686570  31.6828870   7.4689800   7.1525740
  32.0185110   8.0556490   7.8303660  30.7629210   7.3382510   7.3823530
  19.5204860   9.2465240   8.9215680  19.6295980   8.3059980   8.7811070
  18.8685420   9.5119990   8.2729410  27.5117450   7.5181130  10.3213800
  27.1914320   6.7990370  10.8659490  26.8375810   8.1936200  10.3949860
  21.6663300  10.3134150  10.7335290  22.4676030  10.6346200  11.1470690
  21.1515120   9.9529730  11.4555200  30.5027930   6.4214020  10.6810700
  29.8966090   6.4445620   9.9406450  30.1982040   5.6897060  11.2177950
  31.9328300  10.1494310   9.2920110  32.8850050  10.0652330   9.2420350
  31.7856520  10.8136020   9.9653900  19.3861110   2.8007610   9.6771340
  19.8900130   2.2214890  10.2487570  18.6468530   3.0847840  10.2147710
  26.4399050   4.2078600   9.2106860  25.6744720   4.7763600   9.1261530
  26.6215010   3.9154810   8.3175090  33.5822400   5.9383930   9.7681880
  34.3231870   6.2759690   9.2649340  32.8195080   6.1075990   9.2151650
  32.2568060   3.9898760   8.3037090  32.6709080   4.1443840   9.1527510
  31.3219060   4.1153980   8.4662870  27.0183290   3.9419240   6.2733020
  27.4371400   4.7851970   6.1009260  26.0991920   4.0791280   6.0439800
  31.6935090   2.2272610   6.2333370  31.1670310   2.7515230   5.6298510
  32.0366430   2.8600000   6.8643100  24.8690710  10.2472250   7.3890750
  24.3311800  10.9718310   7.0699450  25.1224670   9.7702590   6.5988090
  27.7252920  11.4823460   7.6477400  27.6511620  12.3858600   7.9549770
  26.8231760  11.1635360   7.6199470  19.6170420   9.6768640   3.6892650
  19.1801410   9.8569440   4.5216800  20.1848100  10.4343260   3.5474370
  35.2532600   9.1785640   7.9769960  34.6534590   9.2378200   7.2333880
  35.3826500   8.2390620   8.1066810  33.9384240   5.9037620   6.0746120
  33.1244080   6.3334780   6.3371910  34.3458440   6.5156030   5.4615170
  20.4870780   2.5741440   4.5884870  20.8543820   2.4868840   5.4680890
  19.9181600   1.8107990   4.4891730  21.9022860   7.0874130   9.7505020
  21.8592490   6.7167040  10.6319480  22.0333870   8.0251700   9.8906840
  25.6028890   8.6433720   5.3514740  25.3620250   8.9108280   4.4645260
  26.5431530   8.8139450   5.4065600  36.8633050  10.6628100   6.1525380
  36.3691330  11.0596970   5.4352510  36.2546340  10.0377310   6.5462660
  21.7410890  10.0336380   6.8702800  21.1471210   9.9021080   7.6092840
  21.7334730   9.1974520   6.4044900  34.5472500  11.3051520   3.4312120
  34.0875470  12.0567330   3.0570140  33.9184960  10.5857990   3.3726920
  21.3723120   7.3994760   5.8210840  20.6457180   6.7800050   5.7536790
  21.4332270   7.7935370   4.9508920  24.9768220   9.6139760   2.6060250
  25.4933240   9.0027120   2.0808510  25.6265600  10.1168540   3.0971260
  27.7163720  10.5048250   3.4329230  28.0041530  10.2502550   2.5562240
  28.2286940   9.9525610   4.0234800  27.7836080  11.4264350  10.7997430
  28.7103390  11.1908620  10.8433390  27.7686510  12.2536350  10.3183460
  34.3513640  10.6534210  10.6238470  35.1438960  10.1583440  10.4164430
  34.6446790  11.3324350  11.2314080  11.7029810  57.8485620  56.6028480
  11.6223860  56.9340230  56.3320190  11.2894230  58.3452690  55.8968190
   4.4367020  53.4817840  54.1794280   4.5433770  54.3821570  54.4863040
   3.5259380  53.4335810  53.8888930  14.0886130  52.6042650  55.6505180
  14.9095750  52.1139220  55.6930660  14.1220210  53.1940310  56.4037020
   7.9254070  50.2895000  57.1097920   8.2329050  49.7341890  56.3933420
   6.9954770  50.4239460  56.9270910  10.3134830  58.3543830  53.8458040
   9.3864110  58.2881210  54.0746510  10.4659650  59.2923960  53.7313280
  10.3003910  54.6260830  50.8425200   9.3607580  54.7874790  50.9277660
  10.6187170  55.3446510  50.2961190   5.9191470  58.8808570  56.6277770
   5.5148470  58.1685820  56.1323670   6.0054590  58.5361810  57.5165810
  16.1013960  50.4093750  49.6707080  15.7886620  50.5020580  50.5706150
  16.8626430  50.9874780  49.6204510   2.6196100  57.7753550  54.1284420
   2.4993700  58.5015640  53.5165690   2.3096990  57.0056460  53.6512330
   5.0859760  51.1188620  57.5108090   4.6427910  51.8998160  57.1792610
   5.6444750  51.4418510  58.2179030   8.2018580  50.7399320  52.3913920
   7.5772760  50.7359190  53.1167230   8.1148700  49.8730280  51.9949890
   4.8773980  56.2422190  55.2389340   4.6514900  56.0259360  56.1435960
   4.0966510  56.6750650  54.8935310  12.1071740  56.2485560  53.8379990
  11.5080630  56.9721360  53.6543610  12.6551350  56.1862340  53.0556440
  10.7136610  54.8849100  55.8683270  11.1066180  55.2021300  55.0551960
  11.0753460  54.0060980  55.9827790   7.7369140  54.1509050  58.3686540
   7.7405200  53.7099000  57.5191080   8.6320260  54.4726380  58.4758360
   3.5871520  54.0335540  57.3280750   3.2471570  54.5110770  58.0847800
   2.8248840  53.5800660  56.9681850   7.7989290  55.1521130  51.3593300
   7.9202110  55.1107610  52.3079120   7.4137800  56.0145280  51.2040030
   6.8110790  57.4622270  50.7576600   6.2427690  57.0140520  50.1312510
   7.5199790  57.8215050  50.2241750  10.5756190  51.8483780  52.9658790
   9.7620800  51.3496950  52.8904100  10.3818140  52.6882030  52.5495140
  13.2904580  56.2203430  51.2620950  14.1784200  56.5320660  51.0872290
  13.2609670  55.3475680  50.8701530  15.5618850  57.5315270  50.7300810
  15.4782570  57.9629490  49.8797250  16.2813040  57.9913620  51.1627630
   3.4594850  49.8224330  54.7972920   3.3309480  49.8142230  55.7457840
   2.6356870  50.1607420  54.4463930  15.3189590  53.0294700  52.8168630
  14.6902750  53.1340370  52.1026860  14.8241510  53.2491480  53.6062510
   7.2873620  55.3080650  54.2326510   6.5789770  55.7766990  54.6740120
   7.5718100  54.6502660  54.8671700  11.3189050  52.0331310  55.6722300
  11.1956830  52.0517440  54.7231810  12.2673610  52.0810250  55.7920700
   5.4908640  53.6165730  51.6077220   6.3399170  54.0535880  51.5417410
   5.1239910  53.9285990  52.4349280  14.4118420  58.1878490  56.5208790
  13.4708560  58.2028720  56.6956480  14.7262490  57.4014450  56.9669090
   3.0846820  57.3023160  50.7645640   3.1650410  56.3550670  50.8763040
   3.9766570  57.6330040  50.8706300   8.9346730  58.8900830  49.3032490
   9.4552390  58.1749850  48.9373640   9.5815130  59.5286700  49.6033000
   5.3177990  55.9396450  49.0013550   5.1167050  55.0763810  49.3626890
   5.1470040  55.8529810  48.0635150  12.7966300  50.7504680  51.5300430
  13.0768590  49.9072580  51.8859850  12.0232030  50.9827790  52.0439180
   4.1160790  53.0397070  48.9891430   4.4186690  53.0464500  48.0810580
   4.8555380  52.6894930  49.4859090   7.3345720  51.9831690  49.9747630
   6.9867720  51.3055680  49.3950080   7.5358490  51.5221200  50.7891020
  13.6241800  53.3060630  50.5930490  14.0426680  53.1191610  49.7527150
  13.3177860  52.4539680  50.9033420  17.1231530  58.2184770  54.2906290
  16.7475130  57.4512700  53.8587580  16.3934650  58.6007470  54.7781220
  16.3982490  56.4442260  57.5913530  16.9219970  55.9504910  56.9603700
  16.9841910  56.5792620  58.3361100   2.4316650  54.7783810  50.2231710
   3.1408350  54.3567030  49.7378990   1.7156590  54.8459040  49.5915060
   2.0790810  50.8323140  49.2634360   2.8018940  51.3732080  49.5815580
   2.3515330  50.5586560  48.3875900  15.8882460  55.7015610  53.5305940
  16.3841580  55.4686480  54.3154820  15.6898530  54.8627450  53.1143580
  17.3169620  54.3376560  56.0643620  17.2068900  54.1832600  57.0025890
  18.0777210  53.8097500  55.8219030  18.2059890  52.1684480  49.3049760
  19.1309200  52.0365660  49.0968050  18.1835680  52.2477300  50.2586210
  18.2798380  52.9395140  51.9306470  17.4849880  52.8740260  52.4599380
  18.4841660  53.8745780  51.9191820  14.7118310  51.2692020  58.3805300
  15.1526400  51.2137120  57.5326900  14.4425900  52.1850030  58.4515480
  16.5756880  50.9007260  56.3914120  16.5145280  49.9568480  56.2445140
  17.3548910  51.0087350  56.9367580   8.0451460  52.9855670  55.8472240
   7.2325970  52.6112560  55.5068120   8.5493100  52.2300750  56.1493430
  12.5476440  49.6498120  57.0855310  13.1505810  50.2218330  57.5603830
  11.8069430  50.2137560  56.8629210  15.6911040  50.0519680  52.3595590
  15.8861670  50.9503130  52.6263020  14.9040910  49.8206760  52.8528540
   3.8762800  51.3980450  51.3971900   4.4055560  50.6110250  51.2679850
   4.5091120  52.0771640  51.6307430   6.0700640  51.1355590  54.4517290
   5.4403380  50.4342900  54.6187420   5.5305780  51.8959720  54.2350450
  11.7029810  57.8485620  37.8284990  11.6223860  56.9340230  37.5576700
  11.2894230  58.3452690  37.1224700   9.8347850  59.6264640  39.7094260
   9.0589950  59.1465080  39.9992830  10.4860780  58.9470290  39.5350420
  10.3062010  55.1092210  39.9433350  10.6826830  54.2364090  39.8307020
  10.2081520  55.4450910  39.0523790   4.4367020  53.4817840  35.4050790
   4.5433770  54.3821570  35.7119550   3.5259380  53.4335810  35.1145440
  14.0886130  52.6042650  36.8761690  14.9095750  52.1139220  36.9187170
  14.1220210  53.1940310  37.6293530   2.0850180  55.4036850  40.6503380
   2.7660290  55.6675220  41.2690780   1.7698230  54.5637720  40.9841390
   6.2774750  56.4504210  39.7375970   6.7852970  56.9485180  40.3780990
   6.8087990  55.6739410  39.5615330  18.3785680  54.6209400  43.4405320
  17.6737850  55.0091110  42.9220430  18.6443600  55.3159690  44.0426250
   4.5610850  51.0902770  44.0039390   4.5629290  51.6075160  43.1985290
   3.7315160  50.6132950  43.9809320  14.3247610  54.5443030  39.6489230
  13.6203180  54.8327920  40.2292340  14.6859770  55.3543140  39.2888790
   4.2426180  52.8012730  42.0109840   4.5842990  53.6454780  41.7163710
   3.3041990  52.9496470  42.1275180  17.3934530  53.9897820  40.0398440
  16.4459440  54.0236800  40.1713870  17.7184520  54.8036770  40.4247800
   7.9254070  50.2895000  38.3354430   8.2329050  49.7341890  37.6189930
   6.9954770  50.4239460  38.1527420  10.3134830  58.3543830  35.0714550
   9.3864110  58.2881210  35.3003020  10.4659650  59.2923960  34.9569790
  10.3003910  54.6260830  32.0681710   9.3607580  54.7874790  32.1534170
  10.6187170  55.3446510  31.5217700  13.7858680  56.0948670  42.9915610
  13.3729860  56.9202380  43.2455600  13.0534630  55.5093710  42.7991970
   5.9191470  58.8808570  37.8534280   5.5148470  58.1685820  37.3580180
   6.0054590  58.5361810  38.7422320   4.6320090  55.6551780  41.6333320
   5.1834680  55.7647120  40.8586570   5.1463600  56.0289380  42.3488550
  16.1013960  50.4093750  30.8963590  15.7886620  50.5020580  31.7962660
  16.8626430  50.9874780  30.8461020   2.6196100  57.7753550  35.3540930
   2.4993700  58.5015640  34.7422200   2.3096990  57.0056460  34.8768840
  17.3115250  55.1465250  46.8737730  16.6959520  55.6544920  46.3453190
  16.9911670  54.2463580  46.8163670   5.0859760  51.1188620  38.7364600
   4.6427910  51.8998160  38.4049120   5.6444750  51.4418510  39.4435540
   9.3729570  53.9857140  44.3399920   8.9108940  54.1940160  45.1519860
   8.9707680  53.1716490  44.0370590  14.3734080  55.2066090  45.4696580
  13.5227670  54.9071840  45.7905650  14.2135870  55.4508100  44.5580400
  11.4683790  56.7067840  47.5695370  11.7937200  55.8731590  47.2297600
  12.2564120  57.2296360  47.7173700   8.2018580  50.7399320  33.6170430
   7.5772760  50.7359190  34.3423740   8.1148700  49.8730280  33.2206400
   7.1235660  51.6635950  40.5954200   7.4207990  52.5698780  40.5146220
   7.6721220  51.1754730  39.9813770   4.8773980  56.2422190  36.4645850
   4.6514900  56.0259360  37.3692470   4.0966510  56.6750650  36.1191820
  12.1071740  56.2485560  35.0636500  11.5080630  56.9721360  34.8800120
  12.6551350  56.1862340  34.2812950   7.3173190  57.1407770  47.1306120
   7.2216790  56.2002500  46.9806520   8.1605170  57.3622840  46.7354190
  10.7136610  54.8849100  37.0939780  11.1066180  55.2021300  36.2808470
  11.0753460  54.0060980  37.2084300   2.4483730  53.5521440  45.2839900
   2.0547120  54.3996650  45.4912680   1.7602130  52.9147810  45.4748540
   9.0228780  53.6356410  48.3536640   8.3327100  53.4428610  48.9882730
   9.7661080  53.9191050  48.8860940  11.2991750  57.4754850  41.1890560
  10.5672870  57.9841660  41.5380660  10.9016090  56.6584830  40.8879340
   7.7369140  54.1509050  39.5943050   7.7405200  53.7099000  38.7447590
   8.6320260  54.4726380  39.7014870   3.5871520  54.0335540  38.5537260
   3.2471570  54.5110770  39.3104310   2.8248840  53.5800660  38.1938360
   7.7989290  55.1521130  32.5849810   7.9202110  55.1107610  33.5335630
   7.4137800  56.0145280  32.4296540  11.7617660  52.9288530  40.6013500
  11.7790400  53.3797180  41.4455350  11.5133240  52.0294170  40.8146940
   6.8110790  57.4622270  31.9833110   6.2427690  57.0140520  31.3569020
   7.5199790  57.8215050  31.4498260  15.1888410  50.3420710  46.4399880
  15.5134180  49.6110370  46.9657860  15.2244920  50.0234350  45.5380870
   8.0377110  58.2110830  41.3408460   8.4047240  57.7369400  42.0869800
   7.8482170  59.0852400  41.6816800   5.8276480  57.2519470  43.6592670
   5.5233550  58.1311450  43.8843030   6.7822940  57.3119260  43.6950110
  10.5756190  51.8483780  34.1915300   9.7620800  51.3496950  34.1160610
  10.3818140  52.6882030  33.7751650  13.2904580  56.2203430  32.4877460
  14.1784200  56.5320660  32.3128800  13.2609670  55.3475680  32.0958040
   1.8840210  58.0922210  44.8064030   1.5255150  58.7576060  45.3937370
   1.5894770  57.2605760  45.1776650   5.0853330  58.5506450  47.6903580
   4.7853470  58.6963630  46.7931400   5.8564570  57.9911740  47.5976970
  15.5618850  57.5315270  31.9557320  15.4782570  57.9629490  31.1053760
  16.2813040  57.9913620  32.3884140   3.4594850  49.8224330  36.0229430
   3.3309480  49.8142230  36.9714350   2.6356870  50.1607420  35.6720440
  11.9527560  54.0737760  43.2337580  12.3208380  53.2532970  43.5617150
  11.0925760  54.1339650  43.6493230  15.3189590  53.0294700  34.0425140
  14.6902750  53.1340370  33.3283370  14.8241510  53.2491480  34.8319020
   7.2873620  55.3080650  35.4583020   6.5789770  55.7766990  35.8996630
   7.5718100  54.6502660  36.0928210   8.9129550  56.7277350  43.4575550
   9.4114800  57.2023170  44.1227400   9.0552500  55.8040870  43.6645580
  11.3189050  52.0331310  36.8978810  11.1956830  52.0517440  35.9488320
  12.2673610  52.0810250  37.0177210   5.4908640  53.6165730  32.8333730
   6.3399170  54.0535880  32.7673920   5.1239910  53.9285990  33.6605790
  16.1196410  52.9445310  44.3003940  15.6170010  53.6850710  44.6397750
  16.9353070  53.3329310  43.9840730  14.4118420  58.1878490  37.7465300
  13.4708560  58.2028720  37.9212990  14.7262490  57.4014450  38.1925600
   3.0846820  57.3023160  31.9902150   3.1650410  56.3550670  32.1019550
   3.9766570  57.6330040  32.0962810   2.6440700  57.2667670  48.1208390
   2.6846040  56.9681540  49.0293620   3.4986200  57.6675280  47.9615910
   4.5846510  55.8459770  46.0882880   4.0542970  55.3550720  45.4606220
   5.2534580  56.2743970  45.5540810   8.9346730  58.8900830  30.5289000
   9.4552390  58.1749850  30.1630150   9.5815130  59.5286700  30.8289510
  13.9546740  57.6525390  47.8563220  14.5367510  56.8977710  47.7683700
  14.1308510  58.1832830  47.0794700   5.0718810  52.8122140  46.1680170
   4.9775680  52.1942890  45.4431040   4.4916200  53.5388430  45.9410080
   7.8380250  51.3695380  43.2007560   7.3897550  51.3919640  42.3553110
   7.2045450  50.9714400  43.7977860  10.5803700  57.9965890  45.2057840
  10.6999910  57.4007030  45.9452680  11.4397700  58.0335580  44.7859140
  12.9191600  58.5503080  43.7820350  12.3926820  59.0745700  43.1785490
  13.2622940  59.1830470  44.4130080   5.3177990  55.9396450  30.2270060
   5.1167050  55.0763810  30.5883400   5.1470040  55.8529810  29.2891660
   7.3472470  54.5387240  46.4633660   7.9372160  54.2303090  47.1511480
   6.5292710  54.0666990  46.6193560  12.1665900  54.1553050  46.6966680
  11.4781420  53.4934590  46.6316670  12.8871920  53.7091320  47.1415140
  12.7966300  50.7504680  32.7556940  13.0768590  49.9072580  33.1116360
  12.0232030  50.9827790  33.2695690   4.1160790  53.0397070  30.2147940
   4.4186690  53.0464500  29.3067090   4.8555380  52.6894930  30.7115600
   7.3345720  51.9831690  31.2004140   6.9867720  51.3055680  30.6206590
   7.5358490  51.5221200  32.0147530  13.6241800  53.3060630  31.8187000
  14.0426680  53.1191610  30.9783660  13.3177860  52.4539680  32.1289930
  17.1231530  58.2184770  35.5162800  16.7475130  57.4512700  35.0844090
  16.3934650  58.6007470  36.0037730  16.5131150  57.3656290  45.1502320
  16.2817240  57.1369040  44.2500270  16.7735700  58.2855840  45.1047210
  14.9519220  52.5912720  47.9282020  15.8289400  52.5996120  48.3116020
  14.9640060  51.8543560  47.3174370  16.3982490  56.4442260  38.8170040
  16.9219970  55.9504910  38.1860210  16.9841910  56.5792620  39.5617610
  16.5772210  56.5282130  42.3389590  15.6274920  56.4945670  42.4534580
  16.7585220  57.4382240  42.1039360   2.4316650  54.7783810  31.4488220
   3.1408350  54.3567030  30.9635500   1.7156590  54.8459040  30.8171570
   2.0790810  50.8323140  30.4890870   2.8018940  51.3732080  30.8072090
   2.3515330  50.5586560  29.6132410  15.8882460  55.7015610  34.7562450
  16.3841580  55.4686480  35.5411330  15.6898530  54.8627450  34.3400090
   1.7683000  50.0829330  40.3913490   2.4159190  49.5326710  39.9508650
   2.1884840  50.3372480  41.2129300  17.3169620  54.3376560  37.2900130
  17.2068900  54.1832600  38.2282400  18.0777210  53.8097500  37.0475540
  15.6635340  50.2770690  43.7483130  16.3007560  50.8904830  44.1142320
  15.8110230  50.3131350  42.8032360  18.2059890  52.1684480  30.5306270
  19.1309200  52.0365660  30.3224560  18.1835680  52.2477300  31.4842720
  18.2798380  52.9395140  33.1562980  17.4849880  52.8740260  33.6855890
  18.4841660  53.8745780  33.1448330   9.0339820  51.4296880  46.6558230
   8.9728710  52.0218710  47.4053640   9.9740200  51.3222840  46.5108490
  11.6714380  51.0866940  46.2950520  12.2854790  51.4046230  45.6331600
  12.2163940  50.6015530  46.9146380   2.1935640  49.7661200  46.4089580
   2.7418630  49.5849250  45.6455690   2.2590950  48.9755310  46.9445890
  12.4122420  49.6499080  42.6219810  11.5382260  49.9834190  42.4192740
  12.3033170  49.1772260  43.4471680  13.3194400  51.8569950  44.0061530
  12.9907760  51.0421710  43.6263260  14.2676700  51.8139760  43.8827220
  10.1597240  50.5668920  41.5612720   9.3769030  51.0414420  41.8409480
   9.8660170  49.6623750  41.4525900  14.7118310  51.2692020  39.6061810
  15.1526400  51.2137120  38.7583410  14.4425900  52.1850030  39.6771990
  16.5756880  50.9007260  37.6170630  16.5145280  49.9568480  37.4701650
  17.3548910  51.0087350  38.1624090   8.0451460  52.9855670  37.0728750
   7.2325970  52.6112560  36.7324630   8.5493100  52.2300750  37.3749940
  12.5476440  49.6498120  38.3111820  13.1505810  50.2218330  38.7860340
  11.8069430  50.2137560  38.0885720  15.6911040  50.0519680  33.5852100
  15.8861670  50.9503130  33.8519530  14.9040910  49.8206760  34.0785050
   3.8762800  51.3980450  32.6228410   4.4055560  50.6110250  32.4936360
   4.5091120  52.0771640  32.8563940   6.0700640  51.1355590  35.6773800
   5.4403380  50.4342900  35.8443930   5.5305780  51.8959720  35.4606960
   6.1956200  50.4139570  48.1126290   5.9140470  50.9173170  47.3487110
   6.5775900  49.6161320  47.7468420  12.7971660  49.8293150  48.6906760
  12.6837110  50.1487760  49.5858280  13.6141400  50.2305660  48.3944040
  11.7029810  57.8485620  19.0541500  11.6223860  56.9340230  18.7833210
  11.2894230  58.3452690  18.3481210   9.8347850  59.6264640  20.9350770
   9.0589950  59.1465080  21.2249340  10.4860780  58.9470290  20.7606930
  10.3062010  55.1092210  21.1689860  10.6826830  54.2364090  21.0563530
  10.2081520  55.4450910  20.2780300   4.4367020  53.4817840  16.6307300
   4.5433770  54.3821570  16.9376060   3.5259380  53.4335810  16.3401950
  14.0886130  52.6042650  18.1018200  14.9095750  52.1139220  18.1443680
  14.1220210  53.1940310  18.8550040   2.0850180  55.4036850  21.8759890
   2.7660290  55.6675220  22.4947290   1.7698230  54.5637720  22.2097900
   6.2774750  56.4504210  20.9632480   6.7852970  56.9485180  21.6037500
   6.8087990  55.6739410  20.7871840  18.3785680  54.6209400  24.6661830
  17.6737850  55.0091110  24.1476940  18.6443600  55.3159690  25.2682760
   4.5610850  51.0902770  25.2295900   4.5629290  51.6075160  24.4241800
   3.7315160  50.6132950  25.2065830  14.3247610  54.5443030  20.8745740
  13.6203180  54.8327920  21.4548850  14.6859770  55.3543140  20.5145300
   4.2426180  52.8012730  23.2366350   4.5842990  53.6454780  22.9420220
   3.3041990  52.9496470  23.3531690  17.3934530  53.9897820  21.2654950
  16.4459440  54.0236800  21.3970380  17.7184520  54.8036770  21.6504310
   7.9254070  50.2895000  19.5610940   8.2329050  49.7341890  18.8446440
   6.9954770  50.4239460  19.3783930  10.3134830  58.3543830  16.2971060
   9.3864110  58.2881210  16.5259530  10.4659650  59.2923960  16.1826300
  10.3003910  54.6260830  13.2938220   9.3607580  54.7874790  13.3790680
  10.6187170  55.3446510  12.7474210  13.7858680  56.0948670  24.2172120
  13.3729860  56.9202380  24.4712110  13.0534630  55.5093710  24.0248480
   5.9191470  58.8808570  19.0790790   5.5148470  58.1685820  18.5836690
   6.0054590  58.5361810  19.9678830   4.6320090  55.6551780  22.8589830
   5.1834680  55.7647120  22.0843080   5.1463600  56.0289380  23.5745060
  16.1013960  50.4093750  12.1220100  15.7886620  50.5020580  13.0219170
  16.8626430  50.9874780  12.0717530   2.6196100  57.7753550  16.5797440
   2.4993700  58.5015640  15.9678710   2.3096990  57.0056460  16.1025350
  17.3115250  55.1465250  28.0994240  16.6959520  55.6544920  27.5709700
  16.9911670  54.2463580  28.0420180   5.0859760  51.1188620  19.9621110
   4.6427910  51.8998160  19.6305630   5.6444750  51.4418510  20.6692050
   9.3729570  53.9857140  25.5656430   8.9108940  54.1940160  26.3776370
   8.9707680  53.1716490  25.2627100  14.3734080  55.2066090  26.6953090
  13.5227670  54.9071840  27.0162160  14.2135870  55.4508100  25.7836910
  11.4683790  56.7067840  28.7951880  11.7937200  55.8731590  28.4554110
  12.2564120  57.2296360  28.9430210   8.2018580  50.7399320  14.8426940
   7.5772760  50.7359190  15.5680250   8.1148700  49.8730280  14.4462910
   7.1235660  51.6635950  21.8210710   7.4207990  52.5698780  21.7402730
   7.6721220  51.1754730  21.2070280   4.8773980  56.2422190  17.6902360
   4.6514900  56.0259360  18.5948980   4.0966510  56.6750650  17.3448330
  12.1071740  56.2485560  16.2893010  11.5080630  56.9721360  16.1056630
  12.6551350  56.1862340  15.5069460   7.3173190  57.1407770  28.3562630
   7.2216790  56.2002500  28.2063030   8.1605170  57.3622840  27.9610700
  10.7136610  54.8849100  18.3196290  11.1066180  55.2021300  17.5064980
  11.0753460  54.0060980  18.4340810   2.4483730  53.5521440  26.5096410
   2.0547120  54.3996650  26.7169190   1.7602130  52.9147810  26.7005050
   9.0228780  53.6356410  29.5793150   8.3327100  53.4428610  30.2139240
   9.7661080  53.9191050  30.1117450  11.2991750  57.4754850  22.4147070
  10.5672870  57.9841660  22.7637170  10.9016090  56.6584830  22.1135850
   7.7369140  54.1509050  20.8199560   7.7405200  53.7099000  19.9704100
   8.6320260  54.4726380  20.9271380   3.5871520  54.0335540  19.7793770
   3.2471570  54.5110770  20.5360820   2.8248840  53.5800660  19.4194870
   7.7989290  55.1521130  13.8106320   7.9202110  55.1107610  14.7592140
   7.4137800  56.0145280  13.6553050  11.7617660  52.9288530  21.8270010
  11.7790400  53.3797180  22.6711860  11.5133240  52.0294170  22.0403450
   6.8110790  57.4622270  13.2089620   6.2427690  57.0140520  12.5825530
   7.5199790  57.8215050  12.6754770  15.1888410  50.3420710  27.6656390
  15.5134180  49.6110370  28.1914370  15.2244920  50.0234350  26.7637380
   8.0377110  58.2110830  22.5664970   8.4047240  57.7369400  23.3126310
   7.8482170  59.0852400  22.9073310   5.8276480  57.2519470  24.8849180
   5.5233550  58.1311450  25.1099540   6.7822940  57.3119260  24.9206620
  10.5756190  51.8483780  15.4171810   9.7620800  51.3496950  15.3417120
  10.3818140  52.6882030  15.0008160  13.2904580  56.2203430  13.7133970
  14.1784200  56.5320660  13.5385310  13.2609670  55.3475680  13.3214550
   1.8840210  58.0922210  26.0320540   1.5255150  58.7576060  26.6193880
   1.5894770  57.2605760  26.4033160   5.0853330  58.5506450  28.9160090
   4.7853470  58.6963630  28.0187910   5.8564570  57.9911740  28.8233480
  15.5618850  57.5315270  13.1813830  15.4782570  57.9629490  12.3310270
  16.2813040  57.9913620  13.6140650   3.4594850  49.8224330  17.2485940
   3.3309480  49.8142230  18.1970860   2.6356870  50.1607420  16.8976950
  11.9527560  54.0737760  24.4594090  12.3208380  53.2532970  24.7873660
  11.0925760  54.1339650  24.8749740  15.3189590  53.0294700  15.2681650
  14.6902750  53.1340370  14.5539880  14.8241510  53.2491480  16.0575530
   7.2873620  55.3080650  16.6839530   6.5789770  55.7766990  17.1253140
   7.5718100  54.6502660  17.3184720   8.9129550  56.7277350  24.6832060
   9.4114800  57.2023170  25.3483910   9.0552500  55.8040870  24.8902090
  11.3189050  52.0331310  18.1235320  11.1956830  52.0517440  17.1744830
  12.2673610  52.0810250  18.2433720   5.4908640  53.6165730  14.0590240
   6.3399170  54.0535880  13.9930430   5.1239910  53.9285990  14.8862300
  16.1196410  52.9445310  25.5260450  15.6170010  53.6850710  25.8654260
  16.9353070  53.3329310  25.2097240  14.4118420  58.1878490  18.9721810
  13.4708560  58.2028720  19.1469500  14.7262490  57.4014450  19.4182110
   3.0846820  57.3023160  13.2158660   3.1650410  56.3550670  13.3276060
   3.9766570  57.6330040  13.3219320   2.6440700  57.2667670  29.3464900
   2.6846040  56.9681540  30.2550130   3.4986200  57.6675280  29.1872420
   4.5846510  55.8459770  27.3139390   4.0542970  55.3550720  26.6862730
   5.2534580  56.2743970  26.7797320   8.9346730  58.8900830  11.7545510
   9.4552390  58.1749850  11.3886660   9.5815130  59.5286700  12.0546020
  13.9546740  57.6525390  29.0819730  14.5367510  56.8977710  28.9940210
  14.1308510  58.1832830  28.3051210   5.0718810  52.8122140  27.3936680
   4.9775680  52.1942890  26.6687550   4.4916200  53.5388430  27.1666590
   7.8380250  51.3695380  24.4264070   7.3897550  51.3919640  23.5809620
   7.2045450  50.9714400  25.0234370  10.5803700  57.9965890  26.4314350
  10.6999910  57.4007030  27.1709190  11.4397700  58.0335580  26.0115650
  12.9191600  58.5503080  25.0076860  12.3926820  59.0745700  24.4042000
  13.2622940  59.1830470  25.6386590   5.3177990  55.9396450  11.4526570
   5.1167050  55.0763810  11.8139910   5.1470040  55.8529810  10.5148170
   7.3472470  54.5387240  27.6890170   7.9372160  54.2303090  28.3767990
   6.5292710  54.0666990  27.8450070  12.1665900  54.1553050  27.9223190
  11.4781420  53.4934590  27.8573180  12.8871920  53.7091320  28.3671650
  12.7966300  50.7504680  13.9813450  13.0768590  49.9072580  14.3372870
  12.0232030  50.9827790  14.4952200   4.1160790  53.0397070  11.4404450
   4.4186690  53.0464500  10.5323600   4.8555380  52.6894930  11.9372110
   7.3345720  51.9831690  12.4260650   6.9867720  51.3055680  11.8463100
   7.5358490  51.5221200  13.2404040  13.6241800  53.3060630  13.0443510
  14.0426680  53.1191610  12.2040170  13.3177860  52.4539680  13.3546440
  17.1231530  58.2184770  16.7419310  16.7475130  57.4512700  16.3100600
  16.3934650  58.6007470  17.2294240  16.5131150  57.3656290  26.3758830
  16.2817240  57.1369040  25.4756780  16.7735700  58.2855840  26.3303720
  14.9519220  52.5912720  29.1538530  15.8289400  52.5996120  29.5372530
  14.9640060  51.8543560  28.5430880  16.3982490  56.4442260  20.0426550
  16.9219970  55.9504910  19.4116720  16.9841910  56.5792620  20.7874120
  16.5772210  56.5282130  23.5646100  15.6274920  56.4945670  23.6791090
  16.7585220  57.4382240  23.3295870   2.4316650  54.7783810  12.6744730
   3.1408350  54.3567030  12.1892010   1.7156590  54.8459040  12.0428080
   2.0790810  50.8323140  11.7147380   2.8018940  51.3732080  12.0328600
   2.3515330  50.5586560  10.8388920  15.8882460  55.7015610  15.9818960
  16.3841580  55.4686480  16.7667840  15.6898530  54.8627450  15.5656600
   1.7683000  50.0829330  21.6170000   2.4159190  49.5326710  21.1765160
   2.1884840  50.3372480  22.4385810  17.3169620  54.3376560  18.5156640
  17.2068900  54.1832600  19.4538910  18.0777210  53.8097500  18.2732050
  15.6635340  50.2770690  24.9739640  16.3007560  50.8904830  25.3398830
  15.8110230  50.3131350  24.0288870  18.2059890  52.1684480  11.7562780
  19.1309200  52.0365660  11.5481070  18.1835680  52.2477300  12.7099230
  18.2798380  52.9395140  14.3819490  17.4849880  52.8740260  14.9112400
  18.4841660  53.8745780  14.3704840   9.0339820  51.4296880  27.8814740
   8.9728710  52.0218710  28.6310150   9.9740200  51.3222840  27.7365000
  11.6714380  51.0866940  27.5207030  12.2854790  51.4046230  26.8588110
  12.2163940  50.6015530  28.1402890   2.1935640  49.7661200  27.6346090
   2.7418630  49.5849250  26.8712200   2.2590950  48.9755310  28.1702400
  12.4122420  49.6499080  23.8476320  11.5382260  49.9834190  23.6449250
  12.3033170  49.1772260  24.6728190  13.3194400  51.8569950  25.2318040
  12.9907760  51.0421710  24.8519770  14.2676700  51.8139760  25.1083730
  10.1597240  50.5668920  22.7869230   9.3769030  51.0414420  23.0665990
   9.8660170  49.6623750  22.6782410  14.7118310  51.2692020  20.8318320
  15.1526400  51.2137120  19.9839920  14.4425900  52.1850030  20.9028500
  16.5756880  50.9007260  18.8427140  16.5145280  49.9568480  18.6958160
  17.3548910  51.0087350  19.3880600   8.0451460  52.9855670  18.2985260
   7.2325970  52.6112560  17.9581140   8.5493100  52.2300750  18.6006450
  12.5476440  49.6498120  19.5368330  13.1505810  50.2218330  20.0116850
  11.8069430  50.2137560  19.3142230  15.6911040  50.0519680  14.8108610
  15.8861670  50.9503130  15.0776040  14.9040910  49.8206760  15.3041560
   3.8762800  51.3980450  13.8484920   4.4055560  50.6110250  13.7192870
   4.5091120  52.0771640  14.0820450   6.0700640  51.1355590  16.9030310
   5.4403380  50.4342900  17.0700440   5.5305780  51.8959720  16.6863470
   6.1956200  50.4139570  29.3382800   5.9140470  50.9173170  28.5743620
   6.5775900  49.6161320  28.9724930  12.7971660  49.8293150  29.9163270
  12.6837110  50.1487760  30.8114790  13.6141400  50.2305660  29.6200550
   9.8347850  59.6264640   2.1607280   9.0589950  59.1465080   2.4505850
  10.4860780  58.9470290   1.9863440   2.0850180  55.4036850   3.1016400
   2.7660290  55.6675220   3.7203800   1.7698230  54.5637720   3.4354410
   6.2774750  56.4504210   2.1888990   6.7852970  56.9485180   2.8294010
   6.8087990  55.6739410   2.0128350  18.3785680  54.6209400   5.8918340
  17.6737850  55.0091110   5.3733450  18.6443600  55.3159690   6.4939270
   4.5610850  51.0902770   6.4552410   4.5629290  51.6075160   5.6498310
   3.7315160  50.6132950   6.4322340  14.3247610  54.5443030   2.1002250
  13.6203180  54.8327920   2.6805360  14.6859770  55.3543140   1.7401810
   4.2426180  52.8012730   4.4622860   4.5842990  53.6454780   4.1676730
   3.3041990  52.9496470   4.5788200  17.3934530  53.9897820   2.4911460
  16.4459440  54.0236800   2.6226890  17.7184520  54.8036770   2.8760820
  13.7858680  56.0948670   5.4428630  13.3729860  56.9202380   5.6968620
  13.0534630  55.5093710   5.2504990   4.6320090  55.6551780   4.0846340
   5.1834680  55.7647120   3.3099590   5.1463600  56.0289380   4.8001570
  17.3115250  55.1465250   9.3250750  16.6959520  55.6544920   8.7966210
  16.9911670  54.2463580   9.2676690   9.3729570  53.9857140   6.7912940
   8.9108940  54.1940160   7.6032880   8.9707680  53.1716490   6.4883610
  14.3734080  55.2066090   7.9209600  13.5227670  54.9071840   8.2418670
  14.2135870  55.4508100   7.0093420  11.4683790  56.7067840  10.0208390
  11.7937200  55.8731590   9.6810620  12.2564120  57.2296360  10.1686720
   7.1235660  51.6635950   3.0467220   7.4207990  52.5698780   2.9659240
   7.6721220  51.1754730   2.4326790   7.3173190  57.1407770   9.5819140
   7.2216790  56.2002500   9.4319540   8.1605170  57.3622840   9.1867210
   2.4483730  53.5521440   7.7352920   2.0547120  54.3996650   7.9425700
   1.7602130  52.9147810   7.9261560   9.0228780  53.6356410  10.8049660
   8.3327100  53.4428610  11.4395750   9.7661080  53.9191050  11.3373960
  11.2991750  57.4754850   3.6403580  10.5672870  57.9841660   3.9893680
  10.9016090  56.6584830   3.3392360  11.7617660  52.9288530   3.0526520
  11.7790400  53.3797180   3.8968370  11.5133240  52.0294170   3.2659960
  15.1888410  50.3420710   8.8912900  15.5134180  49.6110370   9.4170880
  15.2244920  50.0234350   7.9893890   8.0377110  58.2110830   3.7921480
   8.4047240  57.7369400   4.5382820   7.8482170  59.0852400   4.1329820
   5.8276480  57.2519470   6.1105690   5.5233550  58.1311450   6.3356050
   6.7822940  57.3119260   6.1463130   1.8840210  58.0922210   7.2577050
   1.5255150  58.7576060   7.8450390   1.5894770  57.2605760   7.6289670
   5.0853330  58.5506450  10.1416600   4.7853470  58.6963630   9.2444420
   5.8564570  57.9911740  10.0489990  11.9527560  54.0737760   5.6850600
  12.3208380  53.2532970   6.0130170  11.0925760  54.1339650   6.1006250
   8.9129550  56.7277350   5.9088570   9.4114800  57.2023170   6.5740420
   9.0552500  55.8040870   6.1158600  16.1196410  52.9445310   6.7516960
  15.6170010  53.6850710   7.0910770  16.9353070  53.3329310   6.4353750
   2.6440700  57.2667670  10.5721410   2.6846040  56.9681540  11.4806640
   3.4986200  57.6675280  10.4128930   4.5846510  55.8459770   8.5395900
   4.0542970  55.3550720   7.9119240   5.2534580  56.2743970   8.0053830
  13.9546740  57.6525390  10.3076240  14.5367510  56.8977710  10.2196720
  14.1308510  58.1832830   9.5307720   5.0718810  52.8122140   8.6193190
   4.9775680  52.1942890   7.8944060   4.4916200  53.5388430   8.3923100
   7.8380250  51.3695380   5.6520580   7.3897550  51.3919640   4.8066130
   7.2045450  50.9714400   6.2490880  10.5803700  57.9965890   7.6570860
  10.6999910  57.4007030   8.3965700  11.4397700  58.0335580   7.2372160
  12.9191600  58.5503080   6.2333370  12.3926820  59.0745700   5.6298510
  13.2622940  59.1830470   6.8643100   7.3472470  54.5387240   8.9146680
   7.9372160  54.2303090   9.6024500   6.5292710  54.0666990   9.0706580
  12.1665900  54.1553050   9.1479700  11.4781420  53.4934590   9.0829690
  12.8871920  53.7091320   9.5928160  16.5131150  57.3656290   7.6015340
  16.2817240  57.1369040   6.7013290  16.7735700  58.2855840   7.5560230
  14.9519220  52.5912720  10.3795040  15.8289400  52.5996120  10.7629040
  14.9640060  51.8543560   9.7687390  16.5772210  56.5282130   4.7902610
  15.6274920  56.4945670   4.9047600  16.7585220  57.4382240   4.5552380
   1.7683000  50.0829330   2.8426510   2.4159190  49.5326710   2.4021670
   2.1884840  50.3372480   3.6642320  15.6635340  50.2770690   6.1996150
  16.3007560  50.8904830   6.5655340  15.8110230  50.3131350   5.2545380
   9.0339820  51.4296880   9.1071250   8.9728710  52.0218710   9.8566660
   9.9740200  51.3222840   8.9621510  11.6714380  51.0866940   8.7463540
  12.2854790  51.4046230   8.0844620  12.2163940  50.6015530   9.3659400
   2.1935640  49.7661200   8.8602600   2.7418630  49.5849250   8.0968710
   2.2590950  48.9755310   9.3958910  12.4122420  49.6499080   5.0732830
  11.5382260  49.9834190   4.8705760  12.3033170  49.1772260   5.8984700
  13.3194400  51.8569950   6.4574550  12.9907760  51.0421710   6.0776280
  14.2676700  51.8139760   6.3340240  10.1597240  50.5668920   4.0125740
   9.3769030  51.0414420   4.2922500   9.8660170  49.6623750   3.9038920
   6.1956200  50.4139570  10.5639310   5.9140470  50.9173170   9.8000130
   6.5775900  49.6161320  10.1981440  12.7971660  49.8293150  11.1419780
  12.6837110  50.1487760  12.0371300  13.6141400  50.2305660  10.8457060
  11.7029810  39.0742130  56.6028480  11.6223860  38.1596740  56.3320190
  11.2894230  39.5709200  55.8968190  13.8555280  45.2581340  57.2636880
  13.3936810  44.4868580  57.5924050  14.6680830  45.2847410  57.7689330
  10.0818590  47.5439350  56.8840870   9.4630030  47.9996850  56.3135310
  10.9370370  47.6990810  56.4830570   4.4367020  34.7074350  54.1794280
   4.5433770  35.6078080  54.4863040   3.5259380  34.6592320  53.8888930
  14.0886130  33.8299160  55.6505180  14.9095750  33.3395730  55.6930660
  14.1220210  34.4196820  56.4037020  10.9481940  42.4278590  54.2772780
  10.3299210  42.8928040  53.7135500  11.4605190  43.1206070  54.6942290
   7.9254070  31.5151510  57.1097920   8.2329050  30.9598400  56.3933420
   6.9954770  31.6495970  56.9270910  14.7714550  43.9535020  54.4895550
  14.6610880  43.0109350  54.6144970  14.7682800  44.3150660  55.3758310
  10.3134830  39.5800340  53.8458040   9.3864110  39.5137720  54.0746510
  10.4659650  40.5180470  53.7313280  10.3003910  35.8517340  50.8425200
   9.3607580  36.0131300  50.9277660  10.6187170  36.5703020  50.2961190
  14.3432120  41.1420640  54.3493290  13.7244540  40.8040190  53.7019590
  14.3256570  40.4980400  55.0572480   5.9191470  40.1065080  56.6277770
   5.5148470  39.3942330  56.1323670   6.0054590  39.7618320  57.5165810
  12.5196820  40.3807450  51.3566040  12.9590100  39.5429880  51.2103860
  13.2325240  41.0136850  51.4430180  10.6292200  45.3203520  55.3247280
  11.0688110  46.0627850  54.9102670  10.5679090  45.5630090  56.2486240
  16.1013960  31.6350260  49.6707080  15.7886620  31.7277090  50.5706150
  16.8626430  32.2131290  49.6204510   2.6196100  39.0010060  54.1284420
   2.4993700  39.7272150  53.5165690   2.3096990  38.2312970  53.6512330
  13.2962380  48.3072640  52.6810290  13.1363520  48.0175580  53.5792120
  13.1309090  47.5312770  52.1455520   5.7750760  48.0871170  54.4581910
   5.5993240  47.1706710  54.2449710   4.9206500  48.4458460  54.6979710
  12.9988510  45.8160200  51.2408290  12.3053670  45.8137490  50.5810570
  13.7411370  45.3919520  50.8102460  12.5638440  47.4422910  55.3156780
  13.0195390  46.6612290  55.6295400  12.9030960  48.1529730  55.8597960
   5.0859760  32.3445130  57.5108090   4.6427910  33.1254670  57.1792610
   5.6444750  32.6675020  58.2179030   8.2018580  31.9655830  52.3913920
   7.5772760  31.9615700  53.1167230   8.1148700  31.0986790  51.9949890
   4.8773980  37.4678700  55.2389340   4.6514900  37.2515870  56.1435960
   4.0966510  37.9007160  54.8935310  12.1071740  37.4742070  53.8379990
  11.5080630  38.1977870  53.6543610  12.6551350  37.4118850  53.0556440
  10.7136610  36.1105610  55.8683270  11.1066180  36.4277810  55.0551960
  11.0753460  35.2317490  55.9827790   7.7369140  35.3765560  58.3686540
   7.7405200  34.9355510  57.5191080   8.6320260  35.6982890  58.4758360
   3.5871520  35.2592050  57.3280750   3.2471570  35.7367280  58.0847800
   2.8248840  34.8057170  56.9681850   7.7989290  36.3777640  51.3593300
   7.9202110  36.3364120  52.3079120   7.4137800  37.2401790  51.2040030
   6.8110790  38.6878780  50.7576600   6.2427690  38.2397030  50.1312510
   7.5199790  39.0471560  50.2241750   4.3558270  42.6836970  53.0303010
   3.5820530  42.1434590  52.8701730   5.0852900  42.1643580  52.6920770
  10.5756190  33.0740290  52.9658790   9.7620800  32.5753460  52.8904100
  10.3818140  33.9138540  52.5495140  13.2904580  37.4459940  51.2620950
  14.1784200  37.7577170  51.0872290  13.2609670  36.5732190  50.8701530
   4.3995670  42.3517350  56.6681820   4.9174340  41.5485610  56.6138710
   3.9479690  42.2896490  57.5098650   9.2865170  43.6183630  51.9409120
   9.6280870  44.3625860  51.4452440   8.4577880  43.9314750  52.3033950
  15.5618850  38.7571780  50.7300810  15.4782570  39.1886000  49.8797250
  16.2813040  39.2170130  51.1627630  16.5906100  45.6114040  53.4582940
  15.9482260  44.9569660  53.7326660  16.2036760  46.0169130  52.6823610
  12.1692580  42.9399470  57.3054630  12.5216400  42.3427600  56.6456000
  11.2854910  42.6143700  57.4762880   8.2555860  43.6997160  54.7125040
   8.9426990  44.2466370  55.0932630   7.4688280  44.2437890  54.7474650
   7.5583070  40.7043190  54.3250400   8.0145850  41.5148440  54.5510590
   7.2071280  40.3866330  55.1568890   3.4594850  31.0480840  54.7972920
   3.3309480  31.0398740  55.7457840   2.6356870  31.3863930  54.4463930
  14.9803480  44.5030500  49.9959290  14.7541060  43.7860940  50.5883930
  14.5899680  44.2542940  49.1581040  14.5619730  42.4202440  51.6573450
  14.2741430  42.8815130  52.4451330  15.3571900  41.9600210  51.9257670
   6.7788130  45.9128560  51.5877420   6.7698230  46.6458250  50.9721930
   5.8586490  45.6660140  51.6804380   2.3794770  41.1343450  52.3324180
   1.7722720  41.8742350  52.3419480   2.8544120  41.2242810  51.5062380
  15.3189590  34.2551210  52.8168630  14.6902750  34.3596880  52.1026860
  14.8241510  34.4747990  53.6062510   9.7647730  45.9756800  50.2502610
   9.8659710  45.7720790  49.3204590   8.8649470  45.7215080  50.4550390
   7.2873620  36.5337160  54.2326510   6.5789770  37.0023500  54.6740120
   7.5718100  35.8759170  54.8671700  11.3189050  33.2587820  55.6722300
  11.1956830  33.2773950  54.7231810  12.2673610  33.3066760  55.7920700
   8.4065840  48.4943120  54.9450280   8.6607340  48.4564510  54.0229650
   7.4578320  48.3676450  54.9378530   5.4908640  34.8422240  51.6077220
   6.3399170  35.2792390  51.5417410   5.1239910  35.1542500  52.4349280
  14.4118420  39.4135000  56.5208790  13.4708560  39.4285230  56.6956480
  14.7262490  38.6270960  56.9669090   4.3900060  41.0954600  50.0812750
   5.1563330  40.9835960  50.6438180   4.4674750  40.3992570  49.4289520
   3.0846820  38.5279670  50.7645640   3.1650410  37.5807180  50.8763040
   3.9766570  38.8586550  50.8706300   3.8861530  48.6775060  57.8680180
   4.6224010  48.1290520  58.1388750   4.2702450  49.5431070  57.7286170
   6.9963840  47.8505370  49.6905750   7.7892450  48.1394200  49.2387540
   6.4768190  47.4197540  49.0118230  16.0494010  47.0775500  51.1142490
  15.7635520  46.6640640  50.2996670  15.8513560  48.0063210  50.9943010
   7.5141240  43.0708780  49.5548100   7.4091880  42.4561130  50.2809480
   7.3465460  42.5474670  48.7711110  10.7543970  42.1328810  50.1590090
  10.2054070  42.5798110  50.8032830  11.3763230  41.6278060  50.6827760
   6.4219090  41.0919730  52.0555390   6.8435510  40.9259600  52.8986780
   6.5469930  40.2819960  51.5610530   8.9346730  40.1157340  49.3032490
   9.4552390  39.4006360  48.9373640   9.5815130  40.7543210  49.6033000
   5.3177990  37.1652960  49.0013550   5.1167050  36.3020320  49.3626890
   5.1470040  37.0786320  48.0635150  12.7966300  31.9761190  51.5300430
  13.0768590  31.1329090  51.8859850  12.0232030  32.2084300  52.0439180
   4.1160790  34.2653580  48.9891430   4.4186690  34.2721010  48.0810580
   4.8555380  33.9151440  49.4859090   7.3345720  33.2088200  49.9747630
   6.9867720  32.5312190  49.3950080   7.5358490  32.7477710  50.7891020
   9.4994760  48.1968950  51.5934230  10.3945550  48.5353920  51.6152990
   9.5312390  47.4748360  50.9658510   3.1390920  43.5696000  49.8221230
   3.5765790  44.1125670  50.4778810   3.6238650  42.7442950  49.8317570
   4.9498640  44.6894040  54.9343460   4.6494180  44.5659010  55.8347370
   4.8436130  43.8302630  54.5259190  17.7190560  44.4690440  49.6370140
  16.8883520  44.5367090  50.1077370  17.8962390  45.3594560  49.3337000
  17.1747020  41.2137920  52.1404340  17.9365930  41.7834570  52.2464030
  17.1901390  40.6465120  52.9112650  18.1806990  42.0688020  56.9846270
  18.5515820  41.2855340  56.5782240  18.8208920  42.7577120  56.8063570
  17.2266190  41.5072290  49.2976860  17.5015030  42.4151170  49.1696080
  17.0376930  41.4434820  50.2338850  13.6241800  34.5317140  50.5930490
  14.0426680  34.3448120  49.7527150  13.3177860  33.6796190  50.9033420
  17.1231530  39.4441280  54.2906290  16.7475130  38.6769210  53.8587580
  16.3934650  39.8263980  54.7781220  16.3982490  37.6698770  57.5913530
  16.9219970  37.1761420  56.9603700  16.9841910  37.8049130  58.3361100
   2.4316650  36.0040320  50.2231710   3.1408350  35.5823540  49.7378990
   1.7156590  36.0715550  49.5915060   2.0790810  32.0579650  49.2634360
   2.8018940  32.5988590  49.5815580   2.3515330  31.7843070  48.3875900
  15.8882460  36.9272120  53.5305940  16.3841580  36.6942990  54.3154820
  15.6898530  36.0883960  53.1143580  17.3169620  35.5633070  56.0643620
  17.2068900  35.4089110  57.0025890  18.0777210  35.0354010  55.8219030
  18.2059890  33.3940990  49.3049760  19.1309200  33.2622170  49.0968050
  18.1835680  33.4733810  50.2586210  18.2798380  34.1651650  51.9306470
  17.4849880  34.0996770  52.4599380  18.4841660  35.1002290  51.9191820
  15.2216800  48.2043200  55.9244860  15.8175870  47.8827770  55.2479280
  15.4794950  47.7315020  56.7158130  14.7118310  32.4948530  58.3805300
  15.1526400  32.4393630  57.5326900  14.4425900  33.4106540  58.4515480
  16.5756880  32.1263770  56.3914120  16.5145280  31.1824990  56.2445140
  17.3548910  32.2343860  56.9367580   8.0451460  34.2112180  55.8472240
   7.2325970  33.8369070  55.5068120   8.5493100  33.4557260  56.1493430
  12.5476440  30.8754630  57.0855310  13.1505810  31.4474840  57.5603830
  11.8069430  31.4394070  56.8629210  15.6911040  31.2776190  52.3595590
  15.8861670  32.1759640  52.6263020  14.9040910  31.0463270  52.8528540
   2.4872330  46.9589360  52.7988210   1.9619950  47.3397390  52.0950170
   2.4116910  47.5840130  53.5197920   3.8762800  32.6236960  51.3971900
   4.4055560  31.8366760  51.2679850   4.5091120  33.3028150  51.6307430
   6.0700640  32.3612100  54.4517290   5.4403380  31.6599410  54.6187420
   5.5305780  33.1216230  54.2350450  17.2437650  48.5176900  54.1202150
  17.4189840  47.8314640  53.4763070  16.5459220  49.0423950  53.7278820
   5.0865300  48.9071740  51.6737460   5.8184120  48.6231020  51.1261350
   5.3458970  48.6685020  52.5636840   4.2480090  45.0236470  51.6783790
   3.6188970  45.4921570  52.2269620   4.3627920  44.1785690  52.1129980
  11.7029810  39.0742130  37.8284990  11.6223860  38.1596740  37.5576700
  11.2894230  39.5709200  37.1224700   9.8347850  40.8521150  39.7094260
   9.0589950  40.3721590  39.9992830  10.4860780  40.1726800  39.5350420
   3.8513680  41.1640960  40.5870020   3.0198560  40.9089670  40.9866530
   4.4594660  41.2351730  41.3227940  13.8555280  45.2581340  38.4893390
  13.3936810  44.4868580  38.8180560  14.6680830  45.2847410  38.9945840
   3.8314940  45.1981050  40.7828040   4.1342980  44.3078790  40.6038260
   4.5758530  45.7551270  40.5550290  10.0818590  47.5439350  38.1097380
   9.4630030  47.9996850  37.5391820  10.9370370  47.6990810  37.7087080
   9.2756840  43.5278340  39.7164420   9.2065120  42.5868280  39.5553550
  10.0376700  43.6179750  40.2886990  10.3062010  36.3348720  39.9433350
  10.6826830  35.4620600  39.8307020  10.2081520  36.6707420  39.0523790
   4.4367020  34.7074350  35.4050790   4.5433770  35.6078080  35.7119550
   3.5259380  34.6592320  35.1145440  14.0886130  33.8299160  36.8761690
  14.9095750  33.3395730  36.9187170  14.1220210  34.4196820  37.6293530
   2.0850180  36.6293360  40.6503380   2.7660290  36.8931730  41.2690780
   1.7698230  35.7894230  40.9841390   6.2774750  37.6760720  39.7375970
   6.7852970  38.1741690  40.3780990   6.8087990  36.8995920  39.5615330
   4.5610850  32.3159280  44.0039390   4.5629290  32.8331670  43.1985290
   3.7315160  31.8389460  43.9809320  10.9481940  42.4278590  35.5029290
  10.3299210  42.8928040  34.9392010  11.4605190  43.1206070  35.9198800
   5.8113700  41.9554460  42.1812890   5.4783080  42.5823380  42.8233960
   5.9880380  42.4816340  41.4014560  14.3247610  35.7699540  39.6489230
  13.6203180  36.0584430  40.2292340  14.6859770  36.5799650  39.2888790
   4.2426180  34.0269240  42.0109840   4.5842990  34.8711290  41.7163710
   3.3041990  34.1752980  42.1275180   5.0232800  43.9235260  43.9962070
   5.6406800  44.5986340  43.7146520   4.1625920  44.3323240  43.9049570
  15.9410390  45.3874670  41.9116710  15.2573910  46.0573780  41.9033380
  16.4804680  45.5855320  41.1461570   7.9254070  31.5151510  38.3354430
   8.2329050  30.9598400  37.6189930   6.9954770  31.6495970  38.1527420
  13.4769130  47.2318800  40.6261890  13.4896290  46.8281090  39.7584150
  12.9244350  48.0066090  40.5223320  14.7714550  43.9535020  35.7152060
  14.6610880  43.0109350  35.8401480  14.7682800  44.3150660  36.6014820
  12.8754570  42.1348640  41.9544500  13.2923360  41.9208750  41.1197960
  13.5994390  42.3921430  42.5253120  10.3134830  39.5800340  35.0714550
   9.3864110  39.5137720  35.3003020  10.4659650  40.5180470  34.9569790
  10.3003910  35.8517340  32.0681710   9.3607580  36.0131300  32.1534170
  10.6187170  36.5703020  31.5217700  14.3432120  41.1420640  35.5749800
  13.7244540  40.8040190  34.9276100  14.3256570  40.4980400  36.2828990
  13.7858680  37.3205180  42.9915610  13.3729860  38.1458890  43.2455600
  13.0534630  36.7350220  42.7991970   5.9191470  40.1065080  37.8534280
   5.5148470  39.3942330  37.3580180   6.0054590  39.7618320  38.7422320
   6.3873170  43.7932640  40.0173490   6.0901460  43.1878110  39.3381270
   7.3372990  43.8309950  39.9062850   4.6320090  36.8808290  41.6333320
   5.1834680  36.9903630  40.8586570   5.1463600  37.2545890  42.3488550
  14.4758780  47.3664510  43.6796590  13.9989340  48.1736700  43.4869200
  13.7920570  46.7142840  43.8322800   5.4791600  43.5314330  46.6681290
   4.5820130  43.7554300  46.9154690   5.5044470  43.6549270  45.7192690
  12.5196820  40.3807450  32.5822550  12.9590100  39.5429880  32.4360370
  13.2325240  41.0136850  32.6686690   4.3062820  40.4027650  45.2438660
   4.1670590  41.2750450  45.6126060   3.4244180  40.0600460  45.0986600
  10.6292200  45.3203520  36.5503790  11.0688110  46.0627850  36.1359180
  10.5679090  45.5630090  37.4742750   6.1043170  46.3449350  47.4523810
   6.0758600  46.7492300  46.5852240   5.9408140  45.4159710  47.2895410
  16.1013960  31.6350260  30.8963590  15.7886620  31.7277090  31.7962660
  16.8626430  32.2131290  30.8461020   2.6196100  39.0010060  35.3540930
   2.4993700  39.7272150  34.7422200   2.3096990  38.2312970  34.8768840
  18.0557990  47.1276450  48.7487980  18.5317710  47.6059340  49.4277060
  18.6765150  47.0593940  48.0233480  17.4591240  44.3189300  45.9087990
  17.5854300  44.0801180  44.9905170  17.5012620  43.4873840  46.3810070
  11.3207980  48.0217300  44.4782800  11.8352650  47.9325310  45.2805230
  10.4777060  48.3677000  44.7710710  13.2962380  48.3072640  33.9066800
  13.1363520  48.0175580  34.8048630  13.1309090  47.5312770  33.3712030
   5.7750760  48.0871170  35.6838420   5.5993240  47.1706710  35.4706220
   4.9206500  48.4458460  35.9236220  12.9988510  45.8160200  32.4664800
  12.3053670  45.8137490  31.8067080  13.7411370  45.3919520  32.0358970
  12.5638440  47.4422910  36.5413290  13.0195390  46.6612290  36.8551910
  12.9030960  48.1529730  37.0854470  17.3115250  36.3721760  46.8737730
  16.6959520  36.8801430  46.3453190  16.9911670  35.4720090  46.8163670
   5.0859760  32.3445130  38.7364600   4.6427910  33.1254670  38.4049120
   5.6444750  32.6675020  39.4435540   9.3729570  35.2113650  44.3399920
   8.9108940  35.4196670  45.1519860   8.9707680  34.3973000  44.0370590
  14.3734080  36.4322600  45.4696580  13.5227670  36.1328350  45.7905650
  14.2135870  36.6764610  44.5580400  11.4683790  37.9324350  47.5695370
  11.7937200  37.0988100  47.2297600  12.2564120  38.4552870  47.7173700
   8.2018580  31.9655830  33.6170430   7.5772760  31.9615700  34.3423740
   8.1148700  31.0986790  33.2206400   7.1235660  32.8892460  40.5954200
   7.4207990  33.7955290  40.5146220   7.6721220  32.4011240  39.9813770
   4.8773980  37.4678700  36.4645850   4.6514900  37.2515870  37.3692470
   4.0966510  37.9007160  36.1191820  12.1071740  37.4742070  35.0636500
  11.5080630  38.1977870  34.8800120  12.6551350  37.4118850  34.2812950
   7.3173190  38.3664280  47.1306120   7.2216790  37.4259010  46.9806520
   8.1605170  38.5879350  46.7354190  10.7136610  36.1105610  37.0939780
  11.1066180  36.4277810  36.2808470  11.0753460  35.2317490  37.2084300
   2.4483730  34.7777950  45.2839900   2.0547120  35.6253160  45.4912680
   1.7602130  34.1404320  45.4748540   9.0228780  34.8612920  48.3536640
   8.3327100  34.6685120  48.9882730   9.7661080  35.1447560  48.8860940
  11.2991750  38.7011360  41.1890560  10.5672870  39.2098170  41.5380660
  10.9016090  37.8841340  40.8879340   7.7369140  35.3765560  39.5943050
   7.7405200  34.9355510  38.7447590   8.6320260  35.6982890  39.7014870
   3.5871520  35.2592050  38.5537260   3.2471570  35.7367280  39.3104310
   2.8248840  34.8057170  38.1938360   7.7989290  36.3777640  32.5849810
   7.9202110  36.3364120  33.5335630   7.4137800  37.2401790  32.4296540
  11.7617660  34.1545040  40.6013500  11.7790400  34.6053690  41.4455350
  11.5133240  33.2550680  40.8146940   6.8110790  38.6878780  31.9833110
   6.2427690  38.2397030  31.3569020   7.5199790  39.0471560  31.4498260
  15.1888410  31.5677220  46.4399880  15.5134180  30.8366880  46.9657860
  15.2244920  31.2490860  45.5380870   1.8879970  42.5890800  45.8599840
   1.5034760  41.9484470  46.4582800   2.1992160  43.2926920  46.4294570
   8.0377110  39.4367340  41.3408460   8.4047240  38.9625910  42.0869800
   7.8482170  40.3108910  41.6816800   5.8276480  38.4775980  43.6592670
   5.5233550  39.3567960  43.8843030   6.7822940  38.5375770  43.6950110
   4.3558270  42.6836970  34.2559520   3.5820530  42.1434590  34.0958240
   5.0852900  42.1643580  33.9177280  15.1146250  41.6802330  40.0485910
  15.8345370  42.1757620  39.6582020  14.9128070  41.0020220  39.4039780
  10.5756190  33.0740290  34.1915300   9.7620800  32.5753460  34.1160610
  10.3818140  33.9138540  33.7751650  10.4965050  41.7511390  45.9354910
  10.4302360  40.8307060  45.6812500   9.8670190  41.8486830  46.6499550
  13.2904580  37.4459940  32.4877460  14.1784200  37.7577170  32.3128800
  13.2609670  36.5732190  32.0958040   4.3995670  42.3517350  37.8938330
   4.9174340  41.5485610  37.8395220   3.9479690  42.2896490  38.7355160
   9.2865170  43.6183630  33.1665630   9.6280870  44.3625860  32.6708950
   8.4577880  43.9314750  33.5290460   1.8840210  39.3178720  44.8064030
   1.5255150  39.9832570  45.3937370   1.5894770  38.4862270  45.1776650
   5.0853330  39.7762960  47.6903580   4.7853470  39.9220140  46.7931400
   5.8564570  39.2168250  47.5976970  10.4281780  44.5731960  45.6858710
  10.4426320  43.6412920  45.4677620   9.7206880  44.6591720  46.3248480
  15.5618850  38.7571780  31.9557320  15.4782570  39.1886000  31.1053760
  16.2813040  39.2170130  32.3884140  16.6392990  41.2139300  45.0327290
  15.9141180  41.8068080  44.8356680  17.1668450  41.2062840  44.2340660
  16.5906100  45.6114040  34.6839450  15.9482260  44.9569660  34.9583170
  16.2036760  46.0169130  33.9080120  12.1692580  42.9399470  38.5311140
  12.5216400  42.3427600  37.8712510  11.2854910  42.6143700  38.7019390
   8.2555860  43.6997160  35.9381550   8.9426990  44.2466370  36.3189140
   7.4688280  44.2437890  35.9731160   7.5583070  40.7043190  35.5506910
   8.0145850  41.5148440  35.7767100   7.2071280  40.3866330  36.3825400
   9.8615680  46.2149530  42.7799210  10.5057900  46.4208910  43.4572630
  10.2245120  45.4537930  42.3270060   3.4594850  31.0480840  36.0229430
   3.3309480  31.0398740  36.9714350   2.6356870  31.3863930  35.6720440
  11.1347760  44.2181880  41.4976660  11.7769990  43.5175040  41.6108830
  11.6597110  44.9980320  41.3173550  14.9803480  44.5030500  31.2215800
  14.7541060  43.7860940  31.8140440  14.5899680  44.2542940  30.3837550
  12.9085380  45.0176780  44.7012720  13.2441620  45.6043470  45.3790640
  11.9885720  44.8869490  44.9310510  14.5619730  42.4202440  32.8829960
  14.2741430  42.8815130  33.6707840  15.3571900  41.9600210  33.1514180
   8.7373960  45.0668110  47.8700780   8.4170830  44.3477350  48.4146470
   8.0632320  45.7423180  47.9436840   6.7788130  45.9128560  32.8133930
   6.7698230  46.6458250  32.1978440   5.8586490  45.6660140  32.9060890
   2.3794770  41.1343450  33.5580690   1.7722720  41.8742350  33.5675990
   2.8544120  41.2242810  32.7318890  11.9527560  35.2994270  43.2337580
  12.3208380  34.4789480  43.5617150  11.0925760  35.3596160  43.6493230
  15.3189590  34.2551210  34.0425140  14.6902750  34.3596880  33.3283370
  14.8241510  34.4747990  34.8319020   9.7647730  45.9756800  31.4759120
   9.8659710  45.7720790  30.5461100   8.8649470  45.7215080  31.6806900
   7.2873620  36.5337160  35.4583020   6.5789770  37.0023500  35.8996630
   7.5718100  35.8759170  36.0928210   8.9129550  37.9533860  43.4575550
   9.4114800  38.4279680  44.1227400   9.0552500  37.0297380  43.6645580
  11.3189050  33.2587820  36.8978810  11.1956830  33.2773950  35.9488320
  12.2673610  33.3066760  37.0177210   8.4065840  48.4943120  36.1706790
   8.6607340  48.4564510  35.2486160   7.4578320  48.3676450  36.1635040
   5.4908640  34.8422240  32.8333730   6.3399170  35.2792390  32.7673920
   5.1239910  35.1542500  33.6605790  16.1196410  34.1701820  44.3003940
  15.6170010  34.9107220  44.6397750  16.9353070  34.5585820  43.9840730
  14.4118420  39.4135000  37.7465300  13.4708560  39.4285230  37.9212990
  14.7262490  38.6270960  38.1925600   4.3900060  41.0954600  31.3069260
   5.1563330  40.9835960  31.8694690   4.4674750  40.3992570  30.6546030
   3.0846820  38.5279670  31.9902150   3.1650410  37.5807180  32.1019550
   3.9766570  38.8586550  32.0962810  16.4144000  46.5843850  39.4219560
  16.5391420  47.4075020  39.8943370  17.2809560  46.3734580  39.0743710
   3.8861530  48.6775060  39.0936690   4.6224010  48.1290520  39.3645260
   4.2702450  49.5431070  38.9542680   2.8919810  47.8621130  48.2822270
   3.6932540  48.1833180  48.6957670   2.3771630  47.5016710  49.0042180
   6.9963840  47.8505370  30.9162260   7.7892450  48.1394200  30.4644050
   6.4768190  47.4197540  30.2374740  11.7284440  43.9701000  48.2297680
  11.1222600  43.9932600  47.4893430  11.4238550  43.2384040  48.7664930
  13.1584810  47.6981290  46.8407090  14.1106560  47.6139310  46.7907330
  13.0113030  48.3623000  47.5140880  16.0494010  47.0775500  32.3399000
  15.7635520  46.6640640  31.5253180  15.8513560  48.0063210  32.2199520
   7.5141240  43.0708780  30.7804610   7.4091880  42.4561130  31.5065990
   7.3465460  42.5474670  29.9967620   7.6655560  41.7565580  46.7593840
   6.9001230  42.3250580  46.6748510   7.8471520  41.4641790  45.8662070
  10.7543970  42.1328810  31.3846600  10.2054070  42.5798110  32.0289340
  11.3763230  41.6278060  31.9084270  14.8078910  43.4870910  47.3168860
  15.5488380  43.8246670  46.8136320  14.0451590  43.6562970  46.7638630
   2.6440700  38.4924180  48.1208390   2.6846040  38.1938050  49.0293620
   3.4986200  38.8931790  47.9615910   6.4219090  41.0919730  33.2811900
   6.8435510  40.9259600  34.1243290   6.5469930  40.2819960  32.7867040
   4.5846510  37.0716280  46.0882880   4.0542970  36.5807230  45.4606220
   5.2534580  37.5000480  45.5540810   8.9346730  40.1157340  30.5289000
   9.4552390  39.4006360  30.1630150   9.5815130  40.7543210  30.8289510
  13.4824570  41.5385740  45.8524070  13.8965590  41.6930820  46.7014490
  12.5475570  41.6640960  46.0149850  13.9546740  38.8781900  47.8563220
  14.5367510  38.1234220  47.7683700  14.1308510  39.4089340  47.0794700
   5.0718810  34.0378650  46.1680170   4.9775680  33.4199400  45.4431040
   4.4916200  34.7644940  45.9410080   7.8380250  32.5951890  43.2007560
   7.3897550  32.6176150  42.3553110   7.2045450  32.1970910  43.7977860
   8.2439800  41.4906220  43.8220000   8.6627910  42.3338950  43.6496240
   7.3248430  41.6278260  43.5926780  10.5803700  39.2222400  45.2057840
  10.6999910  38.6263540  45.9452680  11.4397700  39.2592090  44.7859140
  12.9191600  39.7759590  43.7820350  12.3926820  40.3002210  43.1785490
  13.2622940  40.4086980  44.4130080   5.3177990  37.1652960  30.2270060
   5.1167050  36.3020320  30.5883400   5.1470040  37.0786320  29.2891660
   6.0947220  47.7959230  44.9377730   5.5568310  48.5205290  44.6186430
   6.3481180  47.3189570  44.1475070   7.3472470  35.7643750  46.4633660
   7.9372160  35.4559600  47.1511480   6.5292710  35.2923500  46.6193560
  12.1665900  35.3809560  46.6966680  11.4781420  34.7191100  46.6316670
  12.8871920  34.9347830  47.1415140  12.7966300  31.9761190  32.7556940
  13.0768590  31.1329090  33.1116360  12.0232030  32.2084300  33.2695690
   4.1160790  34.2653580  30.2147940   4.4186690  34.2721010  29.3067090
   4.8555380  33.9151440  30.7115600   8.9509430  49.0310440  45.1964380
   8.8768130  49.9345580  45.5036750   8.0488270  48.7122340  45.1686450
   7.3345720  33.2088200  31.2004140   6.9867720  32.5312190  30.6206590
   7.5358490  32.7477710  32.0147530   9.4994760  48.1968950  32.8190740
  10.3945550  48.5353920  32.8409500   9.5312390  47.4748360  32.1915020
   3.1390920  43.5696000  31.0477740   3.5765790  44.1125670  31.7035320
   3.6238650  42.7442950  31.0574080   4.9498640  44.6894040  36.1599970
   4.6494180  44.5659010  37.0603880   4.8436130  43.8302630  35.7515700
  16.4789110  46.7272620  45.5256940  15.8791100  46.7865180  44.7820860
  16.6083010  45.7877600  45.6553790  17.7190560  44.4690440  30.8626650
  16.8883520  44.5367090  31.3333880  17.8962390  45.3594560  30.5593510
  17.1747020  41.2137920  33.3660850  17.9365930  41.7834570  33.4720540
  17.1901390  40.6465120  34.1369160  15.1640750  43.4524600  43.6233100
  14.3500590  43.8821760  43.8858890  15.5714950  44.0643010  43.0102150
  17.2266190  41.5072290  30.5233370  17.5015030  42.4151170  30.3952590
  17.0376930  41.4434820  31.4595360  13.6241800  34.5317140  31.8187000
  14.0426680  34.3448120  30.9783660  13.3177860  33.6796190  32.1289930
  17.1231530  39.4441280  35.5162800  16.7475130  38.6769210  35.0844090
  16.3934650  39.8263980  36.0037730  16.5131150  38.5912800  45.1502320
  16.2817240  38.3625550  44.2500270  16.7735700  39.5112350  45.1047210
  14.9519220  33.8169230  47.9282020  15.8289400  33.8252630  48.3116020
  14.9640060  33.0800070  47.3174370   2.4316650  36.0040320  31.4488220
   3.1408350  35.5823540  30.9635500   1.7156590  36.0715550  30.8171570
   2.0790810  32.0579650  30.4890870   2.8018940  32.5988590  30.8072090
   2.3515330  31.7843070  29.6132410  15.8882460  36.9272120  34.7562450
  16.3841580  36.6942990  35.5411330  15.6898530  36.0883960  34.3400090
   1.7683000  31.3085840  40.3913490   2.4159190  30.7583220  39.9508650
   2.1884840  31.5628990  41.2129300  15.6635340  31.5027200  43.7483130
  16.3007560  32.1161340  44.1142320  15.8110230  31.5387860  42.8032360
  18.2059890  33.3940990  30.5306270  19.1309200  33.2622170  30.3224560
  18.1835680  33.4733810  31.4842720  15.2216800  48.2043200  37.1501370
  15.8175870  47.8827770  36.4735790  15.4794950  47.7315020  37.9414640
   3.1279370  44.6361110  47.2992000   3.0849000  44.2654020  48.1806460
   3.2590380  45.5738680  47.4393820   6.8285400  46.1920700  42.9001720
   6.5876760  46.4595260  42.0132240   7.7688040  46.3626430  42.9552580
   9.0339820  32.6553390  46.6558230   8.9728710  33.2475220  47.4053640
   9.9740200  32.5479350  46.5108490  11.6714380  32.3123450  46.2950520
  12.2854790  32.6302740  45.6331600  12.2163940  31.8272040  46.9146380
  18.0889560  48.2115080  43.7012360  17.5947840  48.6083950  42.9839490
  17.4802850  47.5864290  44.0949640   2.1935640  30.9917710  46.4089580
   2.7418630  30.8105760  45.6455690   2.2590950  30.2011820  46.9445890
   2.9667400  47.5823360  44.4189780   2.3727720  47.4508060  45.1579820
   2.9591240  46.7461500  43.9531880  12.4122420  30.8755590  42.6219810
  11.5382260  31.2090700  42.4192740  12.3033170  30.4028770  43.4471680
  13.3194400  33.0826460  44.0061530  12.9907760  32.2678220  43.6263260
  14.2676700  33.0396270  43.8827220  15.7729010  48.8538500  40.9799100
  15.3131980  49.6054310  40.6057120  15.1441470  48.1344970  40.9213900
   2.5979630  44.9481740  43.3697820   1.8713690  44.3287030  43.3023770
   2.6588780  45.3422350  42.4995900   6.2024730  47.1626740  40.1547230
   6.7189750  46.5514100  39.6295490   6.8522110  47.6655520  40.6458240
   8.9420230  48.0535230  40.9816210   9.2298040  47.7989530  40.1049220
   9.4543450  47.5012590  41.5721780  10.1597240  31.7925430  41.5612720
   9.3769030  32.2670930  41.8409480   9.8660170  30.8880260  41.4525900
  14.7118310  32.4948530  39.6061810  15.1526400  32.4393630  38.7583410
  14.4425900  33.4106540  39.6771990   8.0451460  34.2112180  37.0728750
   7.2325970  33.8369070  36.7324630   8.5493100  33.4557260  37.3749940
  12.5476440  30.8754630  38.3111820  13.1505810  31.4474840  38.7860340
  11.8069430  31.4394070  38.0885720   2.4872330  46.9589360  34.0244720
   1.9619950  47.3397390  33.3206680   2.4116910  47.5840130  34.7454430
   3.8762800  32.6236960  32.6228410   4.4055560  31.8366760  32.4936360
   4.5091120  33.3028150  32.8563940   6.0700640  32.3612100  35.6773800
   5.4403380  31.6599410  35.8443930   5.5305780  33.1216230  35.4606960
   9.0092590  48.9751330  48.3484410   9.9359900  48.7395600  48.3920370
   8.9943020  49.8023330  47.8670440  17.2437650  48.5176900  35.3458660
  17.4189840  47.8314640  34.7019580  16.5459220  49.0423950  34.9535330
   6.1956200  31.6396080  48.1126290   5.9140470  32.1429680  47.3487110
   6.5775900  30.8417830  47.7468420   5.0865300  48.9071740  32.8993970
   5.8184120  48.6231020  32.3517860   5.3458970  48.6685020  33.7893350
   4.2480090  45.0236470  32.9040300   3.6188970  45.4921570  33.4526130
   4.3627920  44.1785690  33.3386490  12.7971660  31.0549660  48.6906760
  12.6837110  31.3744270  49.5858280  13.6141400  31.4562170  48.3944040
  15.5770150  48.2021190  48.1725450  16.3695470  47.7070420  47.9651410
  15.8703300  48.8811330  48.7801060  11.7029810  39.0742130  19.0541500
  11.6223860  38.1596740  18.7833210  11.2894230  39.5709200  18.3481210
   9.8347850  40.8521150  20.9350770   9.0589950  40.3721590  21.2249340
  10.4860780  40.1726800  20.7606930   3.8513680  41.1640960  21.8126530
   3.0198560  40.9089670  22.2123040   4.4594660  41.2351730  22.5484450
  13.8555280  45.2581340  19.7149900  13.3936810  44.4868580  20.0437070
  14.6680830  45.2847410  20.2202350   3.8314940  45.1981050  22.0084550
   4.1342980  44.3078790  21.8294770   4.5758530  45.7551270  21.7806800
  10.0818590  47.5439350  19.3353890   9.4630030  47.9996850  18.7648330
  10.9370370  47.6990810  18.9343590   9.2756840  43.5278340  20.9420930
   9.2065120  42.5868280  20.7810060  10.0376700  43.6179750  21.5143500
  10.3062010  36.3348720  21.1689860  10.6826830  35.4620600  21.0563530
  10.2081520  36.6707420  20.2780300   4.4367020  34.7074350  16.6307300
   4.5433770  35.6078080  16.9376060   3.5259380  34.6592320  16.3401950
  14.0886130  33.8299160  18.1018200  14.9095750  33.3395730  18.1443680
  14.1220210  34.4196820  18.8550040   2.0850180  36.6293360  21.8759890
   2.7660290  36.8931730  22.4947290   1.7698230  35.7894230  22.2097900
   6.2774750  37.6760720  20.9632480   6.7852970  38.1741690  21.6037500
   6.8087990  36.8995920  20.7871840  18.3785680  35.8465910  24.6661830
  17.6737850  36.2347620  24.1476940  18.6443600  36.5416200  25.2682760
   4.5610850  32.3159280  25.2295900   4.5629290  32.8331670  24.4241800
   3.7315160  31.8389460  25.2065830  10.9481940  42.4278590  16.7285800
  10.3299210  42.8928040  16.1648520  11.4605190  43.1206070  17.1455310
   5.8113700  41.9554460  23.4069400   5.4783080  42.5823380  24.0490470
   5.9880380  42.4816340  22.6271070  14.3247610  35.7699540  20.8745740
  13.6203180  36.0584430  21.4548850  14.6859770  36.5799650  20.5145300
   4.2426180  34.0269240  23.2366350   4.5842990  34.8711290  22.9420220
   3.3041990  34.1752980  23.3531690   5.0232800  43.9235260  25.2218580
   5.6406800  44.5986340  24.9403030   4.1625920  44.3323240  25.1306080
  15.9410390  45.3874670  23.1373220  15.2573910  46.0573780  23.1289890
  16.4804680  45.5855320  22.3718080  17.3934530  35.2154330  21.2654950
  16.4459440  35.2493310  21.3970380  17.7184520  36.0293280  21.6504310
   7.9254070  31.5151510  19.5610940   8.2329050  30.9598400  18.8446440
   6.9954770  31.6495970  19.3783930  13.4769130  47.2318800  21.8518400
  13.4896290  46.8281090  20.9840660  12.9244350  48.0066090  21.7479830
  14.7714550  43.9535020  16.9408570  14.6610880  43.0109350  17.0657990
  14.7682800  44.3150660  17.8271330  12.8754570  42.1348640  23.1801010
  13.2923360  41.9208750  22.3454470  13.5994390  42.3921430  23.7509630
  10.3134830  39.5800340  16.2971060   9.3864110  39.5137720  16.5259530
  10.4659650  40.5180470  16.1826300  10.3003910  35.8517340  13.2938220
   9.3607580  36.0131300  13.3790680  10.6187170  36.5703020  12.7474210
  16.8216670  40.5335860  23.2717250  15.9935300  40.6028950  22.7967380
  17.4167150  41.1190170  22.8033080  14.3432120  41.1420640  16.8006310
  13.7244540  40.8040190  16.1532610  14.3256570  40.4980400  17.5085500
  13.7858680  37.3205180  24.2172120  13.3729860  38.1458890  24.4712110
  13.0534630  36.7350220  24.0248480   5.9191470  40.1065080  19.0790790
   5.5148470  39.3942330  18.5836690   6.0054590  39.7618320  19.9678830
   6.3873170  43.7932640  21.2430000   6.0901460  43.1878110  20.5637780
   7.3372990  43.8309950  21.1319360   4.6320090  36.8808290  22.8589830
   5.1834680  36.9903630  22.0843080   5.1463600  37.2545890  23.5745060
  14.4758780  47.3664510  24.9053100  13.9989340  48.1736700  24.7125710
  13.7920570  46.7142840  25.0579310   5.4791600  43.5314330  27.8937800
   4.5820130  43.7554300  28.1411200   5.5044470  43.6549270  26.9449200
  12.5196820  40.3807450  13.8079060  12.9590100  39.5429880  13.6616880
  13.2325240  41.0136850  13.8943200   4.3062820  40.4027650  26.4695170
   4.1670590  41.2750450  26.8382570   3.4244180  40.0600460  26.3243110
  10.6292200  45.3203520  17.7760300  11.0688110  46.0627850  17.3615690
  10.5679090  45.5630090  18.6999260   6.1043170  46.3449350  28.6780320
   6.0758600  46.7492300  27.8108750   5.9408140  45.4159710  28.5151920
  16.1013960  31.6350260  12.1220100  15.7886620  31.7277090  13.0219170
  16.8626430  32.2131290  12.0717530   2.6196100  39.0010060  16.5797440
   2.4993700  39.7272150  15.9678710   2.3096990  38.2312970  16.1025350
  18.0557990  47.1276450  29.9744490  18.5317710  47.6059340  30.6533570
  18.6765150  47.0593940  29.2489990  17.4591240  44.3189300  27.1344500
  17.5854300  44.0801180  26.2161680  17.5012620  43.4873840  27.6066580
  11.3207980  48.0217300  25.7039310  11.8352650  47.9325310  26.5061740
  10.4777060  48.3677000  25.9967220  13.2962380  48.3072640  15.1323310
  13.1363520  48.0175580  16.0305140  13.1309090  47.5312770  14.5968540
   5.7750760  48.0871170  16.9094930   5.5993240  47.1706710  16.6962730
   4.9206500  48.4458460  17.1492730  12.9988510  45.8160200  13.6921310
  12.3053670  45.8137490  13.0323590  13.7411370  45.3919520  13.2615480
  12.5638440  47.4422910  17.7669800  13.0195390  46.6612290  18.0808420
  12.9030960  48.1529730  18.3110980  17.3115250  36.3721760  28.0994240
  16.6959520  36.8801430  27.5709700  16.9911670  35.4720090  28.0420180
   5.0859760  32.3445130  19.9621110   4.6427910  33.1254670  19.6305630
   5.6444750  32.6675020  20.6692050   9.3729570  35.2113650  25.5656430
   8.9108940  35.4196670  26.3776370   8.9707680  34.3973000  25.2627100
  14.3734080  36.4322600  26.6953090  13.5227670  36.1328350  27.0162160
  14.2135870  36.6764610  25.7836910  11.4683790  37.9324350  28.7951880
  11.7937200  37.0988100  28.4554110  12.2564120  38.4552870  28.9430210
   8.2018580  31.9655830  14.8426940   7.5772760  31.9615700  15.5680250
   8.1148700  31.0986790  14.4462910   7.1235660  32.8892460  21.8210710
   7.4207990  33.7955290  21.7402730   7.6721220  32.4011240  21.2070280
   4.8773980  37.4678700  17.6902360   4.6514900  37.2515870  18.5948980
   4.0966510  37.9007160  17.3448330  12.1071740  37.4742070  16.2893010
  11.5080630  38.1977870  16.1056630  12.6551350  37.4118850  15.5069460
   7.3173190  38.3664280  28.3562630   7.2216790  37.4259010  28.2063030
   8.1605170  38.5879350  27.9610700  10.7136610  36.1105610  18.3196290
  11.1066180  36.4277810  17.5064980  11.0753460  35.2317490  18.4340810
   2.4483730  34.7777950  26.5096410   2.0547120  35.6253160  26.7169190
   1.7602130  34.1404320  26.7005050   9.0228780  34.8612920  29.5793150
   8.3327100  34.6685120  30.2139240   9.7661080  35.1447560  30.1117450
  11.2991750  38.7011360  22.4147070  10.5672870  39.2098170  22.7637170
  10.9016090  37.8841340  22.1135850   7.7369140  35.3765560  20.8199560
   7.7405200  34.9355510  19.9704100   8.6320260  35.6982890  20.9271380
   3.5871520  35.2592050  19.7793770   3.2471570  35.7367280  20.5360820
   2.8248840  34.8057170  19.4194870   7.7989290  36.3777640  13.8106320
   7.9202110  36.3364120  14.7592140   7.4137800  37.2401790  13.6553050
  11.7617660  34.1545040  21.8270010  11.7790400  34.6053690  22.6711860
  11.5133240  33.2550680  22.0403450   6.8110790  38.6878780  13.2089620
   6.2427690  38.2397030  12.5825530   7.5199790  39.0471560  12.6754770
  15.1888410  31.5677220  27.6656390  15.5134180  30.8366880  28.1914370
  15.2244920  31.2490860  26.7637380   1.8879970  42.5890800  27.0856350
   1.5034760  41.9484470  27.6839310   2.1992160  43.2926920  27.6551080
   8.0377110  39.4367340  22.5664970   8.4047240  38.9625910  23.3126310
   7.8482170  40.3108910  22.9073310   5.8276480  38.4775980  24.8849180
   5.5233550  39.3567960  25.1099540   6.7822940  38.5375770  24.9206620
   4.3558270  42.6836970  15.4816030   3.5820530  42.1434590  15.3214750
   5.0852900  42.1643580  15.1433790  15.1146250  41.6802330  21.2742420
  15.8345370  42.1757620  20.8838530  14.9128070  41.0020220  20.6296290
  10.5756190  33.0740290  15.4171810   9.7620800  32.5753460  15.3417120
  10.3818140  33.9138540  15.0008160  10.4965050  41.7511390  27.1611420
  10.4302360  40.8307060  26.9069010   9.8670190  41.8486830  27.8756060
  13.2904580  37.4459940  13.7133970  14.1784200  37.7577170  13.5385310
  13.2609670  36.5732190  13.3214550   4.3995670  42.3517350  19.1194840
   4.9174340  41.5485610  19.0651730   3.9479690  42.2896490  19.9611670
   9.2865170  43.6183630  14.3922140   9.6280870  44.3625860  13.8965460
   8.4577880  43.9314750  14.7546970   1.8840210  39.3178720  26.0320540
   1.5255150  39.9832570  26.6193880   1.5894770  38.4862270  26.4033160
   5.0853330  39.7762960  28.9160090   4.7853470  39.9220140  28.0187910
   5.8564570  39.2168250  28.8233480  10.4281780  44.5731960  26.9115220
  10.4426320  43.6412920  26.6934130   9.7206880  44.6591720  27.5504990
  15.5618850  38.7571780  13.1813830  15.4782570  39.1886000  12.3310270
  16.2813040  39.2170130  13.6140650  16.6392990  41.2139300  26.2583800
  15.9141180  41.8068080  26.0613190  17.1668450  41.2062840  25.4597170
  16.5906100  45.6114040  15.9095960  15.9482260  44.9569660  16.1839680
  16.2036760  46.0169130  15.1336630  12.1692580  42.9399470  19.7567650
  12.5216400  42.3427600  19.0969020  11.2854910  42.6143700  19.9275900
   8.2555860  43.6997160  17.1638060   8.9426990  44.2466370  17.5445650
   7.4688280  44.2437890  17.1987670   7.5583070  40.7043190  16.7763420
   8.0145850  41.5148440  17.0023610   7.2071280  40.3866330  17.6081910
   9.8615680  46.2149530  24.0055720  10.5057900  46.4208910  24.6829140
  10.2245120  45.4537930  23.5526570   3.4594850  31.0480840  17.2485940
   3.3309480  31.0398740  18.1970860   2.6356870  31.3863930  16.8976950
  11.1347760  44.2181880  22.7233170  11.7769990  43.5175040  22.8365340
  11.6597110  44.9980320  22.5430060  14.9803480  44.5030500  12.4472310
  14.7541060  43.7860940  13.0396950  14.5899680  44.2542940  11.6094060
  12.9085380  45.0176780  25.9269230  13.2441620  45.6043470  26.6047150
  11.9885720  44.8869490  26.1567020  14.5619730  42.4202440  14.1086470
  14.2741430  42.8815130  14.8964350  15.3571900  41.9600210  14.3770690
   8.7373960  45.0668110  29.0957290   8.4170830  44.3477350  29.6402980
   8.0632320  45.7423180  29.1693350   6.7788130  45.9128560  14.0390440
   6.7698230  46.6458250  13.4234950   5.8586490  45.6660140  14.1317400
   2.3794770  41.1343450  14.7837200   1.7722720  41.8742350  14.7932500
   2.8544120  41.2242810  13.9575400  11.9527560  35.2994270  24.4594090
  12.3208380  34.4789480  24.7873660  11.0925760  35.3596160  24.8749740
  15.3189590  34.2551210  15.2681650  14.6902750  34.3596880  14.5539880
  14.8241510  34.4747990  16.0575530   9.7647730  45.9756800  12.7015630
   9.8659710  45.7720790  11.7717610   8.8649470  45.7215080  12.9063410
   7.2873620  36.5337160  16.6839530   6.5789770  37.0023500  17.1253140
   7.5718100  35.8759170  17.3184720   8.9129550  37.9533860  24.6832060
   9.4114800  38.4279680  25.3483910   9.0552500  37.0297380  24.8902090
  11.3189050  33.2587820  18.1235320  11.1956830  33.2773950  17.1744830
  12.2673610  33.3066760  18.2433720   8.4065840  48.4943120  17.3963300
   8.6607340  48.4564510  16.4742670   7.4578320  48.3676450  17.3891550
   5.4908640  34.8422240  14.0590240   6.3399170  35.2792390  13.9930430
   5.1239910  35.1542500  14.8862300  16.1196410  34.1701820  25.5260450
  15.6170010  34.9107220  25.8654260  16.9353070  34.5585820  25.2097240
  14.4118420  39.4135000  18.9721810  13.4708560  39.4285230  19.1469500
  14.7262490  38.6270960  19.4182110   4.3900060  41.0954600  12.5325770
   5.1563330  40.9835960  13.0951200   4.4674750  40.3992570  11.8802540
   3.0846820  38.5279670  13.2158660   3.1650410  37.5807180  13.3276060
   3.9766570  38.8586550  13.3219320  16.4144000  46.5843850  20.6476070
  16.5391420  47.4075020  21.1199880  17.2809560  46.3734580  20.3000220
   3.8861530  48.6775060  20.3193200   4.6224010  48.1290520  20.5901770
   4.2702450  49.5431070  20.1799190   2.8919810  47.8621130  29.5078780
   3.6932540  48.1833180  29.9214180   2.3771630  47.5016710  30.2298690
   6.9963840  47.8505370  12.1418770   7.7892450  48.1394200  11.6900560
   6.4768190  47.4197540  11.4631250  11.7284440  43.9701000  29.4554190
  11.1222600  43.9932600  28.7149940  11.4238550  43.2384040  29.9921440
  13.1584810  47.6981290  28.0663600  14.1106560  47.6139310  28.0163840
  13.0113030  48.3623000  28.7397390  16.0494010  47.0775500  13.5655510
  15.7635520  46.6640640  12.7509690  15.8513560  48.0063210  13.4456030
   7.5141240  43.0708780  12.0061120   7.4091880  42.4561130  12.7322500
   7.3465460  42.5474670  11.2224130   7.6655560  41.7565580  27.9850350
   6.9001230  42.3250580  27.9005020   7.8471520  41.4641790  27.0918580
  10.7543970  42.1328810  12.6103110  10.2054070  42.5798110  13.2545850
  11.3763230  41.6278060  13.1340780  14.8078910  43.4870910  28.5425370
  15.5488380  43.8246670  28.0392830  14.0451590  43.6562970  27.9895140
   2.6440700  38.4924180  29.3464900   2.6846040  38.1938050  30.2550130
   3.4986200  38.8931790  29.1872420   6.4219090  41.0919730  14.5068410
   6.8435510  40.9259600  15.3499800   6.5469930  40.2819960  14.0123550
   4.5846510  37.0716280  27.3139390   4.0542970  36.5807230  26.6862730
   5.2534580  37.5000480  26.7797320   8.9346730  40.1157340  11.7545510
   9.4552390  39.4006360  11.3886660   9.5815130  40.7543210  12.0546020
  13.4824570  41.5385740  27.0780580  13.8965590  41.6930820  27.9271000
  12.5475570  41.6640960  27.2406360  13.9546740  38.8781900  29.0819730
  14.5367510  38.1234220  28.9940210  14.1308510  39.4089340  28.3051210
   5.0718810  34.0378650  27.3936680   4.9775680  33.4199400  26.6687550
   4.4916200  34.7644940  27.1666590   7.8380250  32.5951890  24.4264070
   7.3897550  32.6176150  23.5809620   7.2045450  32.1970910  25.0234370
   8.2439800  41.4906220  25.0476510   8.6627910  42.3338950  24.8752750
   7.3248430  41.6278260  24.8183290  10.5803700  39.2222400  26.4314350
  10.6999910  38.6263540  27.1709190  11.4397700  39.2592090  26.0115650
  12.9191600  39.7759590  25.0076860  12.3926820  40.3002210  24.4042000
  13.2622940  40.4086980  25.6386590   5.3177990  37.1652960  11.4526570
   5.1167050  36.3020320  11.8139910   5.1470040  37.0786320  10.5148170
   6.0947220  47.7959230  26.1634240   5.5568310  48.5205290  25.8442940
   6.3481180  47.3189570  25.3731580   7.3472470  35.7643750  27.6890170
   7.9372160  35.4559600  28.3767990   6.5292710  35.2923500  27.8450070
  12.1665900  35.3809560  27.9223190  11.4781420  34.7191100  27.8573180
  12.8871920  34.9347830  28.3671650  12.7966300  31.9761190  13.9813450
  13.0768590  31.1329090  14.3372870  12.0232030  32.2084300  14.4952200
   4.1160790  34.2653580  11.4404450   4.4186690  34.2721010  10.5323600
   4.8555380  33.9151440  11.9372110   8.9509430  49.0310440  26.4220890
   8.8768130  49.9345580  26.7293260   8.0488270  48.7122340  26.3942960
   7.3345720  33.2088200  12.4260650   6.9867720  32.5312190  11.8463100
   7.5358490  32.7477710  13.2404040   9.4994760  48.1968950  14.0447250
  10.3945550  48.5353920  14.0666010   9.5312390  47.4748360  13.4171530
   3.1390920  43.5696000  12.2734250   3.5765790  44.1125670  12.9291830
   3.6238650  42.7442950  12.2830590   4.9498640  44.6894040  17.3856480
   4.6494180  44.5659010  18.2860390   4.8436130  43.8302630  16.9772210
  16.4789110  46.7272620  26.7513450  15.8791100  46.7865180  26.0077370
  16.6083010  45.7877600  26.8810300  17.7190560  44.4690440  12.0883160
  16.8883520  44.5367090  12.5590390  17.8962390  45.3594560  11.7850020
  17.1747020  41.2137920  14.5917360  17.9365930  41.7834570  14.6977050
  17.1901390  40.6465120  15.3625670  18.1806990  42.0688020  19.4359290
  18.5515820  41.2855340  19.0295260  18.8208920  42.7577120  19.2576590
  15.1640750  43.4524600  24.8489610  14.3500590  43.8821760  25.1115400
  15.5714950  44.0643010  24.2358660  17.2266190  41.5072290  11.7489880
  17.5015030  42.4151170  11.6209100  17.0376930  41.4434820  12.6851870
  13.6241800  34.5317140  13.0443510  14.0426680  34.3448120  12.2040170
  13.3177860  33.6796190  13.3546440  17.1231530  39.4441280  16.7419310
  16.7475130  38.6769210  16.3100600  16.3934650  39.8263980  17.2294240
  16.5131150  38.5912800  26.3758830  16.2817240  38.3625550  25.4756780
  16.7735700  39.5112350  26.3303720  14.9519220  33.8169230  29.1538530
  15.8289400  33.8252630  29.5372530  14.9640060  33.0800070  28.5430880
  16.3982490  37.6698770  20.0426550  16.9219970  37.1761420  19.4116720
  16.9841910  37.8049130  20.7874120  16.5772210  37.7538640  23.5646100
  15.6274920  37.7202180  23.6791090  16.7585220  38.6638750  23.3295870
   2.4316650  36.0040320  12.6744730   3.1408350  35.5823540  12.1892010
   1.7156590  36.0715550  12.0428080   2.0790810  32.0579650  11.7147380
   2.8018940  32.5988590  12.0328600   2.3515330  31.7843070  10.8388920
  15.8882460  36.9272120  15.9818960  16.3841580  36.6942990  16.7667840
  15.6898530  36.0883960  15.5656600   1.7683000  31.3085840  21.6170000
   2.4159190  30.7583220  21.1765160   2.1884840  31.5628990  22.4385810
  17.3169620  35.5633070  18.5156640  17.2068900  35.4089110  19.4538910
  18.0777210  35.0354010  18.2732050  15.6635340  31.5027200  24.9739640
  16.3007560  32.1161340  25.3398830  15.8110230  31.5387860  24.0288870
  18.2059890  33.3940990  11.7562780  19.1309200  33.2622170  11.5481070
  18.1835680  33.4733810  12.7099230  18.2798380  34.1651650  14.3819490
  17.4849880  34.0996770  14.9112400  18.4841660  35.1002290  14.3704840
  15.2216800  48.2043200  18.3757880  15.8175870  47.8827770  17.6992300
  15.4794950  47.7315020  19.1671150   3.1279370  44.6361110  28.5248510
   3.0849000  44.2654020  29.4062970   3.2590380  45.5738680  28.6650330
   6.8285400  46.1920700  24.1258230   6.5876760  46.4595260  23.2388750
   7.7688040  46.3626430  24.1809090   9.0339820  32.6553390  27.8814740
   8.9728710  33.2475220  28.6310150   9.9740200  32.5479350  27.7365000
  11.6714380  32.3123450  27.5207030  12.2854790  32.6302740  26.8588110
  12.2163940  31.8272040  28.1402890  18.0889560  48.2115080  24.9268870
  17.5947840  48.6083950  24.2096000  17.4802850  47.5864290  25.3206150
   2.1935640  30.9917710  27.6346090   2.7418630  30.8105760  26.8712200
   2.2590950  30.2011820  28.1702400   2.9667400  47.5823360  25.6446290
   2.3727720  47.4508060  26.3836330   2.9591240  46.7461500  25.1788390
  12.4122420  30.8755590  23.8476320  11.5382260  31.2090700  23.6449250
  12.3033170  30.4028770  24.6728190  13.3194400  33.0826460  25.2318040
  12.9907760  32.2678220  24.8519770  14.2676700  33.0396270  25.1083730
  15.7729010  48.8538500  22.2055610  15.3131980  49.6054310  21.8313630
  15.1441470  48.1344970  22.1470410   2.5979630  44.9481740  24.5954330
   1.8713690  44.3287030  24.5280280   2.6588780  45.3422350  23.7252410
   6.2024730  47.1626740  21.3803740   6.7189750  46.5514100  20.8552000
   6.8522110  47.6655520  21.8714750   8.9420230  48.0535230  22.2072720
   9.2298040  47.7989530  21.3305730   9.4543450  47.5012590  22.7978290
  10.1597240  31.7925430  22.7869230   9.3769030  32.2670930  23.0665990
   9.8660170  30.8880260  22.6782410  14.7118310  32.4948530  20.8318320
  15.1526400  32.4393630  19.9839920  14.4425900  33.4106540  20.9028500
  16.5756880  32.1263770  18.8427140  16.5145280  31.1824990  18.6958160
  17.3548910  32.2343860  19.3880600   8.0451460  34.2112180  18.2985260
   7.2325970  33.8369070  17.9581140   8.5493100  33.4557260  18.6006450
  12.5476440  30.8754630  19.5368330  13.1505810  31.4474840  20.0116850
  11.8069430  31.4394070  19.3142230  15.6911040  31.2776190  14.8108610
  15.8861670  32.1759640  15.0776040  14.9040910  31.0463270  15.3041560
   2.4872330  46.9589360  15.2501230   1.9619950  47.3397390  14.5463190
   2.4116910  47.5840130  15.9710940   3.8762800  32.6236960  13.8484920
   4.4055560  31.8366760  13.7192870   4.5091120  33.3028150  14.0820450
   6.0700640  32.3612100  16.9030310   5.4403380  31.6599410  17.0700440
   5.5305780  33.1216230  16.6863470   9.0092590  48.9751330  29.5740920
   9.9359900  48.7395600  29.6176880   8.9943020  49.8023330  29.0926950
  17.2437650  48.5176900  16.5715170  17.4189840  47.8314640  15.9276090
  16.5459220  49.0423950  16.1791840   6.1956200  31.6396080  29.3382800
   5.9140470  32.1429680  28.5743620   6.5775900  30.8417830  28.9724930
   5.0865300  48.9071740  14.1250480   5.8184120  48.6231020  13.5774370
   5.3458970  48.6685020  15.0149860   4.2480090  45.0236470  14.1296810
   3.6188970  45.4921570  14.6782640   4.3627920  44.1785690  14.5643000
  12.7971660  31.0549660  29.9163270  12.6837110  31.3744270  30.8114790
  13.6141400  31.4562170  29.6200550  15.5770150  48.2021190  29.3981960
  16.3695470  47.7070420  29.1907920  15.8703300  48.8811330  30.0057570
   9.8347850  40.8521150   2.1607280   9.0589950  40.3721590   2.4505850
  10.4860780  40.1726800   1.9863440   3.8513680  41.1640960   3.0383040
   3.0198560  40.9089670   3.4379550   4.4594660  41.2351730   3.7740960
   3.8314940  45.1981050   3.2341060   4.1342980  44.3078790   3.0551280
   4.5758530  45.7551270   3.0063310   9.2756840  43.5278340   2.1677440
   9.2065120  42.5868280   2.0066570  10.0376700  43.6179750   2.7400010
   2.0850180  36.6293360   3.1016400   2.7660290  36.8931730   3.7203800
   1.7698230  35.7894230   3.4354410   6.2774750  37.6760720   2.1888990
   6.7852970  38.1741690   2.8294010   6.8087990  36.8995920   2.0128350
  18.3785680  35.8465910   5.8918340  17.6737850  36.2347620   5.3733450
  18.6443600  36.5416200   6.4939270   4.5610850  32.3159280   6.4552410
   4.5629290  32.8331670   5.6498310   3.7315160  31.8389460   6.4322340
   5.8113700  41.9554460   4.6325910   5.4783080  42.5823380   5.2746980
   5.9880380  42.4816340   3.8527580  14.3247610  35.7699540   2.1002250
  13.6203180  36.0584430   2.6805360  14.6859770  36.5799650   1.7401810
   4.2426180  34.0269240   4.4622860   4.5842990  34.8711290   4.1676730
   3.3041990  34.1752980   4.5788200   5.0232800  43.9235260   6.4475090
   5.6406800  44.5986340   6.1659540   4.1625920  44.3323240   6.3562590
  15.9410390  45.3874670   4.3629730  15.2573910  46.0573780   4.3546400
  16.4804680  45.5855320   3.5974590  17.3934530  35.2154330   2.4911460
  16.4459440  35.2493310   2.6226890  17.7184520  36.0293280   2.8760820
  13.4769130  47.2318800   3.0774910  13.4896290  46.8281090   2.2097170
  12.9244350  48.0066090   2.9736340  12.8754570  42.1348640   4.4057520
  13.2923360  41.9208750   3.5710980  13.5994390  42.3921430   4.9766140
  16.8216670  40.5335860   4.4973760  15.9935300  40.6028950   4.0223890
  17.4167150  41.1190170   4.0289590  13.7858680  37.3205180   5.4428630
  13.3729860  38.1458890   5.6968620  13.0534630  36.7350220   5.2504990
   6.3873170  43.7932640   2.4686510   6.0901460  43.1878110   1.7894290
   7.3372990  43.8309950   2.3575870   4.6320090  36.8808290   4.0846340
   5.1834680  36.9903630   3.3099590   5.1463600  37.2545890   4.8001570
  14.4758780  47.3664510   6.1309610  13.9989340  48.1736700   5.9382220
  13.7920570  46.7142840   6.2835820   5.4791600  43.5314330   9.1194310
   4.5820130  43.7554300   9.3667710   5.5044470  43.6549270   8.1705710
   4.3062820  40.4027650   7.6951680   4.1670590  41.2750450   8.0639080
   3.4244180  40.0600460   7.5499620   6.1043170  46.3449350   9.9036830
   6.0758600  46.7492300   9.0365260   5.9408140  45.4159710   9.7408430
  18.0557990  47.1276450  11.2001000  18.5317710  47.6059340  11.8790080
  18.6765150  47.0593940  10.4746500  17.4591240  44.3189300   8.3601010
  17.5854300  44.0801180   7.4418190  17.5012620  43.4873840   8.8323090
  11.3207980  48.0217300   6.9295820  11.8352650  47.9325310   7.7318250
  10.4777060  48.3677000   7.2223730  17.3115250  36.3721760   9.3250750
  16.6959520  36.8801430   8.7966210  16.9911670  35.4720090   9.2676690
   9.3729570  35.2113650   6.7912940   8.9108940  35.4196670   7.6032880
   8.9707680  34.3973000   6.4883610  14.3734080  36.4322600   7.9209600
  13.5227670  36.1328350   8.2418670  14.2135870  36.6764610   7.0093420
  11.4683790  37.9324350  10.0208390  11.7937200  37.0988100   9.6810620
  12.2564120  38.4552870  10.1686720   7.1235660  32.8892460   3.0467220
   7.4207990  33.7955290   2.9659240   7.6721220  32.4011240   2.4326790
   7.3173190  38.3664280   9.5819140   7.2216790  37.4259010   9.4319540
   8.1605170  38.5879350   9.1867210   2.4483730  34.7777950   7.7352920
   2.0547120  35.6253160   7.9425700   1.7602130  34.1404320   7.9261560
   9.0228780  34.8612920  10.8049660   8.3327100  34.6685120  11.4395750
   9.7661080  35.1447560  11.3373960  11.2991750  38.7011360   3.6403580
  10.5672870  39.2098170   3.9893680  10.9016090  37.8841340   3.3392360
  11.7617660  34.1545040   3.0526520  11.7790400  34.6053690   3.8968370
  11.5133240  33.2550680   3.2659960  15.1888410  31.5677220   8.8912900
  15.5134180  30.8366880   9.4170880  15.2244920  31.2490860   7.9893890
   1.8879970  42.5890800   8.3112860   1.5034760  41.9484470   8.9095820
   2.1992160  43.2926920   8.8807590   8.0377110  39.4367340   3.7921480
   8.4047240  38.9625910   4.5382820   7.8482170  40.3108910   4.1329820
   5.8276480  38.4775980   6.1105690   5.5233550  39.3567960   6.3356050
   6.7822940  38.5375770   6.1463130  15.1146250  41.6802330   2.4998930
  15.8345370  42.1757620   2.1095040  14.9128070  41.0020220   1.8552800
  10.4965050  41.7511390   8.3867930  10.4302360  40.8307060   8.1325520
   9.8670190  41.8486830   9.1012570   1.8840210  39.3178720   7.2577050
   1.5255150  39.9832570   7.8450390   1.5894770  38.4862270   7.6289670
   5.0853330  39.7762960  10.1416600   4.7853470  39.9220140   9.2444420
   5.8564570  39.2168250  10.0489990  10.4281780  44.5731960   8.1371730
  10.4426320  43.6412920   7.9190640   9.7206880  44.6591720   8.7761500
  16.6392990  41.2139300   7.4840310  15.9141180  41.8068080   7.2869700
  17.1668450  41.2062840   6.6853680   9.8615680  46.2149530   5.2312230
  10.5057900  46.4208910   5.9085650  10.2245120  45.4537930   4.7783080
  11.1347760  44.2181880   3.9489680  11.7769990  43.5175040   4.0621850
  11.6597110  44.9980320   3.7686570  12.9085380  45.0176780   7.1525740
  13.2441620  45.6043470   7.8303660  11.9885720  44.8869490   7.3823530
   8.7373960  45.0668110  10.3213800   8.4170830  44.3477350  10.8659490
   8.0632320  45.7423180  10.3949860  11.9527560  35.2994270   5.6850600
  12.3208380  34.4789480   6.0130170  11.0925760  35.3596160   6.1006250
   8.9129550  37.9533860   5.9088570   9.4114800  38.4279680   6.5740420
   9.0552500  37.0297380   6.1158600  16.1196410  34.1701820   6.7516960
  15.6170010  34.9107220   7.0910770  16.9353070  34.5585820   6.4353750
   2.8919810  47.8621130  10.7335290   3.6932540  48.1833180  11.1470690
   2.3771630  47.5016710  11.4555200  11.7284440  43.9701000  10.6810700
  11.1222600  43.9932600   9.9406450  11.4238550  43.2384040  11.2177950
  13.1584810  47.6981290   9.2920110  14.1106560  47.6139310   9.2420350
  13.0113030  48.3623000   9.9653900   7.6655560  41.7565580   9.2106860
   6.9001230  42.3250580   9.1261530   7.8471520  41.4641790   8.3175090
  14.8078910  43.4870910   9.7681880  15.5488380  43.8246670   9.2649340
  14.0451590  43.6562970   9.2151650   2.6440700  38.4924180  10.5721410
   2.6846040  38.1938050  11.4806640   3.4986200  38.8931790  10.4128930
   4.5846510  37.0716280   8.5395900   4.0542970  36.5807230   7.9119240
   5.2534580  37.5000480   8.0053830  13.4824570  41.5385740   8.3037090
  13.8965590  41.6930820   9.1527510  12.5475570  41.6640960   8.4662870
  13.9546740  38.8781900  10.3076240  14.5367510  38.1234220  10.2196720
  14.1308510  39.4089340   9.5307720   5.0718810  34.0378650   8.6193190
   4.9775680  33.4199400   7.8944060   4.4916200  34.7644940   8.3923100
   7.8380250  32.5951890   5.6520580   7.3897550  32.6176150   4.8066130
   7.2045450  32.1970910   6.2490880   8.2439800  41.4906220   6.2733020
   8.6627910  42.3338950   6.1009260   7.3248430  41.6278260   6.0439800
  10.5803700  39.2222400   7.6570860  10.6999910  38.6263540   8.3965700
  11.4397700  39.2592090   7.2372160  12.9191600  39.7759590   6.2333370
  12.3926820  40.3002210   5.6298510  13.2622940  40.4086980   6.8643100
   6.0947220  47.7959230   7.3890750   5.5568310  48.5205290   7.0699450
   6.3481180  47.3189570   6.5988090   7.3472470  35.7643750   8.9146680
   7.9372160  35.4559600   9.6024500   6.5292710  35.2923500   9.0706580
  12.1665900  35.3809560   9.1479700  11.4781420  34.7191100   9.0829690
  12.8871920  34.9347830   9.5928160   8.9509430  49.0310440   7.6477400
   8.8768130  49.9345580   7.9549770   8.0488270  48.7122340   7.6199470
  16.4789110  46.7272620   7.9769960  15.8791100  46.7865180   7.2333880
  16.6083010  45.7877600   8.1066810  15.1640750  43.4524600   6.0746120
  14.3500590  43.8821760   6.3371910  15.5714950  44.0643010   5.4615170
  16.5131150  38.5912800   7.6015340  16.2817240  38.3625550   6.7013290
  16.7735700  39.5112350   7.5560230  14.9519220  33.8169230  10.3795040
  15.8289400  33.8252630  10.7629040  14.9640060  33.0800070   9.7687390
  16.5772210  37.7538640   4.7902610  15.6274920  37.7202180   4.9047600
  16.7585220  38.6638750   4.5552380   1.7683000  31.3085840   2.8426510
   2.4159190  30.7583220   2.4021670   2.1884840  31.5628990   3.6642320
  15.6635340  31.5027200   6.1996150  16.3007560  32.1161340   6.5655340
  15.8110230  31.5387860   5.2545380   3.1279370  44.6361110   9.7505020
   3.0849000  44.2654020  10.6319480   3.2590380  45.5738680   9.8906840
   6.8285400  46.1920700   5.3514740   6.5876760  46.4595260   4.4645260
   7.7688040  46.3626430   5.4065600   9.0339820  32.6553390   9.1071250
   8.9728710  33.2475220   9.8566660   9.9740200  32.5479350   8.9621510
  11.6714380  32.3123450   8.7463540  12.2854790  32.6302740   8.0844620
  12.2163940  31.8272040   9.3659400  18.0889560  48.2115080   6.1525380
  17.5947840  48.6083950   5.4352510  17.4802850  47.5864290   6.5462660
   2.1935640  30.9917710   8.8602600   2.7418630  30.8105760   8.0968710
   2.2590950  30.2011820   9.3958910   2.9667400  47.5823360   6.8702800
   2.3727720  47.4508060   7.6092840   2.9591240  46.7461500   6.4044900
  12.4122420  30.8755590   5.0732830  11.5382260  31.2090700   4.8705760
  12.3033170  30.4028770   5.8984700  13.3194400  33.0826460   6.4574550
  12.9907760  32.2678220   6.0776280  14.2676700  33.0396270   6.3340240
  15.7729010  48.8538500   3.4312120  15.3131980  49.6054310   3.0570140
  15.1441470  48.1344970   3.3726920   2.5979630  44.9481740   5.8210840
   1.8713690  44.3287030   5.7536790   2.6588780  45.3422350   4.9508920
   6.2024730  47.1626740   2.6060250   6.7189750  46.5514100   2.0808510
   6.8522110  47.6655520   3.0971260   8.9420230  48.0535230   3.4329230
   9.2298040  47.7989530   2.5562240   9.4543450  47.5012590   4.0234800
  10.1597240  31.7925430   4.0125740   9.3769030  32.2670930   4.2922500
   9.8660170  30.8880260   3.9038920   9.0092590  48.9751330  10.7997430
   9.9359900  48.7395600  10.8433390   8.9943020  49.8023330  10.3183460
   6.1956200  31.6396080  10.5639310   5.9140470  32.1429680   9.8000130
   6.5775900  30.8417830  10.1981440  12.7971660  31.0549660  11.1419780
  12.6837110  31.3744270  12.0371300  13.6141400  31.4562170  10.8457060
  15.5770150  48.2021190  10.6238470  16.3695470  47.7070420  10.4164430
  15.8703300  48.8811330  11.2314080  11.7029810  20.2998640  56.6028480
  11.6223860  19.3853250  56.3320190  11.2894230  20.7965710  55.8968190
  13.8555280  26.4837850  57.2636880  13.3936810  25.7125090  57.5924050
  14.6680830  26.5103920  57.7689330  10.0818590  28.7695860  56.8840870
   9.4630030  29.2253360  56.3135310  10.9370370  28.9247320  56.4830570
   4.4367020  15.9330860  54.1794280   4.5433770  16.8334590  54.4863040
   3.5259380  15.8848830  53.8888930  14.0886130  15.0555670  55.6505180
  14.9095750  14.5652240  55.6930660  14.1220210  15.6453330  56.4037020
  10.9481940  23.6535100  54.2772780  10.3299210  24.1184550  53.7135500
  11.4605190  24.3462580  54.6942290   7.9254070  12.7408020  57.1097920
   8.2329050  12.1854910  56.3933420   6.9954770  12.8752480  56.9270910
  14.7714550  25.1791530  54.4895550  14.6610880  24.2365860  54.6144970
  14.7682800  25.5407170  55.3758310  10.3134830  20.8056850  53.8458040
   9.3864110  20.7394230  54.0746510  10.4659650  21.7436980  53.7313280
  10.3003910  17.0773850  50.8425200   9.3607580  17.2387810  50.9277660
  10.6187170  17.7959530  50.2961190  14.3432120  22.3677150  54.3493290
  13.7244540  22.0296700  53.7019590  14.3256570  21.7236910  55.0572480
   5.9191470  21.3321590  56.6277770   5.5148470  20.6198840  56.1323670
   6.0054590  20.9874830  57.5165810  12.5196820  21.6063960  51.3566040
  12.9590100  20.7686390  51.2103860  13.2325240  22.2393360  51.4430180
  10.6292200  26.5460030  55.3247280  11.0688110  27.2884360  54.9102670
  10.5679090  26.7886600  56.2486240  16.1013960  12.8606770  49.6707080
  15.7886620  12.9533600  50.5706150  16.8626430  13.4387800  49.6204510
   2.6196100  20.2266570  54.1284420   2.4993700  20.9528660  53.5165690
   2.3096990  19.4569480  53.6512330  13.2962380  29.5329150  52.6810290
  13.1363520  29.2432090  53.5792120  13.1309090  28.7569280  52.1455520
   5.7750760  29.3127680  54.4581910   5.5993240  28.3963220  54.2449710
   4.9206500  29.6714970  54.6979710  12.9988510  27.0416710  51.2408290
  12.3053670  27.0394000  50.5810570  13.7411370  26.6176030  50.8102460
  12.5638440  28.6679420  55.3156780  13.0195390  27.8868800  55.6295400
  12.9030960  29.3786240  55.8597960   5.0859760  13.5701640  57.5108090
   4.6427910  14.3511180  57.1792610   5.6444750  13.8931530  58.2179030
   8.2018580  13.1912340  52.3913920   7.5772760  13.1872210  53.1167230
   8.1148700  12.3243300  51.9949890   4.8773980  18.6935210  55.2389340
   4.6514900  18.4772380  56.1435960   4.0966510  19.1263670  54.8935310
  12.1071740  18.6998580  53.8379990  11.5080630  19.4234380  53.6543610
  12.6551350  18.6375360  53.0556440  10.7136610  17.3362120  55.8683270
  11.1066180  17.6534320  55.0551960  11.0753460  16.4574000  55.9827790
   7.7369140  16.6022070  58.3686540   7.7405200  16.1612020  57.5191080
   8.6320260  16.9239400  58.4758360   3.5871520  16.4848560  57.3280750
   3.2471570  16.9623790  58.0847800   2.8248840  16.0313680  56.9681850
   7.7989290  17.6034150  51.3593300   7.9202110  17.5620630  52.3079120
   7.4137800  18.4658300  51.2040030   6.8110790  19.9135290  50.7576600
   6.2427690  19.4653540  50.1312510   7.5199790  20.2728070  50.2241750
   4.3558270  23.9093480  53.0303010   3.5820530  23.3691100  52.8701730
   5.0852900  23.3900090  52.6920770  10.5756190  14.2996800  52.9658790
   9.7620800  13.8009970  52.8904100  10.3818140  15.1395050  52.5495140
  13.2904580  18.6716450  51.2620950  14.1784200  18.9833680  51.0872290
  13.2609670  17.7988700  50.8701530   4.3995670  23.5773860  56.6681820
   4.9174340  22.7742120  56.6138710   3.9479690  23.5153000  57.5098650
   9.2865170  24.8440140  51.9409120   9.6280870  25.5882370  51.4452440
   8.4577880  25.1571260  52.3033950  15.5618850  19.9828290  50.7300810
  15.4782570  20.4142510  49.8797250  16.2813040  20.4426640  51.1627630
  16.5906100  26.8370550  53.4582940  15.9482260  26.1826170  53.7326660
  16.2036760  27.2425640  52.6823610  12.1692580  24.1655980  57.3054630
  12.5216400  23.5684110  56.6456000  11.2854910  23.8400210  57.4762880
   8.2555860  24.9253670  54.7125040   8.9426990  25.4722880  55.0932630
   7.4688280  25.4694400  54.7474650   7.5583070  21.9299700  54.3250400
   8.0145850  22.7404950  54.5510590   7.2071280  21.6122840  55.1568890
   3.4594850  12.2737350  54.7972920   3.3309480  12.2655250  55.7457840
   2.6356870  12.6120440  54.4463930  14.9803480  25.7287010  49.9959290
  14.7541060  25.0117450  50.5883930  14.5899680  25.4799450  49.1581040
  14.5619730  23.6458950  51.6573450  14.2741430  24.1071640  52.4451330
  15.3571900  23.1856720  51.9257670   6.7788130  27.1385070  51.5877420
   6.7698230  27.8714760  50.9721930   5.8586490  26.8916650  51.6804380
   2.3794770  22.3599960  52.3324180   1.7722720  23.0998860  52.3419480
   2.8544120  22.4499320  51.5062380  15.3189590  15.4807720  52.8168630
  14.6902750  15.5853390  52.1026860  14.8241510  15.7004500  53.6062510
   9.7647730  27.2013310  50.2502610   9.8659710  26.9977300  49.3204590
   8.8649470  26.9471590  50.4550390   7.2873620  17.7593670  54.2326510
   6.5789770  18.2280010  54.6740120   7.5718100  17.1015680  54.8671700
  11.3189050  14.4844330  55.6722300  11.1956830  14.5030460  54.7231810
  12.2673610  14.5323270  55.7920700   8.4065840  29.7199630  54.9450280
   8.6607340  29.6821020  54.0229650   7.4578320  29.5932960  54.9378530
   5.4908640  16.0678750  51.6077220   6.3399170  16.5048900  51.5417410
   5.1239910  16.3799010  52.4349280  14.4118420  20.6391510  56.5208790
  13.4708560  20.6541740  56.6956480  14.7262490  19.8527470  56.9669090
   4.3900060  22.3211110  50.0812750   5.1563330  22.2092470  50.6438180
   4.4674750  21.6249080  49.4289520   3.0846820  19.7536180  50.7645640
   3.1650410  18.8063690  50.8763040   3.9766570  20.0843060  50.8706300
   3.8861530  29.9031570  57.8680180   4.6224010  29.3547030  58.1388750
   4.2702450  30.7687580  57.7286170   6.9963840  29.0761880  49.6905750
   7.7892450  29.3650710  49.2387540   6.4768190  28.6454050  49.0118230
  16.0494010  28.3032010  51.1142490  15.7635520  27.8897150  50.2996670
  15.8513560  29.2319720  50.9943010   7.5141240  24.2965290  49.5548100
   7.4091880  23.6817640  50.2809480   7.3465460  23.7731180  48.7711110
  10.7543970  23.3585320  50.1590090  10.2054070  23.8054620  50.8032830
  11.3763230  22.8534570  50.6827760   6.4219090  22.3176240  52.0555390
   6.8435510  22.1516110  52.8986780   6.5469930  21.5076470  51.5610530
   8.9346730  21.3413850  49.3032490   9.4552390  20.6262870  48.9373640
   9.5815130  21.9799720  49.6033000   5.3177990  18.3909470  49.0013550
   5.1167050  17.5276830  49.3626890   5.1470040  18.3042830  48.0635150
  12.7966300  13.2017700  51.5300430  13.0768590  12.3585600  51.8859850
  12.0232030  13.4340810  52.0439180   4.1160790  15.4910090  48.9891430
   4.4186690  15.4977520  48.0810580   4.8555380  15.1407950  49.4859090
   7.3345720  14.4344710  49.9747630   6.9867720  13.7568700  49.3950080
   7.5358490  13.9734220  50.7891020   9.4994760  29.4225460  51.5934230
  10.3945550  29.7610430  51.6152990   9.5312390  28.7004870  50.9658510
   3.1390920  24.7952510  49.8221230   3.5765790  25.3382180  50.4778810
   3.6238650  23.9699460  49.8317570   4.9498640  25.9150550  54.9343460
   4.6494180  25.7915520  55.8347370   4.8436130  25.0559140  54.5259190
  17.7190560  25.6946950  49.6370140  16.8883520  25.7623600  50.1077370
  17.8962390  26.5851070  49.3337000  17.1747020  22.4394430  52.1404340
  17.9365930  23.0091080  52.2464030  17.1901390  21.8721630  52.9112650
  18.1806990  23.2944530  56.9846270  18.5515820  22.5111850  56.5782240
  18.8208920  23.9833630  56.8063570  17.2266190  22.7328800  49.2976860
  17.5015030  23.6407680  49.1696080  17.0376930  22.6691330  50.2338850
  13.6241800  15.7573650  50.5930490  14.0426680  15.5704630  49.7527150
  13.3177860  14.9052700  50.9033420  17.1231530  20.6697790  54.2906290
  16.7475130  19.9025720  53.8587580  16.3934650  21.0520490  54.7781220
  16.3982490  18.8955280  57.5913530  16.9219970  18.4017930  56.9603700
  16.9841910  19.0305640  58.3361100   2.4316650  17.2296830  50.2231710
   3.1408350  16.8080050  49.7378990   1.7156590  17.2972060  49.5915060
   2.0790810  13.2836160  49.2634360   2.8018940  13.8245100  49.5815580
   2.3515330  13.0099580  48.3875900  15.8882460  18.1528630  53.5305940
  16.3841580  17.9199500  54.3154820  15.6898530  17.3140470  53.1143580
  17.3169620  16.7889580  56.0643620  17.2068900  16.6345620  57.0025890
  18.0777210  16.2610520  55.8219030  18.2059890  14.6197500  49.3049760
  19.1309200  14.4878680  49.0968050  18.1835680  14.6990320  50.2586210
  18.2798380  15.3908160  51.9306470  17.4849880  15.3253280  52.4599380
  18.4841660  16.3258800  51.9191820  15.2216800  29.4299710  55.9244860
  15.8175870  29.1084280  55.2479280  15.4794950  28.9571530  56.7158130
  14.7118310  13.7205040  58.3805300  15.1526400  13.6650140  57.5326900
  14.4425900  14.6363050  58.4515480  16.5756880  13.3520280  56.3914120
  16.5145280  12.4081500  56.2445140  17.3548910  13.4600370  56.9367580
   8.0451460  15.4368690  55.8472240   7.2325970  15.0625580  55.5068120
   8.5493100  14.6813770  56.1493430  12.5476440  12.1011140  57.0855310
  13.1505810  12.6731350  57.5603830  11.8069430  12.6650580  56.8629210
  15.6911040  12.5032700  52.3595590  15.8861670  13.4016150  52.6263020
  14.9040910  12.2719780  52.8528540   2.4872330  28.1845870  52.7988210
   1.9619950  28.5653900  52.0950170   2.4116910  28.8096640  53.5197920
   3.8762800  13.8493470  51.3971900   4.4055560  13.0623270  51.2679850
   4.5091120  14.5284660  51.6307430   6.0700640  13.5868610  54.4517290
   5.4403380  12.8855920  54.6187420   5.5305780  14.3472740  54.2350450
  17.2437650  29.7433410  54.1202150  17.4189840  29.0571150  53.4763070
  16.5459220  30.2680460  53.7278820   5.0865300  30.1328250  51.6737460
   5.8184120  29.8487530  51.1261350   5.3458970  29.8941530  52.5636840
   4.2480090  26.2492980  51.6783790   3.6188970  26.7178080  52.2269620
   4.3627920  25.4042200  52.1129980  11.7029810  20.2998640  37.8284990
  11.6223860  19.3853250  37.5576700  11.2894230  20.7965710  37.1224700
   9.8347850  22.0777660  39.7094260   9.0589950  21.5978100  39.9992830
  10.4860780  21.3983310  39.5350420   3.8513680  22.3897470  40.5870020
   3.0198560  22.1346180  40.9866530   4.4594660  22.4608240  41.3227940
  13.8555280  26.4837850  38.4893390  13.3936810  25.7125090  38.8180560
  14.6680830  26.5103920  38.9945840   3.8314940  26.4237560  40.7828040
   4.1342980  25.5335300  40.6038260   4.5758530  26.9807780  40.5550290
  10.0818590  28.7695860  38.1097380   9.4630030  29.2253360  37.5391820
  10.9370370  28.9247320  37.7087080   9.2756840  24.7534850  39.7164420
   9.2065120  23.8124790  39.5553550  10.0376700  24.8436260  40.2886990
  10.3062010  17.5605230  39.9433350  10.6826830  16.6877110  39.8307020
  10.2081520  17.8963930  39.0523790   4.4367020  15.9330860  35.4050790
   4.5433770  16.8334590  35.7119550   3.5259380  15.8848830  35.1145440
  14.0886130  15.0555670  36.8761690  14.9095750  14.5652240  36.9187170
  14.1220210  15.6453330  37.6293530   2.0850180  17.8549870  40.6503380
   2.7660290  18.1188240  41.2690780   1.7698230  17.0150740  40.9841390
   6.2774750  18.9017230  39.7375970   6.7852970  19.3998200  40.3780990
   6.8087990  18.1252430  39.5615330  18.3785680  17.0722420  43.4405320
  17.6737850  17.4604130  42.9220430  18.6443600  17.7672710  44.0426250
   4.5610850  13.5415790  44.0039390   4.5629290  14.0588180  43.1985290
   3.7315160  13.0645970  43.9809320  10.9481940  23.6535100  35.5029290
  10.3299210  24.1184550  34.9392010  11.4605190  24.3462580  35.9198800
   5.8113700  23.1810970  42.1812890   5.4783080  23.8079890  42.8233960
   5.9880380  23.7072850  41.4014560  14.3247610  16.9956050  39.6489230
  13.6203180  17.2840940  40.2292340  14.6859770  17.8056160  39.2888790
   4.2426180  15.2525750  42.0109840   4.5842990  16.0967800  41.7163710
   3.3041990  15.4009490  42.1275180   5.0232800  25.1491770  43.9962070
   5.6406800  25.8242850  43.7146520   4.1625920  25.5579750  43.9049570
  15.9410390  26.6131180  41.9116710  15.2573910  27.2830290  41.9033380
  16.4804680  26.8111830  41.1461570  17.3934530  16.4410840  40.0398440
  16.4459440  16.4749820  40.1713870  17.7184520  17.2549790  40.4247800
   7.9254070  12.7408020  38.3354430   8.2329050  12.1854910  37.6189930
   6.9954770  12.8752480  38.1527420  13.4769130  28.4575310  40.6261890
  13.4896290  28.0537600  39.7584150  12.9244350  29.2322600  40.5223320
  14.7714550  25.1791530  35.7152060  14.6610880  24.2365860  35.8401480
  14.7682800  25.5407170  36.6014820  12.8754570  23.3605150  41.9544500
  13.2923360  23.1465260  41.1197960  13.5994390  23.6177940  42.5253120
  10.3134830  20.8056850  35.0714550   9.3864110  20.7394230  35.3003020
  10.4659650  21.7436980  34.9569790  10.3003910  17.0773850  32.0681710
   9.3607580  17.2387810  32.1534170  10.6187170  17.7959530  31.5217700
  16.8216670  21.7592370  42.0460740  15.9935300  21.8285460  41.5710870
  17.4167150  22.3446680  41.5776570  14.3432120  22.3677150  35.5749800
  13.7244540  22.0296700  34.9276100  14.3256570  21.7236910  36.2828990
  13.7858680  18.5461690  42.9915610  13.3729860  19.3715400  43.2455600
  13.0534630  17.9606730  42.7991970   5.9191470  21.3321590  37.8534280
   5.5148470  20.6198840  37.3580180   6.0054590  20.9874830  38.7422320
   6.3873170  25.0189150  40.0173490   6.0901460  24.4134620  39.3381270
   7.3372990  25.0566460  39.9062850   4.6320090  18.1064800  41.6333320
   5.1834680  18.2160140  40.8586570   5.1463600  18.4802400  42.3488550
  14.4758780  28.5921020  43.6796590  13.9989340  29.3993210  43.4869200
  13.7920570  27.9399350  43.8322800   5.4791600  24.7570840  46.6681290
   4.5820130  24.9810810  46.9154690   5.5044470  24.8805780  45.7192690
  12.5196820  21.6063960  32.5822550  12.9590100  20.7686390  32.4360370
  13.2325240  22.2393360  32.6686690   4.3062820  21.6284160  45.2438660
   4.1670590  22.5006960  45.6126060   3.4244180  21.2856970  45.0986600
  10.6292200  26.5460030  36.5503790  11.0688110  27.2884360  36.1359180
  10.5679090  26.7886600  37.4742750   6.1043170  27.5705860  47.4523810
   6.0758600  27.9748810  46.5852240   5.9408140  26.6416220  47.2895410
  16.1013960  12.8606770  30.8963590  15.7886620  12.9533600  31.7962660
  16.8626430  13.4387800  30.8461020   2.6196100  20.2266570  35.3540930
   2.4993700  20.9528660  34.7422200   2.3096990  19.4569480  34.8768840
  18.0557990  28.3532960  48.7487980  18.5317710  28.8315850  49.4277060
  18.6765150  28.2850450  48.0233480  17.4591240  25.5445810  45.9087990
  17.5854300  25.3057690  44.9905170  17.5012620  24.7130350  46.3810070
  11.3207980  29.2473810  44.4782800  11.8352650  29.1581820  45.2805230
  10.4777060  29.5933510  44.7710710  13.2962380  29.5329150  33.9066800
  13.1363520  29.2432090  34.8048630  13.1309090  28.7569280  33.3712030
   5.7750760  29.3127680  35.6838420   5.5993240  28.3963220  35.4706220
   4.9206500  29.6714970  35.9236220  12.9988510  27.0416710  32.4664800
  12.3053670  27.0394000  31.8067080  13.7411370  26.6176030  32.0358970
  12.5638440  28.6679420  36.5413290  13.0195390  27.8868800  36.8551910
  12.9030960  29.3786240  37.0854470  17.3115250  17.5978270  46.8737730
  16.6959520  18.1057940  46.3453190  16.9911670  16.6976600  46.8163670
   5.0859760  13.5701640  38.7364600   4.6427910  14.3511180  38.4049120
   5.6444750  13.8931530  39.4435540   9.3729570  16.4370160  44.3399920
   8.9108940  16.6453180  45.1519860   8.9707680  15.6229510  44.0370590
  14.3734080  17.6579110  45.4696580  13.5227670  17.3584860  45.7905650
  14.2135870  17.9021120  44.5580400  11.4683790  19.1580860  47.5695370
  11.7937200  18.3244610  47.2297600  12.2564120  19.6809380  47.7173700
   8.2018580  13.1912340  33.6170430   7.5772760  13.1872210  34.3423740
   8.1148700  12.3243300  33.2206400   7.1235660  14.1148970  40.5954200
   7.4207990  15.0211800  40.5146220   7.6721220  13.6267750  39.9813770
   4.8773980  18.6935210  36.4645850   4.6514900  18.4772380  37.3692470
   4.0966510  19.1263670  36.1191820  12.1071740  18.6998580  35.0636500
  11.5080630  19.4234380  34.8800120  12.6551350  18.6375360  34.2812950
   7.3173190  19.5920790  47.1306120   7.2216790  18.6515520  46.9806520
   8.1605170  19.8135860  46.7354190  10.7136610  17.3362120  37.0939780
  11.1066180  17.6534320  36.2808470  11.0753460  16.4574000  37.2084300
   2.4483730  16.0034460  45.2839900   2.0547120  16.8509670  45.4912680
   1.7602130  15.3660830  45.4748540   9.0228780  16.0869430  48.3536640
   8.3327100  15.8941630  48.9882730   9.7661080  16.3704070  48.8860940
  11.2991750  19.9267870  41.1890560  10.5672870  20.4354680  41.5380660
  10.9016090  19.1097850  40.8879340   7.7369140  16.6022070  39.5943050
   7.7405200  16.1612020  38.7447590   8.6320260  16.9239400  39.7014870
   3.5871520  16.4848560  38.5537260   3.2471570  16.9623790  39.3104310
   2.8248840  16.0313680  38.1938360   7.7989290  17.6034150  32.5849810
   7.9202110  17.5620630  33.5335630   7.4137800  18.4658300  32.4296540
  11.7617660  15.3801550  40.6013500  11.7790400  15.8310200  41.4455350
  11.5133240  14.4807190  40.8146940   6.8110790  19.9135290  31.9833110
   6.2427690  19.4653540  31.3569020   7.5199790  20.2728070  31.4498260
  15.1888410  12.7933730  46.4399880  15.5134180  12.0623390  46.9657860
  15.2244920  12.4747370  45.5380870   1.8879970  23.8147310  45.8599840
   1.5034760  23.1740980  46.4582800   2.1992160  24.5183430  46.4294570
   8.0377110  20.6623850  41.3408460   8.4047240  20.1882420  42.0869800
   7.8482170  21.5365420  41.6816800   5.8276480  19.7032490  43.6592670
   5.5233550  20.5824470  43.8843030   6.7822940  19.7632280  43.6950110
   4.3558270  23.9093480  34.2559520   3.5820530  23.3691100  34.0958240
   5.0852900  23.3900090  33.9177280  15.1146250  22.9058840  40.0485910
  15.8345370  23.4014130  39.6582020  14.9128070  22.2276730  39.4039780
  10.5756190  14.2996800  34.1915300   9.7620800  13.8009970  34.1160610
  10.3818140  15.1395050  33.7751650  10.4965050  22.9767900  45.9354910
  10.4302360  22.0563570  45.6812500   9.8670190  23.0743340  46.6499550
  13.2904580  18.6716450  32.4877460  14.1784200  18.9833680  32.3128800
  13.2609670  17.7988700  32.0958040   4.3995670  23.5773860  37.8938330
   4.9174340  22.7742120  37.8395220   3.9479690  23.5153000  38.7355160
   9.2865170  24.8440140  33.1665630   9.6280870  25.5882370  32.6708950
   8.4577880  25.1571260  33.5290460   1.8840210  20.5435230  44.8064030
   1.5255150  21.2089080  45.3937370   1.5894770  19.7118780  45.1776650
   5.0853330  21.0019470  47.6903580   4.7853470  21.1476650  46.7931400
   5.8564570  20.4424760  47.5976970  10.4281780  25.7988470  45.6858710
  10.4426320  24.8669430  45.4677620   9.7206880  25.8848230  46.3248480
  15.5618850  19.9828290  31.9557320  15.4782570  20.4142510  31.1053760
  16.2813040  20.4426640  32.3884140  16.6392990  22.4395810  45.0327290
  15.9141180  23.0324590  44.8356680  17.1668450  22.4319350  44.2340660
  16.5906100  26.8370550  34.6839450  15.9482260  26.1826170  34.9583170
  16.2036760  27.2425640  33.9080120  12.1692580  24.1655980  38.5311140
  12.5216400  23.5684110  37.8712510  11.2854910  23.8400210  38.7019390
   8.2555860  24.9253670  35.9381550   8.9426990  25.4722880  36.3189140
   7.4688280  25.4694400  35.9731160   7.5583070  21.9299700  35.5506910
   8.0145850  22.7404950  35.7767100   7.2071280  21.6122840  36.3825400
   9.8615680  27.4406040  42.7799210  10.5057900  27.6465420  43.4572630
  10.2245120  26.6794440  42.3270060   3.4594850  12.2737350  36.0229430
   3.3309480  12.2655250  36.9714350   2.6356870  12.6120440  35.6720440
  11.1347760  25.4438390  41.4976660  11.7769990  24.7431550  41.6108830
  11.6597110  26.2236830  41.3173550  14.9803480  25.7287010  31.2215800
  14.7541060  25.0117450  31.8140440  14.5899680  25.4799450  30.3837550
  12.9085380  26.2433290  44.7012720  13.2441620  26.8299980  45.3790640
  11.9885720  26.1126000  44.9310510  14.5619730  23.6458950  32.8829960
  14.2741430  24.1071640  33.6707840  15.3571900  23.1856720  33.1514180
   8.7373960  26.2924620  47.8700780   8.4170830  25.5733860  48.4146470
   8.0632320  26.9679690  47.9436840   6.7788130  27.1385070  32.8133930
   6.7698230  27.8714760  32.1978440   5.8586490  26.8916650  32.9060890
   2.3794770  22.3599960  33.5580690   1.7722720  23.0998860  33.5675990
   2.8544120  22.4499320  32.7318890  11.9527560  16.5250780  43.2337580
  12.3208380  15.7045990  43.5617150  11.0925760  16.5852670  43.6493230
  15.3189590  15.4807720  34.0425140  14.6902750  15.5853390  33.3283370
  14.8241510  15.7004500  34.8319020   9.7647730  27.2013310  31.4759120
   9.8659710  26.9977300  30.5461100   8.8649470  26.9471590  31.6806900
   7.2873620  17.7593670  35.4583020   6.5789770  18.2280010  35.8996630
   7.5718100  17.1015680  36.0928210   8.9129550  19.1790370  43.4575550
   9.4114800  19.6536190  44.1227400   9.0552500  18.2553890  43.6645580
  11.3189050  14.4844330  36.8978810  11.1956830  14.5030460  35.9488320
  12.2673610  14.5323270  37.0177210   8.4065840  29.7199630  36.1706790
   8.6607340  29.6821020  35.2486160   7.4578320  29.5932960  36.1635040
   5.4908640  16.0678750  32.8333730   6.3399170  16.5048900  32.7673920
   5.1239910  16.3799010  33.6605790  16.1196410  15.3958330  44.3003940
  15.6170010  16.1363730  44.6397750  16.9353070  15.7842330  43.9840730
  14.4118420  20.6391510  37.7465300  13.4708560  20.6541740  37.9212990
  14.7262490  19.8527470  38.1925600   4.3900060  22.3211110  31.3069260
   5.1563330  22.2092470  31.8694690   4.4674750  21.6249080  30.6546030
   3.0846820  19.7536180  31.9902150   3.1650410  18.8063690  32.1019550
   3.9766570  20.0843060  32.0962810  16.4144000  27.8100360  39.4219560
  16.5391420  28.6331530  39.8943370  17.2809560  27.5991090  39.0743710
   3.8861530  29.9031570  39.0936690   4.6224010  29.3547030  39.3645260
   4.2702450  30.7687580  38.9542680   2.8919810  29.0877640  48.2822270
   3.6932540  29.4089690  48.6957670   2.3771630  28.7273220  49.0042180
   6.9963840  29.0761880  30.9162260   7.7892450  29.3650710  30.4644050
   6.4768190  28.6454050  30.2374740  11.7284440  25.1957510  48.2297680
  11.1222600  25.2189110  47.4893430  11.4238550  24.4640550  48.7664930
  13.1584810  28.9237800  46.8407090  14.1106560  28.8395820  46.7907330
  13.0113030  29.5879510  47.5140880  16.0494010  28.3032010  32.3399000
  15.7635520  27.8897150  31.5253180  15.8513560  29.2319720  32.2199520
   7.5141240  24.2965290  30.7804610   7.4091880  23.6817640  31.5065990
   7.3465460  23.7731180  29.9967620   7.6655560  22.9822090  46.7593840
   6.9001230  23.5507090  46.6748510   7.8471520  22.6898300  45.8662070
  10.7543970  23.3585320  31.3846600  10.2054070  23.8054620  32.0289340
  11.3763230  22.8534570  31.9084270  14.8078910  24.7127420  47.3168860
  15.5488380  25.0503180  46.8136320  14.0451590  24.8819480  46.7638630
   2.6440700  19.7180690  48.1208390   2.6846040  19.4194560  49.0293620
   3.4986200  20.1188300  47.9615910   6.4219090  22.3176240  33.2811900
   6.8435510  22.1516110  34.1243290   6.5469930  21.5076470  32.7867040
   4.5846510  18.2972790  46.0882880   4.0542970  17.8063740  45.4606220
   5.2534580  18.7256990  45.5540810   8.9346730  21.3413850  30.5289000
   9.4552390  20.6262870  30.1630150   9.5815130  21.9799720  30.8289510
  13.4824570  22.7642250  45.8524070  13.8965590  22.9187330  46.7014490
  12.5475570  22.8897470  46.0149850  13.9546740  20.1038410  47.8563220
  14.5367510  19.3490730  47.7683700  14.1308510  20.6345850  47.0794700
   5.0718810  15.2635160  46.1680170   4.9775680  14.6455910  45.4431040
   4.4916200  15.9901450  45.9410080   7.8380250  13.8208400  43.2007560
   7.3897550  13.8432660  42.3553110   7.2045450  13.4227420  43.7977860
   8.2439800  22.7162730  43.8220000   8.6627910  23.5595460  43.6496240
   7.3248430  22.8534770  43.5926780  10.5803700  20.4478910  45.2057840
  10.6999910  19.8520050  45.9452680  11.4397700  20.4848600  44.7859140
  12.9191600  21.0016100  43.7820350  12.3926820  21.5258720  43.1785490
  13.2622940  21.6343490  44.4130080   5.3177990  18.3909470  30.2270060
   5.1167050  17.5276830  30.5883400   5.1470040  18.3042830  29.2891660
   6.0947220  29.0215740  44.9377730   5.5568310  29.7461800  44.6186430
   6.3481180  28.5446080  44.1475070   7.3472470  16.9900260  46.4633660
   7.9372160  16.6816110  47.1511480   6.5292710  16.5180010  46.6193560
  12.1665900  16.6066070  46.6966680  11.4781420  15.9447610  46.6316670
  12.8871920  16.1604340  47.1415140  12.7966300  13.2017700  32.7556940
  13.0768590  12.3585600  33.1116360  12.0232030  13.4340810  33.2695690
   4.1160790  15.4910090  30.2147940   4.4186690  15.4977520  29.3067090
   4.8555380  15.1407950  30.7115600   8.9509430  30.2566950  45.1964380
   8.8768130  31.1602090  45.5036750   8.0488270  29.9378850  45.1686450
   7.3345720  14.4344710  31.2004140   6.9867720  13.7568700  30.6206590
   7.5358490  13.9734220  32.0147530   9.4994760  29.4225460  32.8190740
  10.3945550  29.7610430  32.8409500   9.5312390  28.7004870  32.1915020
   3.1390920  24.7952510  31.0477740   3.5765790  25.3382180  31.7035320
   3.6238650  23.9699460  31.0574080   4.9498640  25.9150550  36.1599970
   4.6494180  25.7915520  37.0603880   4.8436130  25.0559140  35.7515700
  16.4789110  27.9529130  45.5256940  15.8791100  28.0121690  44.7820860
  16.6083010  27.0134110  45.6553790  17.7190560  25.6946950  30.8626650
  16.8883520  25.7623600  31.3333880  17.8962390  26.5851070  30.5593510
  17.1747020  22.4394430  33.3660850  17.9365930  23.0091080  33.4720540
  17.1901390  21.8721630  34.1369160  18.1806990  23.2944530  38.2102780
  18.5515820  22.5111850  37.8038750  18.8208920  23.9833630  38.0320080
  15.1640750  24.6781110  43.6233100  14.3500590  25.1078270  43.8858890
  15.5714950  25.2899520  43.0102150  17.2266190  22.7328800  30.5233370
  17.5015030  23.6407680  30.3952590  17.0376930  22.6691330  31.4595360
  13.6241800  15.7573650  31.8187000  14.0426680  15.5704630  30.9783660
  13.3177860  14.9052700  32.1289930  17.1231530  20.6697790  35.5162800
  16.7475130  19.9025720  35.0844090  16.3934650  21.0520490  36.0037730
  16.5131150  19.8169310  45.1502320  16.2817240  19.5882060  44.2500270
  16.7735700  20.7368860  45.1047210  14.9519220  15.0425740  47.9282020
  15.8289400  15.0509140  48.3116020  14.9640060  14.3056580  47.3174370
  16.3982490  18.8955280  38.8170040  16.9219970  18.4017930  38.1860210
  16.9841910  19.0305640  39.5617610  16.5772210  18.9795150  42.3389590
  15.6274920  18.9458690  42.4534580  16.7585220  19.8895260  42.1039360
   2.4316650  17.2296830  31.4488220   3.1408350  16.8080050  30.9635500
   1.7156590  17.2972060  30.8171570   2.0790810  13.2836160  30.4890870
   2.8018940  13.8245100  30.8072090   2.3515330  13.0099580  29.6132410
  15.8882460  18.1528630  34.7562450  16.3841580  17.9199500  35.5411330
  15.6898530  17.3140470  34.3400090   1.7683000  12.5342350  40.3913490
   2.4159190  11.9839730  39.9508650   2.1884840  12.7885500  41.2129300
  17.3169620  16.7889580  37.2900130  17.2068900  16.6345620  38.2282400
  18.0777210  16.2610520  37.0475540  15.6635340  12.7283710  43.7483130
  16.3007560  13.3417850  44.1142320  15.8110230  12.7644370  42.8032360
  18.2059890  14.6197500  30.5306270  19.1309200  14.4878680  30.3224560
  18.1835680  14.6990320  31.4842720  18.2798380  15.3908160  33.1562980
  17.4849880  15.3253280  33.6855890  18.4841660  16.3258800  33.1448330
  15.2216800  29.4299710  37.1501370  15.8175870  29.1084280  36.4735790
  15.4794950  28.9571530  37.9414640   3.1279370  25.8617620  47.2992000
   3.0849000  25.4910530  48.1806460   3.2590380  26.7995190  47.4393820
   6.8285400  27.4177210  42.9001720   6.5876760  27.6851770  42.0132240
   7.7688040  27.5882940  42.9552580   9.0339820  13.8809900  46.6558230
   8.9728710  14.4731730  47.4053640   9.9740200  13.7735860  46.5108490
  11.6714380  13.5379960  46.2950520  12.2854790  13.8559250  45.6331600
  12.2163940  13.0528550  46.9146380  18.0889560  29.4371590  43.7012360
  17.5947840  29.8340460  42.9839490  17.4802850  28.8120800  44.0949640
   2.1935640  12.2174220  46.4089580   2.7418630  12.0362270  45.6455690
   2.2590950  11.4268330  46.9445890   2.9667400  28.8079870  44.4189780
   2.3727720  28.6764570  45.1579820   2.9591240  27.9718010  43.9531880
  12.4122420  12.1012100  42.6219810  11.5382260  12.4347210  42.4192740
  12.3033170  11.6285280  43.4471680  13.3194400  14.3082970  44.0061530
  12.9907760  13.4934730  43.6263260  14.2676700  14.2652780  43.8827220
  15.7729010  30.0795010  40.9799100  15.3131980  30.8310820  40.6057120
  15.1441470  29.3601480  40.9213900   2.5979630  26.1738250  43.3697820
   1.8713690  25.5543540  43.3023770   2.6588780  26.5678860  42.4995900
   6.2024730  28.3883250  40.1547230   6.7189750  27.7770610  39.6295490
   6.8522110  28.8912030  40.6458240   8.9420230  29.2791740  40.9816210
   9.2298040  29.0246040  40.1049220   9.4543450  28.7269100  41.5721780
  10.1597240  13.0181940  41.5612720   9.3769030  13.4927440  41.8409480
   9.8660170  12.1136770  41.4525900  14.7118310  13.7205040  39.6061810
  15.1526400  13.6650140  38.7583410  14.4425900  14.6363050  39.6771990
  16.5756880  13.3520280  37.6170630  16.5145280  12.4081500  37.4701650
  17.3548910  13.4600370  38.1624090   8.0451460  15.4368690  37.0728750
   7.2325970  15.0625580  36.7324630   8.5493100  14.6813770  37.3749940
  12.5476440  12.1011140  38.3111820  13.1505810  12.6731350  38.7860340
  11.8069430  12.6650580  38.0885720  15.6911040  12.5032700  33.5852100
  15.8861670  13.4016150  33.8519530  14.9040910  12.2719780  34.0785050
   2.4872330  28.1845870  34.0244720   1.9619950  28.5653900  33.3206680
   2.4116910  28.8096640  34.7454430   3.8762800  13.8493470  32.6228410
   4.4055560  13.0623270  32.4936360   4.5091120  14.5284660  32.8563940
   6.0700640  13.5868610  35.6773800   5.4403380  12.8855920  35.8443930
   5.5305780  14.3472740  35.4606960   9.0092590  30.2007840  48.3484410
   9.9359900  29.9652110  48.3920370   8.9943020  31.0279840  47.8670440
   6.1956200  12.8652590  48.1126290   5.9140470  13.3686190  47.3487110
   6.5775900  12.0674340  47.7468420   5.0865300  30.1328250  32.8993970
   5.8184120  29.8487530  32.3517860   5.3458970  29.8941530  33.7893350
   4.2480090  26.2492980  32.9040300   3.6188970  26.7178080  33.4526130
   4.3627920  25.4042200  33.3386490  12.7971660  12.2806170  48.6906760
  12.6837110  12.6000780  49.5858280  13.6141400  12.6818680  48.3944040
  15.5770150  29.4277700  48.1725450  16.3695470  28.9326930  47.9651410
  15.8703300  30.1067840  48.7801060  11.7029810  20.2998640  19.0541500
  11.6223860  19.3853250  18.7833210  11.2894230  20.7965710  18.3481210
   9.8347850  22.0777660  20.9350770   9.0589950  21.5978100  21.2249340
  10.4860780  21.3983310  20.7606930   3.8513680  22.3897470  21.8126530
   3.0198560  22.1346180  22.2123040   4.4594660  22.4608240  22.5484450
  13.8555280  26.4837850  19.7149900  13.3936810  25.7125090  20.0437070
  14.6680830  26.5103920  20.2202350   3.8314940  26.4237560  22.0084550
   4.1342980  25.5335300  21.8294770   4.5758530  26.9807780  21.7806800
  10.0818590  28.7695860  19.3353890   9.4630030  29.2253360  18.7648330
  10.9370370  28.9247320  18.9343590   9.2756840  24.7534850  20.9420930
   9.2065120  23.8124790  20.7810060  10.0376700  24.8436260  21.5143500
  10.3062010  17.5605230  21.1689860  10.6826830  16.6877110  21.0563530
  10.2081520  17.8963930  20.2780300   4.4367020  15.9330860  16.6307300
   4.5433770  16.8334590  16.9376060   3.5259380  15.8848830  16.3401950
  14.0886130  15.0555670  18.1018200  14.9095750  14.5652240  18.1443680
  14.1220210  15.6453330  18.8550040   2.0850180  17.8549870  21.8759890
   2.7660290  18.1188240  22.4947290   1.7698230  17.0150740  22.2097900
   6.2774750  18.9017230  20.9632480   6.7852970  19.3998200  21.6037500
   6.8087990  18.1252430  20.7871840  18.3785680  17.0722420  24.6661830
  17.6737850  17.4604130  24.1476940  18.6443600  17.7672710  25.2682760
   4.5610850  13.5415790  25.2295900   4.5629290  14.0588180  24.4241800
   3.7315160  13.0645970  25.2065830  10.9481940  23.6535100  16.7285800
  10.3299210  24.1184550  16.1648520  11.4605190  24.3462580  17.1455310
   5.8113700  23.1810970  23.4069400   5.4783080  23.8079890  24.0490470
   5.9880380  23.7072850  22.6271070  14.3247610  16.9956050  20.8745740
  13.6203180  17.2840940  21.4548850  14.6859770  17.8056160  20.5145300
   4.2426180  15.2525750  23.2366350   4.5842990  16.0967800  22.9420220
   3.3041990  15.4009490  23.3531690   5.0232800  25.1491770  25.2218580
   5.6406800  25.8242850  24.9403030   4.1625920  25.5579750  25.1306080
  15.9410390  26.6131180  23.1373220  15.2573910  27.2830290  23.1289890
  16.4804680  26.8111830  22.3718080  17.3934530  16.4410840  21.2654950
  16.4459440  16.4749820  21.3970380  17.7184520  17.2549790  21.6504310
   7.9254070  12.7408020  19.5610940   8.2329050  12.1854910  18.8446440
   6.9954770  12.8752480  19.3783930  13.4769130  28.4575310  21.8518400
  13.4896290  28.0537600  20.9840660  12.9244350  29.2322600  21.7479830
  14.7714550  25.1791530  16.9408570  14.6610880  24.2365860  17.0657990
  14.7682800  25.5407170  17.8271330  12.8754570  23.3605150  23.1801010
  13.2923360  23.1465260  22.3454470  13.5994390  23.6177940  23.7509630
  10.3134830  20.8056850  16.2971060   9.3864110  20.7394230  16.5259530
  10.4659650  21.7436980  16.1826300  10.3003910  17.0773850  13.2938220
   9.3607580  17.2387810  13.3790680  10.6187170  17.7959530  12.7474210
  16.8216670  21.7592370  23.2717250  15.9935300  21.8285460  22.7967380
  17.4167150  22.3446680  22.8033080  14.3432120  22.3677150  16.8006310
  13.7244540  22.0296700  16.1532610  14.3256570  21.7236910  17.5085500
  13.7858680  18.5461690  24.2172120  13.3729860  19.3715400  24.4712110
  13.0534630  17.9606730  24.0248480   5.9191470  21.3321590  19.0790790
   5.5148470  20.6198840  18.5836690   6.0054590  20.9874830  19.9678830
   6.3873170  25.0189150  21.2430000   6.0901460  24.4134620  20.5637780
   7.3372990  25.0566460  21.1319360   4.6320090  18.1064800  22.8589830
   5.1834680  18.2160140  22.0843080   5.1463600  18.4802400  23.5745060
  14.4758780  28.5921020  24.9053100  13.9989340  29.3993210  24.7125710
  13.7920570  27.9399350  25.0579310   5.4791600  24.7570840  27.8937800
   4.5820130  24.9810810  28.1411200   5.5044470  24.8805780  26.9449200
  12.5196820  21.6063960  13.8079060  12.9590100  20.7686390  13.6616880
  13.2325240  22.2393360  13.8943200   4.3062820  21.6284160  26.4695170
   4.1670590  22.5006960  26.8382570   3.4244180  21.2856970  26.3243110
  10.6292200  26.5460030  17.7760300  11.0688110  27.2884360  17.3615690
  10.5679090  26.7886600  18.6999260   6.1043170  27.5705860  28.6780320
   6.0758600  27.9748810  27.8108750   5.9408140  26.6416220  28.5151920
  16.1013960  12.8606770  12.1220100  15.7886620  12.9533600  13.0219170
  16.8626430  13.4387800  12.0717530   2.6196100  20.2266570  16.5797440
   2.4993700  20.9528660  15.9678710   2.3096990  19.4569480  16.1025350
  18.0557990  28.3532960  29.9744490  18.5317710  28.8315850  30.6533570
  18.6765150  28.2850450  29.2489990  17.4591240  25.5445810  27.1344500
  17.5854300  25.3057690  26.2161680  17.5012620  24.7130350  27.6066580
  11.3207980  29.2473810  25.7039310  11.8352650  29.1581820  26.5061740
  10.4777060  29.5933510  25.9967220  13.2962380  29.5329150  15.1323310
  13.1363520  29.2432090  16.0305140  13.1309090  28.7569280  14.5968540
   5.7750760  29.3127680  16.9094930   5.5993240  28.3963220  16.6962730
   4.9206500  29.6714970  17.1492730  12.9988510  27.0416710  13.6921310
  12.3053670  27.0394000  13.0323590  13.7411370  26.6176030  13.2615480
  12.5638440  28.6679420  17.7669800  13.0195390  27.8868800  18.0808420
  12.9030960  29.3786240  18.3110980  17.3115250  17.5978270  28.0994240
  16.6959520  18.1057940  27.5709700  16.9911670  16.6976600  28.0420180
   5.0859760  13.5701640  19.9621110   4.6427910  14.3511180  19.6305630
   5.6444750  13.8931530  20.6692050   9.3729570  16.4370160  25.5656430
   8.9108940  16.6453180  26.3776370   8.9707680  15.6229510  25.2627100
  14.3734080  17.6579110  26.6953090  13.5227670  17.3584860  27.0162160
  14.2135870  17.9021120  25.7836910  11.4683790  19.1580860  28.7951880
  11.7937200  18.3244610  28.4554110  12.2564120  19.6809380  28.9430210
   8.2018580  13.1912340  14.8426940   7.5772760  13.1872210  15.5680250
   8.1148700  12.3243300  14.4462910   7.1235660  14.1148970  21.8210710
   7.4207990  15.0211800  21.7402730   7.6721220  13.6267750  21.2070280
   4.8773980  18.6935210  17.6902360   4.6514900  18.4772380  18.5948980
   4.0966510  19.1263670  17.3448330  12.1071740  18.6998580  16.2893010
  11.5080630  19.4234380  16.1056630  12.6551350  18.6375360  15.5069460
   7.3173190  19.5920790  28.3562630   7.2216790  18.6515520  28.2063030
   8.1605170  19.8135860  27.9610700  10.7136610  17.3362120  18.3196290
  11.1066180  17.6534320  17.5064980  11.0753460  16.4574000  18.4340810
   2.4483730  16.0034460  26.5096410   2.0547120  16.8509670  26.7169190
   1.7602130  15.3660830  26.7005050   9.0228780  16.0869430  29.5793150
   8.3327100  15.8941630  30.2139240   9.7661080  16.3704070  30.1117450
  11.2991750  19.9267870  22.4147070  10.5672870  20.4354680  22.7637170
  10.9016090  19.1097850  22.1135850   7.7369140  16.6022070  20.8199560
   7.7405200  16.1612020  19.9704100   8.6320260  16.9239400  20.9271380
   3.5871520  16.4848560  19.7793770   3.2471570  16.9623790  20.5360820
   2.8248840  16.0313680  19.4194870   7.7989290  17.6034150  13.8106320
   7.9202110  17.5620630  14.7592140   7.4137800  18.4658300  13.6553050
  11.7617660  15.3801550  21.8270010  11.7790400  15.8310200  22.6711860
  11.5133240  14.4807190  22.0403450   6.8110790  19.9135290  13.2089620
   6.2427690  19.4653540  12.5825530   7.5199790  20.2728070  12.6754770
  15.1888410  12.7933730  27.6656390  15.5134180  12.0623390  28.1914370
  15.2244920  12.4747370  26.7637380   1.8879970  23.8147310  27.0856350
   1.5034760  23.1740980  27.6839310   2.1992160  24.5183430  27.6551080
   8.0377110  20.6623850  22.5664970   8.4047240  20.1882420  23.3126310
   7.8482170  21.5365420  22.9073310   5.8276480  19.7032490  24.8849180
   5.5233550  20.5824470  25.1099540   6.7822940  19.7632280  24.9206620
   4.3558270  23.9093480  15.4816030   3.5820530  23.3691100  15.3214750
   5.0852900  23.3900090  15.1433790  15.1146250  22.9058840  21.2742420
  15.8345370  23.4014130  20.8838530  14.9128070  22.2276730  20.6296290
  10.5756190  14.2996800  15.4171810   9.7620800  13.8009970  15.3417120
  10.3818140  15.1395050  15.0008160  10.4965050  22.9767900  27.1611420
  10.4302360  22.0563570  26.9069010   9.8670190  23.0743340  27.8756060
  13.2904580  18.6716450  13.7133970  14.1784200  18.9833680  13.5385310
  13.2609670  17.7988700  13.3214550   4.3995670  23.5773860  19.1194840
   4.9174340  22.7742120  19.0651730   3.9479690  23.5153000  19.9611670
   9.2865170  24.8440140  14.3922140   9.6280870  25.5882370  13.8965460
   8.4577880  25.1571260  14.7546970   1.8840210  20.5435230  26.0320540
   1.5255150  21.2089080  26.6193880   1.5894770  19.7118780  26.4033160
   5.0853330  21.0019470  28.9160090   4.7853470  21.1476650  28.0187910
   5.8564570  20.4424760  28.8233480  10.4281780  25.7988470  26.9115220
  10.4426320  24.8669430  26.6934130   9.7206880  25.8848230  27.5504990
  15.5618850  19.9828290  13.1813830  15.4782570  20.4142510  12.3310270
  16.2813040  20.4426640  13.6140650  16.6392990  22.4395810  26.2583800
  15.9141180  23.0324590  26.0613190  17.1668450  22.4319350  25.4597170
  16.5906100  26.8370550  15.9095960  15.9482260  26.1826170  16.1839680
  16.2036760  27.2425640  15.1336630  12.1692580  24.1655980  19.7567650
  12.5216400  23.5684110  19.0969020  11.2854910  23.8400210  19.9275900
   8.2555860  24.9253670  17.1638060   8.9426990  25.4722880  17.5445650
   7.4688280  25.4694400  17.1987670   7.5583070  21.9299700  16.7763420
   8.0145850  22.7404950  17.0023610   7.2071280  21.6122840  17.6081910
   9.8615680  27.4406040  24.0055720  10.5057900  27.6465420  24.6829140
  10.2245120  26.6794440  23.5526570   3.4594850  12.2737350  17.2485940
   3.3309480  12.2655250  18.1970860   2.6356870  12.6120440  16.8976950
  11.1347760  25.4438390  22.7233170  11.7769990  24.7431550  22.8365340
  11.6597110  26.2236830  22.5430060  14.9803480  25.7287010  12.4472310
  14.7541060  25.0117450  13.0396950  14.5899680  25.4799450  11.6094060
  12.9085380  26.2433290  25.9269230  13.2441620  26.8299980  26.6047150
  11.9885720  26.1126000  26.1567020  14.5619730  23.6458950  14.1086470
  14.2741430  24.1071640  14.8964350  15.3571900  23.1856720  14.3770690
   8.7373960  26.2924620  29.0957290   8.4170830  25.5733860  29.6402980
   8.0632320  26.9679690  29.1693350   6.7788130  27.1385070  14.0390440
   6.7698230  27.8714760  13.4234950   5.8586490  26.8916650  14.1317400
   2.3794770  22.3599960  14.7837200   1.7722720  23.0998860  14.7932500
   2.8544120  22.4499320  13.9575400  11.9527560  16.5250780  24.4594090
  12.3208380  15.7045990  24.7873660  11.0925760  16.5852670  24.8749740
  15.3189590  15.4807720  15.2681650  14.6902750  15.5853390  14.5539880
  14.8241510  15.7004500  16.0575530   9.7647730  27.2013310  12.7015630
   9.8659710  26.9977300  11.7717610   8.8649470  26.9471590  12.9063410
   7.2873620  17.7593670  16.6839530   6.5789770  18.2280010  17.1253140
   7.5718100  17.1015680  17.3184720   8.9129550  19.1790370  24.6832060
   9.4114800  19.6536190  25.3483910   9.0552500  18.2553890  24.8902090
  11.3189050  14.4844330  18.1235320  11.1956830  14.5030460  17.1744830
  12.2673610  14.5323270  18.2433720   8.4065840  29.7199630  17.3963300
   8.6607340  29.6821020  16.4742670   7.4578320  29.5932960  17.3891550
   5.4908640  16.0678750  14.0590240   6.3399170  16.5048900  13.9930430
   5.1239910  16.3799010  14.8862300  16.1196410  15.3958330  25.5260450
  15.6170010  16.1363730  25.8654260  16.9353070  15.7842330  25.2097240
  14.4118420  20.6391510  18.9721810  13.4708560  20.6541740  19.1469500
  14.7262490  19.8527470  19.4182110   4.3900060  22.3211110  12.5325770
   5.1563330  22.2092470  13.0951200   4.4674750  21.6249080  11.8802540
   3.0846820  19.7536180  13.2158660   3.1650410  18.8063690  13.3276060
   3.9766570  20.0843060  13.3219320  16.4144000  27.8100360  20.6476070
  16.5391420  28.6331530  21.1199880  17.2809560  27.5991090  20.3000220
   3.8861530  29.9031570  20.3193200   4.6224010  29.3547030  20.5901770
   4.2702450  30.7687580  20.1799190   2.8919810  29.0877640  29.5078780
   3.6932540  29.4089690  29.9214180   2.3771630  28.7273220  30.2298690
   6.9963840  29.0761880  12.1418770   7.7892450  29.3650710  11.6900560
   6.4768190  28.6454050  11.4631250  11.7284440  25.1957510  29.4554190
  11.1222600  25.2189110  28.7149940  11.4238550  24.4640550  29.9921440
  13.1584810  28.9237800  28.0663600  14.1106560  28.8395820  28.0163840
  13.0113030  29.5879510  28.7397390  16.0494010  28.3032010  13.5655510
  15.7635520  27.8897150  12.7509690  15.8513560  29.2319720  13.4456030
   7.5141240  24.2965290  12.0061120   7.4091880  23.6817640  12.7322500
   7.3465460  23.7731180  11.2224130   7.6655560  22.9822090  27.9850350
   6.9001230  23.5507090  27.9005020   7.8471520  22.6898300  27.0918580
  10.7543970  23.3585320  12.6103110  10.2054070  23.8054620  13.2545850
  11.3763230  22.8534570  13.1340780  14.8078910  24.7127420  28.5425370
  15.5488380  25.0503180  28.0392830  14.0451590  24.8819480  27.9895140
   2.6440700  19.7180690  29.3464900   2.6846040  19.4194560  30.2550130
   3.4986200  20.1188300  29.1872420   6.4219090  22.3176240  14.5068410
   6.8435510  22.1516110  15.3499800   6.5469930  21.5076470  14.0123550
   4.5846510  18.2972790  27.3139390   4.0542970  17.8063740  26.6862730
   5.2534580  18.7256990  26.7797320   8.9346730  21.3413850  11.7545510
   9.4552390  20.6262870  11.3886660   9.5815130  21.9799720  12.0546020
  13.4824570  22.7642250  27.0780580  13.8965590  22.9187330  27.9271000
  12.5475570  22.8897470  27.2406360  13.9546740  20.1038410  29.0819730
  14.5367510  19.3490730  28.9940210  14.1308510  20.6345850  28.3051210
   5.0718810  15.2635160  27.3936680   4.9775680  14.6455910  26.6687550
   4.4916200  15.9901450  27.1666590   7.8380250  13.8208400  24.4264070
   7.3897550  13.8432660  23.5809620   7.2045450  13.4227420  25.0234370
   8.2439800  22.7162730  25.0476510   8.6627910  23.5595460  24.8752750
   7.3248430  22.8534770  24.8183290  10.5803700  20.4478910  26.4314350
  10.6999910  19.8520050  27.1709190  11.4397700  20.4848600  26.0115650
  12.9191600  21.0016100  25.0076860  12.3926820  21.5258720  24.4042000
  13.2622940  21.6343490  25.6386590   5.3177990  18.3909470  11.4526570
   5.1167050  17.5276830  11.8139910   5.1470040  18.3042830  10.5148170
   6.0947220  29.0215740  26.1634240   5.5568310  29.7461800  25.8442940
   6.3481180  28.5446080  25.3731580   7.3472470  16.9900260  27.6890170
   7.9372160  16.6816110  28.3767990   6.5292710  16.5180010  27.8450070
  12.1665900  16.6066070  27.9223190  11.4781420  15.9447610  27.8573180
  12.8871920  16.1604340  28.3671650  12.7966300  13.2017700  13.9813450
  13.0768590  12.3585600  14.3372870  12.0232030  13.4340810  14.4952200
   4.1160790  15.4910090  11.4404450   4.4186690  15.4977520  10.5323600
   4.8555380  15.1407950  11.9372110   8.9509430  30.2566950  26.4220890
   8.8768130  31.1602090  26.7293260   8.0488270  29.9378850  26.3942960
   7.3345720  14.4344710  12.4260650   6.9867720  13.7568700  11.8463100
   7.5358490  13.9734220  13.2404040   9.4994760  29.4225460  14.0447250
  10.3945550  29.7610430  14.0666010   9.5312390  28.7004870  13.4171530
   3.1390920  24.7952510  12.2734250   3.5765790  25.3382180  12.9291830
   3.6238650  23.9699460  12.2830590   4.9498640  25.9150550  17.3856480
   4.6494180  25.7915520  18.2860390   4.8436130  25.0559140  16.9772210
  16.4789110  27.9529130  26.7513450  15.8791100  28.0121690  26.0077370
  16.6083010  27.0134110  26.8810300  17.7190560  25.6946950  12.0883160
  16.8883520  25.7623600  12.5590390  17.8962390  26.5851070  11.7850020
  17.1747020  22.4394430  14.5917360  17.9365930  23.0091080  14.6977050
  17.1901390  21.8721630  15.3625670  18.1806990  23.2944530  19.4359290
  18.5515820  22.5111850  19.0295260  18.8208920  23.9833630  19.2576590
  15.1640750  24.6781110  24.8489610  14.3500590  25.1078270  25.1115400
  15.5714950  25.2899520  24.2358660  17.2266190  22.7328800  11.7489880
  17.5015030  23.6407680  11.6209100  17.0376930  22.6691330  12.6851870
  13.6241800  15.7573650  13.0443510  14.0426680  15.5704630  12.2040170
  13.3177860  14.9052700  13.3546440  17.1231530  20.6697790  16.7419310
  16.7475130  19.9025720  16.3100600  16.3934650  21.0520490  17.2294240
  16.5131150  19.8169310  26.3758830  16.2817240  19.5882060  25.4756780
  16.7735700  20.7368860  26.3303720  14.9519220  15.0425740  29.1538530
  15.8289400  15.0509140  29.5372530  14.9640060  14.3056580  28.5430880
  16.3982490  18.8955280  20.0426550  16.9219970  18.4017930  19.4116720
  16.9841910  19.0305640  20.7874120  16.5772210  18.9795150  23.5646100
  15.6274920  18.9458690  23.6791090  16.7585220  19.8895260  23.3295870
   2.4316650  17.2296830  12.6744730   3.1408350  16.8080050  12.1892010
   1.7156590  17.2972060  12.0428080   2.0790810  13.2836160  11.7147380
   2.8018940  13.8245100  12.0328600   2.3515330  13.0099580  10.8388920
  15.8882460  18.1528630  15.9818960  16.3841580  17.9199500  16.7667840
  15.6898530  17.3140470  15.5656600   1.7683000  12.5342350  21.6170000
   2.4159190  11.9839730  21.1765160   2.1884840  12.7885500  22.4385810
  17.3169620  16.7889580  18.5156640  17.2068900  16.6345620  19.4538910
  18.0777210  16.2610520  18.2732050  15.6635340  12.7283710  24.9739640
  16.3007560  13.3417850  25.3398830  15.8110230  12.7644370  24.0288870
  18.2059890  14.6197500  11.7562780  19.1309200  14.4878680  11.5481070
  18.1835680  14.6990320  12.7099230  18.2798380  15.3908160  14.3819490
  17.4849880  15.3253280  14.9112400  18.4841660  16.3258800  14.3704840
  15.2216800  29.4299710  18.3757880  15.8175870  29.1084280  17.6992300
  15.4794950  28.9571530  19.1671150   3.1279370  25.8617620  28.5248510
   3.0849000  25.4910530  29.4062970   3.2590380  26.7995190  28.6650330
   6.8285400  27.4177210  24.1258230   6.5876760  27.6851770  23.2388750
   7.7688040  27.5882940  24.1809090   9.0339820  13.8809900  27.8814740
   8.9728710  14.4731730  28.6310150   9.9740200  13.7735860  27.7365000
  11.6714380  13.5379960  27.5207030  12.2854790  13.8559250  26.8588110
  12.2163940  13.0528550  28.1402890  18.0889560  29.4371590  24.9268870
  17.5947840  29.8340460  24.2096000  17.4802850  28.8120800  25.3206150
   2.1935640  12.2174220  27.6346090   2.7418630  12.0362270  26.8712200
   2.2590950  11.4268330  28.1702400   2.9667400  28.8079870  25.6446290
   2.3727720  28.6764570  26.3836330   2.9591240  27.9718010  25.1788390
  12.4122420  12.1012100  23.8476320  11.5382260  12.4347210  23.6449250
  12.3033170  11.6285280  24.6728190  13.3194400  14.3082970  25.2318040
  12.9907760  13.4934730  24.8519770  14.2676700  14.2652780  25.1083730
  15.7729010  30.0795010  22.2055610  15.3131980  30.8310820  21.8313630
  15.1441470  29.3601480  22.1470410   2.5979630  26.1738250  24.5954330
   1.8713690  25.5543540  24.5280280   2.6588780  26.5678860  23.7252410
   6.2024730  28.3883250  21.3803740   6.7189750  27.7770610  20.8552000
   6.8522110  28.8912030  21.8714750   8.9420230  29.2791740  22.2072720
   9.2298040  29.0246040  21.3305730   9.4543450  28.7269100  22.7978290
  10.1597240  13.0181940  22.7869230   9.3769030  13.4927440  23.0665990
   9.8660170  12.1136770  22.6782410  14.7118310  13.7205040  20.8318320
  15.1526400  13.6650140  19.9839920  14.4425900  14.6363050  20.9028500
  16.5756880  13.3520280  18.8427140  16.5145280  12.4081500  18.6958160
  17.3548910  13.4600370  19.3880600   8.0451460  15.4368690  18.2985260
   7.2325970  15.0625580  17.9581140   8.5493100  14.6813770  18.6006450
  12.5476440  12.1011140  19.5368330  13.1505810  12.6731350  20.0116850
  11.8069430  12.6650580  19.3142230  15.6911040  12.5032700  14.8108610
  15.8861670  13.4016150  15.0776040  14.9040910  12.2719780  15.3041560
   2.4872330  28.1845870  15.2501230   1.9619950  28.5653900  14.5463190
   2.4116910  28.8096640  15.9710940   3.8762800  13.8493470  13.8484920
   4.4055560  13.0623270  13.7192870   4.5091120  14.5284660  14.0820450
   6.0700640  13.5868610  16.9030310   5.4403380  12.8855920  17.0700440
   5.5305780  14.3472740  16.6863470   9.0092590  30.2007840  29.5740920
   9.9359900  29.9652110  29.6176880   8.9943020  31.0279840  29.0926950
  17.2437650  29.7433410  16.5715170  17.4189840  29.0571150  15.9276090
  16.5459220  30.2680460  16.1791840   6.1956200  12.8652590  29.3382800
   5.9140470  13.3686190  28.5743620   6.5775900  12.0674340  28.9724930
   5.0865300  30.1328250  14.1250480   5.8184120  29.8487530  13.5774370
   5.3458970  29.8941530  15.0149860   4.2480090  26.2492980  14.1296810
   3.6188970  26.7178080  14.6782640   4.3627920  25.4042200  14.5643000
  12.7971660  12.2806170  29.9163270  12.6837110  12.6000780  30.8114790
  13.6141400  12.6818680  29.6200550  15.5770150  29.4277700  29.3981960
  16.3695470  28.9326930  29.1907920  15.8703300  30.1067840  30.0057570
   9.8347850  22.0777660   2.1607280   9.0589950  21.5978100   2.4505850
  10.4860780  21.3983310   1.9863440   3.8513680  22.3897470   3.0383040
   3.0198560  22.1346180   3.4379550   4.4594660  22.4608240   3.7740960
   3.8314940  26.4237560   3.2341060   4.1342980  25.5335300   3.0551280
   4.5758530  26.9807780   3.0063310   9.2756840  24.7534850   2.1677440
   9.2065120  23.8124790   2.0066570  10.0376700  24.8436260   2.7400010
   2.0850180  17.8549870   3.1016400   2.7660290  18.1188240   3.7203800
   1.7698230  17.0150740   3.4354410   6.2774750  18.9017230   2.1888990
   6.7852970  19.3998200   2.8294010   6.8087990  18.1252430   2.0128350
  18.3785680  17.0722420   5.8918340  17.6737850  17.4604130   5.3733450
  18.6443600  17.7672710   6.4939270   4.5610850  13.5415790   6.4552410
   4.5629290  14.0588180   5.6498310   3.7315160  13.0645970   6.4322340
   5.8113700  23.1810970   4.6325910   5.4783080  23.8079890   5.2746980
   5.9880380  23.7072850   3.8527580  14.3247610  16.9956050   2.1002250
  13.6203180  17.2840940   2.6805360  14.6859770  17.8056160   1.7401810
   4.2426180  15.2525750   4.4622860   4.5842990  16.0967800   4.1676730
   3.3041990  15.4009490   4.5788200   5.0232800  25.1491770   6.4475090
   5.6406800  25.8242850   6.1659540   4.1625920  25.5579750   6.3562590
  15.9410390  26.6131180   4.3629730  15.2573910  27.2830290   4.3546400
  16.4804680  26.8111830   3.5974590  17.3934530  16.4410840   2.4911460
  16.4459440  16.4749820   2.6226890  17.7184520  17.2549790   2.8760820
  13.4769130  28.4575310   3.0774910  13.4896290  28.0537600   2.2097170
  12.9244350  29.2322600   2.9736340  12.8754570  23.3605150   4.4057520
  13.2923360  23.1465260   3.5710980  13.5994390  23.6177940   4.9766140
  16.8216670  21.7592370   4.4973760  15.9935300  21.8285460   4.0223890
  17.4167150  22.3446680   4.0289590  13.7858680  18.5461690   5.4428630
  13.3729860  19.3715400   5.6968620  13.0534630  17.9606730   5.2504990
   6.3873170  25.0189150   2.4686510   6.0901460  24.4134620   1.7894290
   7.3372990  25.0566460   2.3575870   4.6320090  18.1064800   4.0846340
   5.1834680  18.2160140   3.3099590   5.1463600  18.4802400   4.8001570
  14.4758780  28.5921020   6.1309610  13.9989340  29.3993210   5.9382220
  13.7920570  27.9399350   6.2835820   5.4791600  24.7570840   9.1194310
   4.5820130  24.9810810   9.3667710   5.5044470  24.8805780   8.1705710
   4.3062820  21.6284160   7.6951680   4.1670590  22.5006960   8.0639080
   3.4244180  21.2856970   7.5499620   6.1043170  27.5705860   9.9036830
   6.0758600  27.9748810   9.0365260   5.9408140  26.6416220   9.7408430
  18.0557990  28.3532960  11.2001000  18.5317710  28.8315850  11.8790080
  18.6765150  28.2850450  10.4746500  17.4591240  25.5445810   8.3601010
  17.5854300  25.3057690   7.4418190  17.5012620  24.7130350   8.8323090
  11.3207980  29.2473810   6.9295820  11.8352650  29.1581820   7.7318250
  10.4777060  29.5933510   7.2223730  17.3115250  17.5978270   9.3250750
  16.6959520  18.1057940   8.7966210  16.9911670  16.6976600   9.2676690
   9.3729570  16.4370160   6.7912940   8.9108940  16.6453180   7.6032880
   8.9707680  15.6229510   6.4883610  14.3734080  17.6579110   7.9209600
  13.5227670  17.3584860   8.2418670  14.2135870  17.9021120   7.0093420
  11.4683790  19.1580860  10.0208390  11.7937200  18.3244610   9.6810620
  12.2564120  19.6809380  10.1686720   7.1235660  14.1148970   3.0467220
   7.4207990  15.0211800   2.9659240   7.6721220  13.6267750   2.4326790
   7.3173190  19.5920790   9.5819140   7.2216790  18.6515520   9.4319540
   8.1605170  19.8135860   9.1867210   2.4483730  16.0034460   7.7352920
   2.0547120  16.8509670   7.9425700   1.7602130  15.3660830   7.9261560
   9.0228780  16.0869430  10.8049660   8.3327100  15.8941630  11.4395750
   9.7661080  16.3704070  11.3373960  11.2991750  19.9267870   3.6403580
  10.5672870  20.4354680   3.9893680  10.9016090  19.1097850   3.3392360
  11.7617660  15.3801550   3.0526520  11.7790400  15.8310200   3.8968370
  11.5133240  14.4807190   3.2659960  15.1888410  12.7933730   8.8912900
  15.5134180  12.0623390   9.4170880  15.2244920  12.4747370   7.9893890
   1.8879970  23.8147310   8.3112860   1.5034760  23.1740980   8.9095820
   2.1992160  24.5183430   8.8807590   8.0377110  20.6623850   3.7921480
   8.4047240  20.1882420   4.5382820   7.8482170  21.5365420   4.1329820
   5.8276480  19.7032490   6.1105690   5.5233550  20.5824470   6.3356050
   6.7822940  19.7632280   6.1463130  15.1146250  22.9058840   2.4998930
  15.8345370  23.4014130   2.1095040  14.9128070  22.2276730   1.8552800
  10.4965050  22.9767900   8.3867930  10.4302360  22.0563570   8.1325520
   9.8670190  23.0743340   9.1012570   1.8840210  20.5435230   7.2577050
   1.5255150  21.2089080   7.8450390   1.5894770  19.7118780   7.6289670
   5.0853330  21.0019470  10.1416600   4.7853470  21.1476650   9.2444420
   5.8564570  20.4424760  10.0489990  10.4281780  25.7988470   8.1371730
  10.4426320  24.8669430   7.9190640   9.7206880  25.8848230   8.7761500
  16.6392990  22.4395810   7.4840310  15.9141180  23.0324590   7.2869700
  17.1668450  22.4319350   6.6853680   9.8615680  27.4406040   5.2312230
  10.5057900  27.6465420   5.9085650  10.2245120  26.6794440   4.7783080
  11.1347760  25.4438390   3.9489680  11.7769990  24.7431550   4.0621850
  11.6597110  26.2236830   3.7686570  12.9085380  26.2433290   7.1525740
  13.2441620  26.8299980   7.8303660  11.9885720  26.1126000   7.3823530
   8.7373960  26.2924620  10.3213800   8.4170830  25.5733860  10.8659490
   8.0632320  26.9679690  10.3949860  11.9527560  16.5250780   5.6850600
  12.3208380  15.7045990   6.0130170  11.0925760  16.5852670   6.1006250
   8.9129550  19.1790370   5.9088570   9.4114800  19.6536190   6.5740420
   9.0552500  18.2553890   6.1158600  16.1196410  15.3958330   6.7516960
  15.6170010  16.1363730   7.0910770  16.9353070  15.7842330   6.4353750
   2.8919810  29.0877640  10.7335290   3.6932540  29.4089690  11.1470690
   2.3771630  28.7273220  11.4555200  11.7284440  25.1957510  10.6810700
  11.1222600  25.2189110   9.9406450  11.4238550  24.4640550  11.2177950
  13.1584810  28.9237800   9.2920110  14.1106560  28.8395820   9.2420350
  13.0113030  29.5879510   9.9653900   7.6655560  22.9822090   9.2106860
   6.9001230  23.5507090   9.1261530   7.8471520  22.6898300   8.3175090
  14.8078910  24.7127420   9.7681880  15.5488380  25.0503180   9.2649340
  14.0451590  24.8819480   9.2151650   2.6440700  19.7180690  10.5721410
   2.6846040  19.4194560  11.4806640   3.4986200  20.1188300  10.4128930
   4.5846510  18.2972790   8.5395900   4.0542970  17.8063740   7.9119240
   5.2534580  18.7256990   8.0053830  13.4824570  22.7642250   8.3037090
  13.8965590  22.9187330   9.1527510  12.5475570  22.8897470   8.4662870
  13.9546740  20.1038410  10.3076240  14.5367510  19.3490730  10.2196720
  14.1308510  20.6345850   9.5307720   5.0718810  15.2635160   8.6193190
   4.9775680  14.6455910   7.8944060   4.4916200  15.9901450   8.3923100
   7.8380250  13.8208400   5.6520580   7.3897550  13.8432660   4.8066130
   7.2045450  13.4227420   6.2490880   8.2439800  22.7162730   6.2733020
   8.6627910  23.5595460   6.1009260   7.3248430  22.8534770   6.0439800
  10.5803700  20.4478910   7.6570860  10.6999910  19.8520050   8.3965700
  11.4397700  20.4848600   7.2372160  12.9191600  21.0016100   6.2333370
  12.3926820  21.5258720   5.6298510  13.2622940  21.6343490   6.8643100
   6.0947220  29.0215740   7.3890750   5.5568310  29.7461800   7.0699450
   6.3481180  28.5446080   6.5988090   7.3472470  16.9900260   8.9146680
   7.9372160  16.6816110   9.6024500   6.5292710  16.5180010   9.0706580
  12.1665900  16.6066070   9.1479700  11.4781420  15.9447610   9.0829690
  12.8871920  16.1604340   9.5928160   8.9509430  30.2566950   7.6477400
   8.8768130  31.1602090   7.9549770   8.0488270  29.9378850   7.6199470
  16.4789110  27.9529130   7.9769960  15.8791100  28.0121690   7.2333880
  16.6083010  27.0134110   8.1066810  15.1640750  24.6781110   6.0746120
  14.3500590  25.1078270   6.3371910  15.5714950  25.2899520   5.4615170
  16.5131150  19.8169310   7.6015340  16.2817240  19.5882060   6.7013290
  16.7735700  20.7368860   7.5560230  14.9519220  15.0425740  10.3795040
  15.8289400  15.0509140  10.7629040  14.9640060  14.3056580   9.7687390
  16.5772210  18.9795150   4.7902610  15.6274920  18.9458690   4.9047600
  16.7585220  19.8895260   4.5552380   1.7683000  12.5342350   2.8426510
   2.4159190  11.9839730   2.4021670   2.1884840  12.7885500   3.6642320
  15.6635340  12.7283710   6.1996150  16.3007560  13.3417850   6.5655340
  15.8110230  12.7644370   5.2545380   3.1279370  25.8617620   9.7505020
   3.0849000  25.4910530  10.6319480   3.2590380  26.7995190   9.8906840
   6.8285400  27.4177210   5.3514740   6.5876760  27.6851770   4.4645260
   7.7688040  27.5882940   5.4065600   9.0339820  13.8809900   9.1071250
   8.9728710  14.4731730   9.8566660   9.9740200  13.7735860   8.9621510
  11.6714380  13.5379960   8.7463540  12.2854790  13.8559250   8.0844620
  12.2163940  13.0528550   9.3659400  18.0889560  29.4371590   6.1525380
  17.5947840  29.8340460   5.4352510  17.4802850  28.8120800   6.5462660
   2.1935640  12.2174220   8.8602600   2.7418630  12.0362270   8.0968710
   2.2590950  11.4268330   9.3958910   2.9667400  28.8079870   6.8702800
   2.3727720  28.6764570   7.6092840   2.9591240  27.9718010   6.4044900
  12.4122420  12.1012100   5.0732830  11.5382260  12.4347210   4.8705760
  12.3033170  11.6285280   5.8984700  13.3194400  14.3082970   6.4574550
  12.9907760  13.4934730   6.0776280  14.2676700  14.2652780   6.3340240
  15.7729010  30.0795010   3.4312120  15.3131980  30.8310820   3.0570140
  15.1441470  29.3601480   3.3726920   2.5979630  26.1738250   5.8210840
   1.8713690  25.5543540   5.7536790   2.6588780  26.5678860   4.9508920
   6.2024730  28.3883250   2.6060250   6.7189750  27.7770610   2.0808510
   6.8522110  28.8912030   3.0971260   8.9420230  29.2791740   3.4329230
   9.2298040  29.0246040   2.5562240   9.4543450  28.7269100   4.0234800
  10.1597240  13.0181940   4.0125740   9.3769030  13.4927440   4.2922500
   9.8660170  12.1136770   3.9038920   9.0092590  30.2007840  10.7997430
   9.9359900  29.9652110  10.8433390   8.9943020  31.0279840  10.3183460
   6.1956200  12.8652590  10.5639310   5.9140470  13.3686190   9.8000130
   6.5775900  12.0674340  10.1981440  12.7971660  12.2806170  11.1419780
  12.6837110  12.6000780  12.0371300  13.6141400  12.6818680  10.8457060
  15.5770150  29.4277700  10.6238470  16.3695470  28.9326930  10.4164430
  15.8703300  30.1067840  11.2314080  13.8555280   7.7094360  57.2636880
  13.3936810   6.9381600  57.5924050  14.6680830   7.7360430  57.7689330
  10.0818590   9.9952370  56.8840870   9.4630030  10.4509870  56.3135310
  10.9370370  10.1503830  56.4830570  10.9481940   4.8791610  54.2772780
  10.3299210   5.3441060  53.7135500  11.4605190   5.5719090  54.6942290
  14.7714550   6.4048040  54.4895550  14.6610880   5.4622370  54.6144970
  14.7682800   6.7663680  55.3758310  10.3134830   2.0313360  53.8458040
   9.3864110   1.9650740  54.0746510  10.4659650   2.9693490  53.7313280
  14.3432120   3.5933660  54.3493290  13.7244540   3.2553210  53.7019590
  14.3256570   2.9493420  55.0572480   5.9191470   2.5578100  56.6277770
   5.5148470   1.8455350  56.1323670   6.0054590   2.2131340  57.5165810
  12.5196820   2.8320470  51.3566040  12.9590100   1.9942900  51.2103860
  13.2325240   3.4649870  51.4430180  10.6292200   7.7716540  55.3247280
  11.0688110   8.5140870  54.9102670  10.5679090   8.0143110  56.2486240
  13.2962380  10.7585660  52.6810290  13.1363520  10.4688600  53.5792120
  13.1309090   9.9825790  52.1455520   5.7750760  10.5384190  54.4581910
   5.5993240   9.6219730  54.2449710   4.9206500  10.8971480  54.6979710
  12.9988510   8.2673220  51.2408290  12.3053670   8.2650510  50.5810570
  13.7411370   7.8432540  50.8102460  12.5638440   9.8935930  55.3156780
  13.0195390   9.1125310  55.6295400  12.9030960  10.6042750  55.8597960
   4.3558270   5.1349990  53.0303010   3.5820530   4.5947610  52.8701730
   5.0852900   4.6156600  52.6920770   4.3995670   4.8030370  56.6681820
   4.9174340   3.9998630  56.6138710   3.9479690   4.7409510  57.5098650
   9.2865170   6.0696650  51.9409120   9.6280870   6.8138880  51.4452440
   8.4577880   6.3827770  52.3033950  16.5906100   8.0627060  53.4582940
  15.9482260   7.4082680  53.7326660  16.2036760   8.4682150  52.6823610
  12.1692580   5.3912490  57.3054630  12.5216400   4.7940620  56.6456000
  11.2854910   5.0656720  57.4762880   8.2555860   6.1510180  54.7125040
   8.9426990   6.6979390  55.0932630   7.4688280   6.6950910  54.7474650
   7.5583070   3.1556210  54.3250400   8.0145850   3.9661460  54.5510590
   7.2071280   2.8379350  55.1568890  14.9803480   6.9543520  49.9959290
  14.7541060   6.2373960  50.5883930  14.5899680   6.7055960  49.1581040
  14.5619730   4.8715460  51.6573450  14.2741430   5.3328150  52.4451330
  15.3571900   4.4113230  51.9257670   6.7788130   8.3641580  51.5877420
   6.7698230   9.0971270  50.9721930   5.8586490   8.1173160  51.6804380
   2.3794770   3.5856470  52.3324180   1.7722720   4.3255370  52.3419480
   2.8544120   3.6755830  51.5062380   9.7647730   8.4269820  50.2502610
   9.8659710   8.2233810  49.3204590   8.8649470   8.1728100  50.4550390
   8.4065840  10.9456140  54.9450280   8.6607340  10.9077530  54.0229650
   7.4578320  10.8189470  54.9378530   4.3900060   3.5467620  50.0812750
   5.1563330   3.4348980  50.6438180   4.4674750   2.8505590  49.4289520
   3.8861530  11.1288080  57.8680180   4.6224010  10.5803540  58.1388750
   4.2702450  11.9944090  57.7286170   6.9963840  10.3018390  49.6905750
   7.7892450  10.5907220  49.2387540   6.4768190   9.8710560  49.0118230
  16.0494010   9.5288520  51.1142490  15.7635520   9.1153660  50.2996670
  15.8513560  10.4576230  50.9943010   7.5141240   5.5221800  49.5548100
   7.4091880   4.9074150  50.2809480   7.3465460   4.9987690  48.7711110
  10.7543970   4.5841830  50.1590090  10.2054070   5.0311130  50.8032830
  11.3763230   4.0791080  50.6827760   6.4219090   3.5432750  52.0555390
   6.8435510   3.3772620  52.8986780   6.5469930   2.7332980  51.5610530
   8.9346730   2.5670360  49.3032490   9.4552390   1.8519380  48.9373640
   9.5815130   3.2056230  49.6033000   9.4994760  10.6481970  51.5934230
  10.3945550  10.9866940  51.6152990   9.5312390   9.9261380  50.9658510
   3.1390920   6.0209020  49.8221230   3.5765790   6.5638690  50.4778810
   3.6238650   5.1955970  49.8317570   4.9498640   7.1407060  54.9343460
   4.6494180   7.0172030  55.8347370   4.8436130   6.2815650  54.5259190
  17.7190560   6.9203460  49.6370140  16.8883520   6.9880110  50.1077370
  17.8962390   7.8107580  49.3337000  17.1747020   3.6650940  52.1404340
  17.9365930   4.2347590  52.2464030  17.1901390   3.0978140  52.9112650
  18.1806990   4.5201040  56.9846270  18.5515820   3.7368360  56.5782240
  18.8208920   5.2090140  56.8063570  17.2266190   3.9585310  49.2976860
  17.5015030   4.8664190  49.1696080  17.0376930   3.8947840  50.2338850
  15.2216800  10.6556220  55.9244860  15.8175870  10.3340790  55.2479280
  15.4794950  10.1828040  56.7158130   2.4872330   9.4102380  52.7988210
   1.9619950   9.7910410  52.0950170   2.4116910  10.0353150  53.5197920
  17.2437650  10.9689920  54.1202150  17.4189840  10.2827660  53.4763070
  16.5459220  11.4936970  53.7278820   5.0865300  11.3584760  51.6737460
   5.8184120  11.0744040  51.1261350   5.3458970  11.1198040  52.5636840
   4.2480090   7.4749490  51.6783790   3.6188970   7.9434590  52.2269620
   4.3627920   6.6298710  52.1129980   9.8347850   3.3034170  39.7094260
   9.0589950   2.8234610  39.9992830  10.4860780   2.6239820  39.5350420
   3.8513680   3.6153980  40.5870020   3.0198560   3.3602690  40.9866530
   4.4594660   3.6864750  41.3227940  13.8555280   7.7094360  38.4893390
  13.3936810   6.9381600  38.8180560  14.6680830   7.7360430  38.9945840
   3.8314940   7.6494070  40.7828040   4.1342980   6.7591810  40.6038260
   4.5758530   8.2064290  40.5550290  10.0818590   9.9952370  38.1097380
   9.4630030  10.4509870  37.5391820  10.9370370  10.1503830  37.7087080
   9.2756840   5.9791360  39.7164420   9.2065120   5.0381300  39.5553550
  10.0376700   6.0692770  40.2886990  10.9481940   4.8791610  35.5029290
  10.3299210   5.3441060  34.9392010  11.4605190   5.5719090  35.9198800
   5.8113700   4.4067480  42.1812890   5.4783080   5.0336400  42.8233960
   5.9880380   4.9329360  41.4014560   5.0232800   6.3748280  43.9962070
   5.6406800   7.0499360  43.7146520   4.1625920   6.7836260  43.9049570
  15.9410390   7.8387690  41.9116710  15.2573910   8.5086800  41.9033380
  16.4804680   8.0368340  41.1461570  13.4769130   9.6831820  40.6261890
  13.4896290   9.2794110  39.7584150  12.9244350  10.4579110  40.5223320
  14.7714550   6.4048040  35.7152060  14.6610880   5.4622370  35.8401480
  14.7682800   6.7663680  36.6014820  12.8754570   4.5861660  41.9544500
  13.2923360   4.3721770  41.1197960  13.5994390   4.8434450  42.5253120
  10.3134830   2.0313360  35.0714550   9.3864110   1.9650740  35.3003020
  10.4659650   2.9693490  34.9569790  16.8216670   2.9848880  42.0460740
  15.9935300   3.0541970  41.5710870  17.4167150   3.5703190  41.5776570
  14.3432120   3.5933660  35.5749800  13.7244540   3.2553210  34.9276100
  14.3256570   2.9493420  36.2828990   5.9191470   2.5578100  37.8534280
   5.5148470   1.8455350  37.3580180   6.0054590   2.2131340  38.7422320
   6.3873170   6.2445660  40.0173490   6.0901460   5.6391130  39.3381270
   7.3372990   6.2822970  39.9062850  14.4758780   9.8177530  43.6796590
  13.9989340  10.6249720  43.4869200  13.7920570   9.1655860  43.8322800
   5.4791600   5.9827350  46.6681290   4.5820130   6.2067320  46.9154690
   5.5044470   6.1062290  45.7192690  12.5196820   2.8320470  32.5822550
  12.9590100   1.9942900  32.4360370  13.2325240   3.4649870  32.6686690
   4.3062820   2.8540670  45.2438660   4.1670590   3.7263470  45.6126060
   3.4244180   2.5113480  45.0986600  10.6292200   7.7716540  36.5503790
  11.0688110   8.5140870  36.1359180  10.5679090   8.0143110  37.4742750
   6.1043170   8.7962370  47.4523810   6.0758600   9.2005320  46.5852240
   5.9408140   7.8672730  47.2895410  18.0557990   9.5789470  48.7487980
  18.5317710  10.0572360  49.4277060  18.6765150   9.5106960  48.0233480
  17.4591240   6.7702320  45.9087990  17.5854300   6.5314200  44.9905170
  17.5012620   5.9386860  46.3810070  11.3207980  10.4730320  44.4782800
  11.8352650  10.3838330  45.2805230  10.4777060  10.8190020  44.7710710
  13.2962380  10.7585660  33.9066800  13.1363520  10.4688600  34.8048630
  13.1309090   9.9825790  33.3712030   5.7750760  10.5384190  35.6838420
   5.5993240   9.6219730  35.4706220   4.9206500  10.8971480  35.9236220
  12.9988510   8.2673220  32.4664800  12.3053670   8.2650510  31.8067080
  13.7411370   7.8432540  32.0358970  12.5638440   9.8935930  36.5413290
  13.0195390   9.1125310  36.8551910  12.9030960  10.6042750  37.0854470
   1.8879970   5.0403820  45.8599840   1.5034760   4.3997490  46.4582800
   2.1992160   5.7439940  46.4294570   8.0377110   1.8880360  41.3408460
   8.4047240   1.4138930  42.0869800   7.8482170   2.7621930  41.6816800
   4.3558270   5.1349990  34.2559520   3.5820530   4.5947610  34.0958240
   5.0852900   4.6156600  33.9177280  15.1146250   4.1315350  40.0485910
  15.8345370   4.6270640  39.6582020  14.9128070   3.4533240  39.4039780
  10.4965050   4.2024410  45.9354910  10.4302360   3.2820080  45.6812500
   9.8670190   4.2999850  46.6499550   4.3995670   4.8030370  37.8938330
   4.9174340   3.9998630  37.8395220   3.9479690   4.7409510  38.7355160
   9.2865170   6.0696650  33.1665630   9.6280870   6.8138880  32.6708950
   8.4577880   6.3827770  33.5290460   5.0853330   2.2275980  47.6903580
   4.7853470   2.3733160  46.7931400   5.8564570   1.6681270  47.5976970
  10.4281780   7.0244980  45.6858710  10.4426320   6.0925940  45.4677620
   9.7206880   7.1104740  46.3248480  16.6392990   3.6652320  45.0327290
  15.9141180   4.2581100  44.8356680  17.1668450   3.6575860  44.2340660
  16.5906100   8.0627060  34.6839450  15.9482260   7.4082680  34.9583170
  16.2036760   8.4682150  33.9080120  12.1692580   5.3912490  38.5311140
  12.5216400   4.7940620  37.8712510  11.2854910   5.0656720  38.7019390
   8.2555860   6.1510180  35.9381550   8.9426990   6.6979390  36.3189140
   7.4688280   6.6950910  35.9731160   7.5583070   3.1556210  35.5506910
   8.0145850   3.9661460  35.7767100   7.2071280   2.8379350  36.3825400
   9.8615680   8.6662550  42.7799210  10.5057900   8.8721930  43.4572630
  10.2245120   7.9050950  42.3270060  11.1347760   6.6694900  41.4976660
  11.7769990   5.9688060  41.6108830  11.6597110   7.4493340  41.3173550
  14.9803480   6.9543520  31.2215800  14.7541060   6.2373960  31.8140440
  14.5899680   6.7055960  30.3837550  12.9085380   7.4689800  44.7012720
  13.2441620   8.0556490  45.3790640  11.9885720   7.3382510  44.9310510
  14.5619730   4.8715460  32.8829960  14.2741430   5.3328150  33.6707840
  15.3571900   4.4113230  33.1514180   8.7373960   7.5181130  47.8700780
   8.4170830   6.7990370  48.4146470   8.0632320   8.1936200  47.9436840
   6.7788130   8.3641580  32.8133930   6.7698230   9.0971270  32.1978440
   5.8586490   8.1173160  32.9060890   2.3794770   3.5856470  33.5580690
   1.7722720   4.3255370  33.5675990   2.8544120   3.6755830  32.7318890
   9.7647730   8.4269820  31.4759120   9.8659710   8.2233810  30.5461100
   8.8649470   8.1728100  31.6806900   8.4065840  10.9456140  36.1706790
   8.6607340  10.9077530  35.2486160   7.4578320  10.8189470  36.1635040
   4.3900060   3.5467620  31.3069260   5.1563330   3.4348980  31.8694690
   4.4674750   2.8505590  30.6546030  16.4144000   9.0356870  39.4219560
  16.5391420   9.8588040  39.8943370  17.2809560   8.8247600  39.0743710
   3.8861530  11.1288080  39.0936690   4.6224010  10.5803540  39.3645260
   4.2702450  11.9944090  38.9542680   2.8919810  10.3134150  48.2822270
   3.6932540  10.6346200  48.6957670   2.3771630   9.9529730  49.0042180
   6.9963840  10.3018390  30.9162260   7.7892450  10.5907220  30.4644050
   6.4768190   9.8710560  30.2374740  11.7284440   6.4214020  48.2297680
  11.1222600   6.4445620  47.4893430  11.4238550   5.6897060  48.7664930
  13.1584810  10.1494310  46.8407090  14.1106560  10.0652330  46.7907330
  13.0113030  10.8136020  47.5140880  16.0494010   9.5288520  32.3399000
  15.7635520   9.1153660  31.5253180  15.8513560  10.4576230  32.2199520
   7.5141240   5.5221800  30.7804610   7.4091880   4.9074150  31.5065990
   7.3465460   4.9987690  29.9967620   7.6655560   4.2078600  46.7593840
   6.9001230   4.7763600  46.6748510   7.8471520   3.9154810  45.8662070
  10.7543970   4.5841830  31.3846600  10.2054070   5.0311130  32.0289340
  11.3763230   4.0791080  31.9084270  14.8078910   5.9383930  47.3168860
  15.5488380   6.2759690  46.8136320  14.0451590   6.1075990  46.7638630
   6.4219090   3.5432750  33.2811900   6.8435510   3.3772620  34.1243290
   6.5469930   2.7332980  32.7867040   8.9346730   2.5670360  30.5289000
   9.4552390   1.8519380  30.1630150   9.5815130   3.2056230  30.8289510
  13.4824570   3.9898760  45.8524070  13.8965590   4.1443840  46.7014490
  12.5475570   4.1153980  46.0149850   8.2439800   3.9419240  43.8220000
   8.6627910   4.7851970  43.6496240   7.3248430   4.0791280  43.5926780
  12.9191600   2.2272610  43.7820350  12.3926820   2.7515230  43.1785490
  13.2622940   2.8600000  44.4130080   6.0947220  10.2472250  44.9377730
   5.5568310  10.9718310  44.6186430   6.3481180   9.7702590  44.1475070
   8.9509430  11.4823460  45.1964380   8.8768130  12.3858600  45.5036750
   8.0488270  11.1635360  45.1686450   9.4994760  10.6481970  32.8190740
  10.3945550  10.9866940  32.8409500   9.5312390   9.9261380  32.1915020
   3.1390920   6.0209020  31.0477740   3.5765790   6.5638690  31.7035320
   3.6238650   5.1955970  31.0574080   4.9498640   7.1407060  36.1599970
   4.6494180   7.0172030  37.0603880   4.8436130   6.2815650  35.7515700
  16.4789110   9.1785640  45.5256940  15.8791100   9.2378200  44.7820860
  16.6083010   8.2390620  45.6553790  17.7190560   6.9203460  30.8626650
  16.8883520   6.9880110  31.3333880  17.8962390   7.8107580  30.5593510
  17.1747020   3.6650940  33.3660850  17.9365930   4.2347590  33.4720540
  17.1901390   3.0978140  34.1369160  18.1806990   4.5201040  38.2102780
  18.5515820   3.7368360  37.8038750  18.8208920   5.2090140  38.0320080
  15.1640750   5.9037620  43.6233100  14.3500590   6.3334780  43.8858890
  15.5714950   6.5156030  43.0102150  17.2266190   3.9585310  30.5233370
  17.5015030   4.8664190  30.3952590  17.0376930   3.8947840  31.4595360
  15.2216800  10.6556220  37.1501370  15.8175870  10.3340790  36.4735790
  15.4794950  10.1828040  37.9414640   3.1279370   7.0874130  47.2992000
   3.0849000   6.7167040  48.1806460   3.2590380   8.0251700  47.4393820
   6.8285400   8.6433720  42.9001720   6.5876760   8.9108280  42.0132240
   7.7688040   8.8139450  42.9552580  18.0889560  10.6628100  43.7012360
  17.5947840  11.0596970  42.9839490  17.4802850  10.0377310  44.0949640
   2.9667400  10.0336380  44.4189780   2.3727720   9.9021080  45.1579820
   2.9591240   9.1974520  43.9531880  15.7729010  11.3051520  40.9799100
  15.3131980  12.0567330  40.6057120  15.1441470  10.5857990  40.9213900
   2.5979630   7.3994760  43.3697820   1.8713690   6.7800050  43.3023770
   2.6588780   7.7935370  42.4995900   6.2024730   9.6139760  40.1547230
   6.7189750   9.0027120  39.6295490   6.8522110  10.1168540  40.6458240
   8.9420230  10.5048250  40.9816210   9.2298040  10.2502550  40.1049220
   9.4543450   9.9525610  41.5721780   2.4872330   9.4102380  34.0244720
   1.9619950   9.7910410  33.3206680   2.4116910  10.0353150  34.7454430
   9.0092590  11.4264350  48.3484410   9.9359900  11.1908620  48.3920370
   8.9943020  12.2536350  47.8670440  17.2437650  10.9689920  35.3458660
  17.4189840  10.2827660  34.7019580  16.5459220  11.4936970  34.9535330
   5.0865300  11.3584760  32.8993970   5.8184120  11.0744040  32.3517860
   5.3458970  11.1198040  33.7893350   4.2480090   7.4749490  32.9040300
   3.6188970   7.9434590  33.4526130   4.3627920   6.6298710  33.3386490
  15.5770150  10.6534210  48.1725450  16.3695470  10.1583440  47.9651410
  15.8703300  11.3324350  48.7801060   9.8347850   3.3034170  20.9350770
   9.0589950   2.8234610  21.2249340  10.4860780   2.6239820  20.7606930
   3.8513680   3.6153980  21.8126530   3.0198560   3.3602690  22.2123040
   4.4594660   3.6864750  22.5484450  13.8555280   7.7094360  19.7149900
  13.3936810   6.9381600  20.0437070  14.6680830   7.7360430  20.2202350
   3.8314940   7.6494070  22.0084550   4.1342980   6.7591810  21.8294770
   4.5758530   8.2064290  21.7806800  10.0818590   9.9952370  19.3353890
   9.4630030  10.4509870  18.7648330  10.9370370  10.1503830  18.9343590
   9.2756840   5.9791360  20.9420930   9.2065120   5.0381300  20.7810060
  10.0376700   6.0692770  21.5143500  10.9481940   4.8791610  16.7285800
  10.3299210   5.3441060  16.1648520  11.4605190   5.5719090  17.1455310
   5.8113700   4.4067480  23.4069400   5.4783080   5.0336400  24.0490470
   5.9880380   4.9329360  22.6271070   5.0232800   6.3748280  25.2218580
   5.6406800   7.0499360  24.9403030   4.1625920   6.7836260  25.1306080
  15.9410390   7.8387690  23.1373220  15.2573910   8.5086800  23.1289890
  16.4804680   8.0368340  22.3718080  13.4769130   9.6831820  21.8518400
  13.4896290   9.2794110  20.9840660  12.9244350  10.4579110  21.7479830
  14.7714550   6.4048040  16.9408570  14.6610880   5.4622370  17.0657990
  14.7682800   6.7663680  17.8271330  12.8754570   4.5861660  23.1801010
  13.2923360   4.3721770  22.3454470  13.5994390   4.8434450  23.7509630
  10.3134830   2.0313360  16.2971060   9.3864110   1.9650740  16.5259530
  10.4659650   2.9693490  16.1826300  16.8216670   2.9848880  23.2717250
  15.9935300   3.0541970  22.7967380  17.4167150   3.5703190  22.8033080
  14.3432120   3.5933660  16.8006310  13.7244540   3.2553210  16.1532610
  14.3256570   2.9493420  17.5085500   5.9191470   2.5578100  19.0790790
   5.5148470   1.8455350  18.5836690   6.0054590   2.2131340  19.9678830
   6.3873170   6.2445660  21.2430000   6.0901460   5.6391130  20.5637780
   7.3372990   6.2822970  21.1319360  14.4758780   9.8177530  24.9053100
  13.9989340  10.6249720  24.7125710  13.7920570   9.1655860  25.0579310
   5.4791600   5.9827350  27.8937800   4.5820130   6.2067320  28.1411200
   5.5044470   6.1062290  26.9449200  12.5196820   2.8320470  13.8079060
  12.9590100   1.9942900  13.6616880  13.2325240   3.4649870  13.8943200
   4.3062820   2.8540670  26.4695170   4.1670590   3.7263470  26.8382570
   3.4244180   2.5113480  26.3243110  10.6292200   7.7716540  17.7760300
  11.0688110   8.5140870  17.3615690  10.5679090   8.0143110  18.6999260
   6.1043170   8.7962370  28.6780320   6.0758600   9.2005320  27.8108750
   5.9408140   7.8672730  28.5151920  18.0557990   9.5789470  29.9744490
  18.5317710  10.0572360  30.6533570  18.6765150   9.5106960  29.2489990
  17.4591240   6.7702320  27.1344500  17.5854300   6.5314200  26.2161680
  17.5012620   5.9386860  27.6066580  11.3207980  10.4730320  25.7039310
  11.8352650  10.3838330  26.5061740  10.4777060  10.8190020  25.9967220
  13.2962380  10.7585660  15.1323310  13.1363520  10.4688600  16.0305140
  13.1309090   9.9825790  14.5968540   5.7750760  10.5384190  16.9094930
   5.5993240   9.6219730  16.6962730   4.9206500  10.8971480  17.1492730
  12.9988510   8.2673220  13.6921310  12.3053670   8.2650510  13.0323590
  13.7411370   7.8432540  13.2615480  12.5638440   9.8935930  17.7669800
  13.0195390   9.1125310  18.0808420  12.9030960  10.6042750  18.3110980
   1.8879970   5.0403820  27.0856350   1.5034760   4.3997490  27.6839310
   2.1992160   5.7439940  27.6551080   8.0377110   1.8880360  22.5664970
   8.4047240   1.4138930  23.3126310   7.8482170   2.7621930  22.9073310
   4.3558270   5.1349990  15.4816030   3.5820530   4.5947610  15.3214750
   5.0852900   4.6156600  15.1433790  15.1146250   4.1315350  21.2742420
  15.8345370   4.6270640  20.8838530  14.9128070   3.4533240  20.6296290
  10.4965050   4.2024410  27.1611420  10.4302360   3.2820080  26.9069010
   9.8670190   4.2999850  27.8756060   4.3995670   4.8030370  19.1194840
   4.9174340   3.9998630  19.0651730   3.9479690   4.7409510  19.9611670
   9.2865170   6.0696650  14.3922140   9.6280870   6.8138880  13.8965460
   8.4577880   6.3827770  14.7546970   5.0853330   2.2275980  28.9160090
   4.7853470   2.3733160  28.0187910   5.8564570   1.6681270  28.8233480
  10.4281780   7.0244980  26.9115220  10.4426320   6.0925940  26.6934130
   9.7206880   7.1104740  27.5504990  16.6392990   3.6652320  26.2583800
  15.9141180   4.2581100  26.0613190  17.1668450   3.6575860  25.4597170
  16.5906100   8.0627060  15.9095960  15.9482260   7.4082680  16.1839680
  16.2036760   8.4682150  15.1336630  12.1692580   5.3912490  19.7567650
  12.5216400   4.7940620  19.0969020  11.2854910   5.0656720  19.9275900
   8.2555860   6.1510180  17.1638060   8.9426990   6.6979390  17.5445650
   7.4688280   6.6950910  17.1987670   7.5583070   3.1556210  16.7763420
   8.0145850   3.9661460  17.0023610   7.2071280   2.8379350  17.6081910
   9.8615680   8.6662550  24.0055720  10.5057900   8.8721930  24.6829140
  10.2245120   7.9050950  23.5526570  11.1347760   6.6694900  22.7233170
  11.7769990   5.9688060  22.8365340  11.6597110   7.4493340  22.5430060
  14.9803480   6.9543520  12.4472310  14.7541060   6.2373960  13.0396950
  14.5899680   6.7055960  11.6094060  12.9085380   7.4689800  25.9269230
  13.2441620   8.0556490  26.6047150  11.9885720   7.3382510  26.1567020
  14.5619730   4.8715460  14.1086470  14.2741430   5.3328150  14.8964350
  15.3571900   4.4113230  14.3770690   8.7373960   7.5181130  29.0957290
   8.4170830   6.7990370  29.6402980   8.0632320   8.1936200  29.1693350
   6.7788130   8.3641580  14.0390440   6.7698230   9.0971270  13.4234950
   5.8586490   8.1173160  14.1317400   2.3794770   3.5856470  14.7837200
   1.7722720   4.3255370  14.7932500   2.8544120   3.6755830  13.9575400
   9.7647730   8.4269820  12.7015630   9.8659710   8.2233810  11.7717610
   8.8649470   8.1728100  12.9063410   8.4065840  10.9456140  17.3963300
   8.6607340  10.9077530  16.4742670   7.4578320  10.8189470  17.3891550
   4.3900060   3.5467620  12.5325770   5.1563330   3.4348980  13.0951200
   4.4674750   2.8505590  11.8802540  16.4144000   9.0356870  20.6476070
  16.5391420   9.8588040  21.1199880  17.2809560   8.8247600  20.3000220
   3.8861530  11.1288080  20.3193200   4.6224010  10.5803540  20.5901770
   4.2702450  11.9944090  20.1799190   2.8919810  10.3134150  29.5078780
   3.6932540  10.6346200  29.9214180   2.3771630   9.9529730  30.2298690
   6.9963840  10.3018390  12.1418770   7.7892450  10.5907220  11.6900560
   6.4768190   9.8710560  11.4631250  11.7284440   6.4214020  29.4554190
  11.1222600   6.4445620  28.7149940  11.4238550   5.6897060  29.9921440
  13.1584810  10.1494310  28.0663600  14.1106560  10.0652330  28.0163840
  13.0113030  10.8136020  28.7397390  16.0494010   9.5288520  13.5655510
  15.7635520   9.1153660  12.7509690  15.8513560  10.4576230  13.4456030
   7.5141240   5.5221800  12.0061120   7.4091880   4.9074150  12.7322500
   7.3465460   4.9987690  11.2224130   7.6655560   4.2078600  27.9850350
   6.9001230   4.7763600  27.9005020   7.8471520   3.9154810  27.0918580
  10.7543970   4.5841830  12.6103110  10.2054070   5.0311130  13.2545850
  11.3763230   4.0791080  13.1340780  14.8078910   5.9383930  28.5425370
  15.5488380   6.2759690  28.0392830  14.0451590   6.1075990  27.9895140
   6.4219090   3.5432750  14.5068410   6.8435510   3.3772620  15.3499800
   6.5469930   2.7332980  14.0123550   8.9346730   2.5670360  11.7545510
   9.4552390   1.8519380  11.3886660   9.5815130   3.2056230  12.0546020
  13.4824570   3.9898760  27.0780580  13.8965590   4.1443840  27.9271000
  12.5475570   4.1153980  27.2406360   8.2439800   3.9419240  25.0476510
   8.6627910   4.7851970  24.8752750   7.3248430   4.0791280  24.8183290
  12.9191600   2.2272610  25.0076860  12.3926820   2.7515230  24.4042000
  13.2622940   2.8600000  25.6386590   6.0947220  10.2472250  26.1634240
   5.5568310  10.9718310  25.8442940   6.3481180   9.7702590  25.3731580
   8.9509430  11.4823460  26.4220890   8.8768130  12.3858600  26.7293260
   8.0488270  11.1635360  26.3942960   9.4994760  10.6481970  14.0447250
  10.3945550  10.9866940  14.0666010   9.5312390   9.9261380  13.4171530
   3.1390920   6.0209020  12.2734250   3.5765790   6.5638690  12.9291830
   3.6238650   5.1955970  12.2830590   4.9498640   7.1407060  17.3856480
   4.6494180   7.0172030  18.2860390   4.8436130   6.2815650  16.9772210
  16.4789110   9.1785640  26.7513450  15.8791100   9.2378200  26.0077370
  16.6083010   8.2390620  26.8810300  17.7190560   6.9203460  12.0883160
  16.8883520   6.9880110  12.5590390  17.8962390   7.8107580  11.7850020
  17.1747020   3.6650940  14.5917360  17.9365930   4.2347590  14.6977050
  17.1901390   3.0978140  15.3625670  18.1806990   4.5201040  19.4359290
  18.5515820   3.7368360  19.0295260  18.8208920   5.2090140  19.2576590
  15.1640750   5.9037620  24.8489610  14.3500590   6.3334780  25.1115400
  15.5714950   6.5156030  24.2358660  17.2266190   3.9585310  11.7489880
  17.5015030   4.8664190  11.6209100  17.0376930   3.8947840  12.6851870
  15.2216800  10.6556220  18.3757880  15.8175870  10.3340790  17.6992300
  15.4794950  10.1828040  19.1671150   3.1279370   7.0874130  28.5248510
   3.0849000   6.7167040  29.4062970   3.2590380   8.0251700  28.6650330
   6.8285400   8.6433720  24.1258230   6.5876760   8.9108280  23.2388750
   7.7688040   8.8139450  24.1809090  18.0889560  10.6628100  24.9268870
  17.5947840  11.0596970  24.2096000  17.4802850  10.0377310  25.3206150
   2.9667400  10.0336380  25.6446290   2.3727720   9.9021080  26.3836330
   2.9591240   9.1974520  25.1788390  15.7729010  11.3051520  22.2055610
  15.3131980  12.0567330  21.8313630  15.1441470  10.5857990  22.1470410
   2.5979630   7.3994760  24.5954330   1.8713690   6.7800050  24.5280280
   2.6588780   7.7935370  23.7252410   6.2024730   9.6139760  21.3803740
   6.7189750   9.0027120  20.8552000   6.8522110  10.1168540  21.8714750
   8.9420230  10.5048250  22.2072720   9.2298040  10.2502550  21.3305730
   9.4543450   9.9525610  22.7978290   2.4872330   9.4102380  15.2501230
   1.9619950   9.7910410  14.5463190   2.4116910  10.0353150  15.9710940
   9.0092590  11.4264350  29.5740920   9.9359900  11.1908620  29.6176880
   8.9943020  12.2536350  29.0926950  17.2437650  10.9689920  16.5715170
  17.4189840  10.2827660  15.9276090  16.5459220  11.4936970  16.1791840
   5.0865300  11.3584760  14.1250480   5.8184120  11.0744040  13.5774370
   5.3458970  11.1198040  15.0149860   4.2480090   7.4749490  14.1296810
   3.6188970   7.9434590  14.6782640   4.3627920   6.6298710  14.5643000
  15.5770150  10.6534210  29.3981960  16.3695470  10.1583440  29.1907920
  15.8703300  11.3324350  30.0057570   9.8347850   3.3034170   2.1607280
   9.0589950   2.8234610   2.4505850  10.4860780   2.6239820   1.9863440
   3.8513680   3.6153980   3.0383040   3.0198560   3.3602690   3.4379550
   4.4594660   3.6864750   3.7740960   3.8314940   7.6494070   3.2341060
   4.1342980   6.7591810   3.0551280   4.5758530   8.2064290   3.0063310
   9.2756840   5.9791360   2.1677440   9.2065120   5.0381300   2.0066570
  10.0376700   6.0692770   2.7400010   5.8113700   4.4067480   4.6325910
   5.4783080   5.0336400   5.2746980   5.9880380   4.9329360   3.8527580
   5.0232800   6.3748280   6.4475090   5.6406800   7.0499360   6.1659540
   4.1625920   6.7836260   6.3562590  15.9410390   7.8387690   4.3629730
  15.2573910   8.5086800   4.3546400  16.4804680   8.0368340   3.5974590
  13.4769130   9.6831820   3.0774910  13.4896290   9.2794110   2.2097170
  12.9244350  10.4579110   2.9736340  12.8754570   4.5861660   4.4057520
  13.2923360   4.3721770   3.5710980  13.5994390   4.8434450   4.9766140
  16.8216670   2.9848880   4.4973760  15.9935300   3.0541970   4.0223890
  17.4167150   3.5703190   4.0289590   6.3873170   6.2445660   2.4686510
   6.0901460   5.6391130   1.7894290   7.3372990   6.2822970   2.3575870
  14.4758780   9.8177530   6.1309610  13.9989340  10.6249720   5.9382220
  13.7920570   9.1655860   6.2835820   5.4791600   5.9827350   9.1194310
   4.5820130   6.2067320   9.3667710   5.5044470   6.1062290   8.1705710
   4.3062820   2.8540670   7.6951680   4.1670590   3.7263470   8.0639080
   3.4244180   2.5113480   7.5499620   6.1043170   8.7962370   9.9036830
   6.0758600   9.2005320   9.0365260   5.9408140   7.8672730   9.7408430
  18.0557990   9.5789470  11.2001000  18.5317710  10.0572360  11.8790080
  18.6765150   9.5106960  10.4746500  17.4591240   6.7702320   8.3601010
  17.5854300   6.5314200   7.4418190  17.5012620   5.9386860   8.8323090
  11.3207980  10.4730320   6.9295820  11.8352650  10.3838330   7.7318250
  10.4777060  10.8190020   7.2223730   1.8879970   5.0403820   8.3112860
   1.5034760   4.3997490   8.9095820   2.1992160   5.7439940   8.8807590
   8.0377110   1.8880360   3.7921480   8.4047240   1.4138930   4.5382820
   7.8482170   2.7621930   4.1329820  15.1146250   4.1315350   2.4998930
  15.8345370   4.6270640   2.1095040  14.9128070   3.4533240   1.8552800
  10.4965050   4.2024410   8.3867930  10.4302360   3.2820080   8.1325520
   9.8670190   4.2999850   9.1012570   5.0853330   2.2275980  10.1416600
   4.7853470   2.3733160   9.2444420   5.8564570   1.6681270  10.0489990
  10.4281780   7.0244980   8.1371730  10.4426320   6.0925940   7.9190640
   9.7206880   7.1104740   8.7761500  16.6392990   3.6652320   7.4840310
  15.9141180   4.2581100   7.2869700  17.1668450   3.6575860   6.6853680
   9.8615680   8.6662550   5.2312230  10.5057900   8.8721930   5.9085650
  10.2245120   7.9050950   4.7783080  11.1347760   6.6694900   3.9489680
  11.7769990   5.9688060   4.0621850  11.6597110   7.4493340   3.7686570
  12.9085380   7.4689800   7.1525740  13.2441620   8.0556490   7.8303660
  11.9885720   7.3382510   7.3823530   8.7373960   7.5181130  10.3213800
   8.4170830   6.7990370  10.8659490   8.0632320   8.1936200  10.3949860
   2.8919810  10.3134150  10.7335290   3.6932540  10.6346200  11.1470690
   2.3771630   9.9529730  11.4555200  11.7284440   6.4214020  10.6810700
  11.1222600   6.4445620   9.9406450  11.4238550   5.6897060  11.2177950
  13.1584810  10.1494310   9.2920110  14.1106560  10.0652330   9.2420350
  13.0113030  10.8136020   9.9653900   7.6655560   4.2078600   9.2106860
   6.9001230   4.7763600   9.1261530   7.8471520   3.9154810   8.3175090
  14.8078910   5.9383930   9.7681880  15.5488380   6.2759690   9.2649340
  14.0451590   6.1075990   9.2151650  13.4824570   3.9898760   8.3037090
  13.8965590   4.1443840   9.1527510  12.5475570   4.1153980   8.4662870
   8.2439800   3.9419240   6.2733020   8.6627910   4.7851970   6.1009260
   7.3248430   4.0791280   6.0439800  12.9191600   2.2272610   6.2333370
  12.3926820   2.7515230   5.6298510  13.2622940   2.8600000   6.8643100
   6.0947220  10.2472250   7.3890750   5.5568310  10.9718310   7.0699450
   6.3481180   9.7702590   6.5988090   8.9509430  11.4823460   7.6477400
   8.8768130  12.3858600   7.9549770   8.0488270  11.1635360   7.6199470
  16.4789110   9.1785640   7.9769960  15.8791100   9.2378200   7.2333880
  16.6083010   8.2390620   8.1066810  15.1640750   5.9037620   6.0746120
  14.3500590   6.3334780   6.3371910  15.5714950   6.5156030   5.4615170
   3.1279370   7.0874130   9.7505020   3.0849000   6.7167040  10.6319480
   3.2590380   8.0251700   9.8906840   6.8285400   8.6433720   5.3514740
   6.5876760   8.9108280   4.4645260   7.7688040   8.8139450   5.4065600
  18.0889560  10.6628100   6.1525380  17.5947840  11.0596970   5.4352510
  17.4802850  10.0377310   6.5462660   2.9667400  10.0336380   6.8702800
   2.3727720   9.9021080   7.6092840   2.9591240   9.1974520   6.4044900
  15.7729010  11.3051520   3.4312120  15.3131980  12.0567330   3.0570140
  15.1441470  10.5857990   3.3726920   2.5979630   7.3994760   5.8210840
   1.8713690   6.7800050   5.7536790   2.6588780   7.7935370   4.9508920
   6.2024730   9.6139760   2.6060250   6.7189750   9.0027120   2.0808510
   6.8522110  10.1168540   3.0971260   8.9420230  10.5048250   3.4329230
   9.2298040  10.2502550   2.5562240   9.4543450   9.9525610   4.0234800
   9.0092590  11.4264350  10.7997430   9.9359900  11.1908620  10.8433390
   8.9943020  12.2536350  10.3183460  15.5770150  10.6534210  10.6238470
  16.3695470  10.1583440  10.4164430  15.8703300  11.3324350  11.2314080
  74.1407480  61.3947640  60.1488300  90.0000000  90.0000000  90.0000000
