default_name
 22030
  34.6025192  29.0857328  34.5878024  35.2665192  28.6277328  33.8548024
  35.0365192  29.3307328  35.5578024  30.2725192  33.0487328  32.4328024
  31.0955192  32.5807328  33.2038024  30.8015192  31.7097328  34.4208024
  30.1265192  32.2477328  35.0988024  32.1695192  31.4957328  35.1178024
  32.3415192  29.9647328  35.2968024  33.3165192  29.3437328  34.3098024
  30.9265192  29.3827328  35.0848024  30.2455192  30.3117328  34.0558024
  28.7235192  30.3437328  34.0018024  32.1725192  31.9987328  36.0938024
  32.4725192  32.7447328  33.1368024  33.1095192  33.6157328  32.1268024
  33.1785192  33.0347328  30.6898024  33.4475192  31.5127328  30.5418024
  34.6495192  30.9367328  31.3188024  35.7725192  31.8227328  31.2008024
  36.8495192  31.5667328  32.1328024  37.4695192  32.9337328  32.5218024
  36.5415192  33.6827328  33.3138024  38.8085192  32.7597328  33.2988024
  39.5685192  34.0897328  33.5058024  38.8415192  34.9467328  34.3868024
  39.6815192  31.8937328  32.5448024  39.1735192  30.5707328  32.3288024
  40.1365192  29.8137328  31.6208024  37.9105192  30.6697328  31.4508024
  37.3955192  29.3527328  31.2188024  33.1825192  32.1957328  34.2068024
  34.3835192  32.3047328  34.4008024  32.6815192  29.7507328  36.3208024
  32.9105192  29.0867328  33.3308024  30.3715192  29.3947328  36.0318024
  30.9985192  28.3457328  34.7368024  30.6185192  30.0507328  33.0548024
  28.3345192  31.3367328  33.7758024  34.1325192  33.8307328  32.4508024
  32.5815192  34.5757328  32.1058024  32.2245192  33.2467328  30.1938024
  33.9375192  33.5927328  30.1288024  32.5505192  30.9607328  30.8478024
  33.5875192  31.2947328  29.4768024  34.8835192  29.9377328  30.9348024
  34.3685192  30.8217328  32.3678024  36.4875192  31.0697328  33.0458024
  37.6925192  33.4827328  31.5958024  35.8735192  33.0647328  33.6948024
  38.6105192  32.3157328  34.2838024  40.5595192  33.8727328  33.9268024
  39.7215192  34.5747328  32.5328024  37.8955192  34.8537328  34.1448024
  38.9435192  30.0867328  33.2888024  39.5995192  29.0847328  31.2548024
  38.2115192  31.1467328  30.5048024  36.6315192  29.4577328  30.6208024
  23.4855192  27.6517328  35.1288024  24.6665192  27.7107328  35.4258024
  25.7875192  26.8357328  34.8628024  25.6185192  25.7937328  35.1628024
  27.0755192  27.3637328  35.5498024  28.0015192  27.8757328  34.4218024
  27.8115192  29.3637328  34.1488024  27.5435192  27.0677328  33.1988024
  26.0035192  26.9667328  33.3288024  25.3385192  25.8427328  32.5408024
  27.5605192  26.5587328  36.1138024  25.2335192  28.5857328  36.3498024
  24.4155192  29.4197328  37.2588024  23.7595192  30.6697328  36.6208024
  24.5875192  31.4677328  35.5788024  26.0025192  31.9187328  35.9988024
  25.9675192  32.4637328  37.3278024  27.1775192  33.1317328  37.7618024
  28.2395192  32.1257328  38.2918024  28.7655192  31.3377328  37.2218024
  29.4075192  32.8837328  38.9888024  30.4445192  31.9487328  39.6528024
  31.1755192  31.2397328  38.6478024  28.8625192  33.7287328  40.0228024
  27.9785192  34.7557328  39.5478024  27.5225192  35.5217328  40.6448024
  26.7515192  34.0867328  38.8958024  25.8755192  35.0857328  38.3628024
  26.6065192  28.4377328  36.5248024  27.3065192  29.0467328  37.3188024
  29.0335192  27.6227328  34.6568024  26.7685192  29.6497328  34.0328024
  27.9885192  26.0667328  33.2488024  27.8855192  27.5447328  32.2758024
  25.5595192  27.9177328  33.0058024  24.6685192  25.2167328  33.1308024
  25.0525192  29.7587328  38.0858024  23.6315192  28.7897328  37.6988024
  22.8355192  30.3477328  36.1248024  23.4475192  31.3447328  37.4268024
  24.6715192  30.8717328  34.6618024  24.0125192  32.3587328  35.3018024
  26.3625192  32.6657328  35.2798024  26.6745192  31.0617328  35.9498024
  27.6125192  33.7287328  36.9488024  27.7605192  31.4787328  39.0428024
  28.2045192  30.5257328  37.1678024  29.9315192  33.5047328  38.2508024
  31.1305192  32.5507328  40.2638024  29.9295192  31.2497328  40.3248024
  30.5055192  30.9367328  37.9998024  28.4955192  35.4017328  38.8258024
  26.7085192  35.9307328  40.2908024  26.2445192  33.4967328  39.6748024
  25.2045192  34.5957328  37.8458024  27.4565192  22.8527328  27.3298024
  27.5875192  23.5767328  28.3028024  27.4475192  25.0957328  28.3298024
  28.2445192  25.5417328  27.7238024  27.6025192  25.5117328  29.8148024
  26.3175192  26.3027328  30.2098024  25.4635192  25.5647328  31.2278024
  25.5345192  26.5657328  28.9028024  26.0435192  25.5377328  27.8738024
  26.0275192  25.9747328  26.4218024  28.4935192  26.1427328  29.9358024
  27.8015192  23.1607328  29.6058024  28.0835192  21.7487328  29.9408024
  26.8785192  20.7877328  29.7778024  25.4935192  21.3147328  30.2378024
  25.3995192  21.8067328  31.6968024  26.0065192  20.8287328  32.5508024
  25.8825192  21.0637328  33.9708024  27.0235192  21.9877328  34.4848024
  26.7845192  23.3387328  34.0698024  27.1215192  21.9507328  36.0408024
  28.3765192  22.6657328  36.5918024  28.3195192  24.0597328  36.2828024
  27.1895192  20.5817328  36.4908024  26.0445192  19.7867328  36.1588024
  26.2115192  18.4847328  36.6828024  25.9725192  19.6707328  34.6258024
  24.8305192  18.8947328  34.2468024  27.8475192  24.1837328  30.5488024
  28.0695192  24.0347328  31.7408024  26.5995192  27.2847328  30.6058024
  24.8965192  24.7287328  30.8178024  25.7165192  27.5907328  28.5648024
  24.4495192  26.4777328  29.0498024  25.3785192  24.6657328  27.9668024
  25.4775192  25.2887328  25.7758024  28.4255192  21.6957328  30.9818024
  28.9115192  21.3987328  29.3118024  26.7955192  20.5257328  28.7158024
  27.1055192  19.8487328  30.2978024  25.1775192  22.1297328  29.5738024
  24.7595192  20.5117328  30.0978024  24.3435192  21.9527328  31.9588024
  25.9025192  22.7717328  31.7878024  24.9065192  21.5057328  34.2218024
  27.9775192  21.6187328  34.0778024  27.1795192  23.4667328  33.1748024
  26.2325192  22.4307328  36.4718024  28.4265192  22.5187328  37.6788024
  29.2745192  22.2097328  36.1538024  27.8965192  24.1137328  35.3998024
  25.1275192  20.2417328  36.5578024  25.6065192  17.9577328  36.1248024
  26.9025192  19.1867328  34.2898024  24.7685192  18.9707328  33.2738024
  28.5115192  28.7357328  22.2308024  28.7605192  28.4307328  23.3838024
  28.5565192  29.3107328  24.6198024  29.2895192  30.1287328  24.6068024
  28.8395192  28.3587328  25.8098024  27.4775192  28.1237328  26.5068024
  26.6435192  27.0257328  25.8498024  26.7745192  29.4747328  26.2808024
  27.1105192  29.8327328  24.8128024  26.9455192  31.2887328  24.4318024
  29.5565192  28.8217328  26.5008024  29.2965192  27.2167328  23.8128024
  29.8875192  26.2347328  22.8788024  28.8735192  25.3047328  22.1698024
  27.7845192  24.6317328  23.0478024  28.2555192  23.8387328  24.2898024
  29.4435192  23.1007328  23.9628024  29.8545192  22.1307328  24.9528024
  30.9565192  22.7117328  25.8808024  30.4105192  23.7097328  26.7488024
  31.5925192  21.5817328  26.7428024  32.8015192  22.0517328  27.5828024
  32.3635192  22.9357328  28.6168024  32.0605192  20.5277328  25.8758024
  31.0275192  19.8867328  25.1128024  31.5985192  18.8657328  24.3198024
  30.4065192  20.9277328  24.1628024  29.3465192  20.3287328  23.4098024
  29.4575192  27.1147328  25.1908024  30.0275192  26.2227328  25.7948024
  27.6415192  27.9187328  27.5698024  26.5325192  27.1277328  24.7728024
  27.2015192  30.2277328  26.9548024  25.6965192  29.4227328  26.4738024
  26.4575192  29.2547328  24.1448024  27.3625192  31.5457328  23.4568024
  30.6015192  25.6117328  23.4308024  30.4595192  26.7787328  22.1168024
  28.3615192  25.8877328  21.3948024  29.4345192  24.5277328  21.6368024
  27.0645192  25.3907328  23.3708024  27.2195192  23.9467328  22.4048024
  27.4475192  23.1597328  24.5938024  28.4345192  24.5187328  25.1268024
  29.0045192  21.7897328  25.5638024  31.7485192  23.1427328  25.2508024
  30.2175192  24.5137328  26.2128024  30.8335192  21.1797328  27.4268024
  33.2955192  21.1747328  28.0218024  33.5295192  22.5487328  26.9278024
  31.6595192  23.4877328  28.2148024  30.2625192  19.4647328  25.7788024
  30.9275192  18.7497328  23.6198024  31.2045192  21.2857328  23.4958024
  28.8765192  21.0717328  22.9808024  21.9695192  33.8107328  26.6418024
  22.7795192  33.6577328  25.7438024  23.9315192  34.6007328  25.4008024
  23.5185192  35.5687328  25.0898024  24.6505192  33.9247328  24.2048024
  26.1045192  33.6447328  24.6558024  26.2985192  32.2227328  25.1448024
  26.3375192  34.6447328  25.7988024  24.9815192  34.7717328  26.5258024
  24.7915192  36.0607328  27.3068024  24.6355192  34.5907328  23.3358024
  22.7835192  32.6187328  24.8168024  21.5825192  31.7837328  24.5858024
  21.3745192  30.6077328  25.5698024  22.6155192  29.7507328  25.9308024
  23.4835192  29.2457328  24.7598024  22.6525192  28.8217328  23.6678024
  23.3775192  28.4977328  22.4588024  22.5455192  28.9697328  21.2388024
  22.4565192  30.3987328  21.2178024  23.1625192  28.4557328  19.9028024
  22.2555192  28.7067328  18.6768024  22.1445192  30.1077328  18.4178024
  23.3695192  27.0277328  19.9838024  24.2375192  26.5967328  21.0428024
  24.3625192  25.1897328  21.0008024  23.5645192  26.9657328  22.3788024
  24.3455192  26.4787328  23.4738024  23.8125192  32.6907328  23.8778024
  23.9775192  31.9457328  22.9238024  26.7975192  33.8487328  23.8268024
  25.8415192  31.9877328  26.1058024  26.6255192  35.6097328  25.3608024
  27.1345192  34.3197328  26.4748024  24.8735192  33.9257328  27.2198024
  23.7645192  36.2367328  27.6298024  21.6285192  31.3747328  23.5708024
  20.6975192  32.4327328  24.6218024  20.9665192  31.0117328  26.5048024
  20.5955192  29.9527328  25.1598024  23.2565192  30.3267328  26.6098024
  22.2715192  28.8817328  26.5068024  24.1185192  28.4277328  25.1158024
  24.1475192  30.0557328  24.4428024  24.3595192  28.9927328  22.4278024
  21.5355192  28.5417328  21.3268024  23.0855192  30.7767328  21.8758024
  24.1265192  28.9547328  19.7278024  22.6835192  28.1967328  17.8038024
  21.2655192  28.2687328  18.8628024  22.0775192  30.5457328  19.2928024
  25.2245192  27.0707328  20.9528024  24.5765192  24.9777328  21.9298024
  22.5685192  26.4967328  22.3778024  23.8465192  26.7337328  24.2748024
  29.5515192  39.3447328  30.5268024  28.4985192  38.7797328  30.2878024
  27.2335192  39.4227328  29.7208024  26.9315192  40.2807328  30.3348024
  26.1585192  38.3007328  29.7698024  25.4835192  38.2407328  28.3698024
  25.7485192  36.9557328  27.6098024  26.0355192  39.4467328  27.5828024
  27.3805192  39.8127328  28.2348024  27.8135192  41.2477328  27.9878024
  25.4165192  38.5307328  30.5458024  28.2405192  37.4247328  30.4618024
  29.2215192  36.5067328  31.0838024  30.4225192  36.1227328  30.1858024
  30.1175192  35.7607328  28.7098024  29.1145192  34.6127328  28.4768024
  29.4985192  33.4837328  29.2718024  28.6565192  32.3117328  29.1778024
  27.4415192  32.4347328  30.1418024  26.4415192  33.2757328  29.5528024
  26.7765192  31.0547328  30.4378024  25.7745192  31.1097328  31.6098024
  24.5665192  31.7467328  31.1978024  27.7705192  30.0657328  30.7738024
  28.7365192  29.8407328  29.7438024  29.6055192  28.7937328  30.1278024
  29.5615192  31.1257328  29.5718024  30.5505192  30.9307328  28.5558024
  26.9265192  37.0447328  30.2028024  26.4685192  35.9217328  30.3518024
  24.3975192  38.3617328  28.4908024  26.7845192  36.8007328  27.3128024
  25.3305192  40.2817328  27.6568024  26.1695192  39.2147328  26.5198024
  28.1355192  39.1497328  27.7868024  28.8285192  41.3457328  27.6018024
  28.7075192  35.5827328  31.3778024  29.5985192  36.9697328  32.0048024
  31.1255192  36.9637328  30.1828024  30.9515192  35.2897328  30.6598024
  29.7515192  36.6537328  28.1888024  31.0635192  35.4937328  28.2228024
  29.1265192  34.3487328  27.4128024  28.1085192  34.9567328  28.7328024
  28.2985192  32.1597328  28.1498024  27.8045192  32.8547328  31.0938024
  26.5815192  34.2067328  29.8518024  26.2345192  30.7217328  29.5418024
  25.5555192  30.0857328  31.9388024  26.2275192  31.6427328  32.4558024
  24.8195192  32.5207328  30.6538024  28.2365192  29.5857328  28.8048024
  30.4225192  29.0167328  29.6388024  30.0275192  31.3557328  30.5418024
  30.9455192  31.8157328  28.4098024  23.4785192  44.8307328  25.9768024
  24.6355192  44.4467328  25.9308024  25.8285192  45.1147328  26.5998024
  26.0145192  46.0687328  26.0928024  27.0205192  44.1657328  26.3548024
  27.5375192  43.7397328  27.7528024  27.0565192  42.3497328  28.1378024
  27.0205192  44.8457328  28.7078024  25.6685192  45.3087328  28.1218024
  25.2395192  46.7427328  28.3928024  27.8115192  44.6977328  25.8118024
  25.1045192  43.3657328  25.1948024  24.5355192  43.1297328  23.8448024
  23.2105192  42.3347328  23.7778024  23.1635192  41.0057328  24.5668024
  24.4275192  40.1317328  24.4878024  24.8585192  40.0157328  23.1198024
  26.1255192  39.3457328  22.9438024  26.9365192  40.0707328  21.8378024
  27.3315192  41.3757328  22.2738024  28.1985192  39.2477328  21.4338024
  28.9145192  39.8087328  20.1848024  29.5265192  41.0637328  20.4878024
  27.8145192  37.8897328  21.1228024  27.1695192  37.1787328  22.1888024
  26.8585192  35.8727328  21.7548024  25.8425192  37.8977328  22.4938024
  25.1095192  37.1937328  23.4988024  26.4555192  43.0767328  25.4348024
  27.0965192  42.1777328  24.9098024  28.6375192  43.7487328  27.7478024
  26.0335192  42.2857328  28.5018024  27.7335192  45.6817328  28.6938024
  26.9285192  44.4957328  29.7438024  24.8935192  44.6157328  28.4698024
  24.4845192  47.1027328  27.6908024  25.2775192  42.6087328  23.2318024
  24.3745192  44.1047328  23.3678024  22.3925192  42.9747328  24.1328024
  22.9955192  42.1247328  22.7228024  22.9745192  41.2337328  25.6198024
  22.3005192  40.4227328  24.2218024  24.2165192  39.1527328  24.9338024
  25.2075192  40.6067328  25.0888024  26.7155192  39.3387328  23.8718024
  26.2965192  40.1597328  20.9478024  27.2025192  41.4557328  23.2478024
  28.9145192  39.2427328  22.2668024  29.6775192  39.0907328  19.8558024
  28.1905192  39.9187328  19.3668024  28.8775192  41.5677328  21.0228024
  27.8135192  37.1407328  23.0778024  25.9915192  35.7247328  22.1748024
  25.2675192  37.9397328  21.5548024  24.3495192  37.7747328  23.7058024
  23.4715192  49.5347328  33.5648024  23.4985192  49.2877328  32.3718024
  24.1685192  50.1297328  31.2898024  23.6865192  51.1157328  31.2608024
  23.9035192  49.3717328  29.9638024  25.2845192  49.0657328  29.3178024
  25.7065192  47.6007328  29.3158024  26.2885192  49.9727328  30.0598024
  25.6995192  50.2437328  31.4568024  26.1315192  51.5817328  32.0298024
  23.3095192  50.0057328  29.2938024  22.8995192  48.1987328  31.7508024
  21.9195192  47.3457328  32.4578024  22.5255192  46.2837328  33.4078024
  23.8085192  45.5537328  32.9308024  23.7805192  44.9637328  31.5058024
  22.5045192  44.3437328  31.2648024  22.2795192  43.9427328  29.8958024
  20.7845192  44.1447328  29.5378024  20.4535192  45.5367328  29.5598024
  20.4635192  43.5387328  28.1348024  18.9515192  43.5147328  27.8168024
  18.4495192  44.8447328  27.6758024  20.9245192  42.1667328  28.0818024
  22.3295192  41.9987328  28.3098024  22.6705192  40.6297328  28.2398024
  22.6255192  42.4457328  29.7498024  23.9925192  42.1727328  30.0798024
  23.0435192  48.1717328  30.3628024  22.5085192  47.3827328  29.5998024
  25.2475192  49.3917328  28.2688024  26.4645192  47.3027328  30.0388024
  26.3685192  50.9187328  29.5128024  27.2955192  49.5397328  30.1158024
  26.0375192  49.4377328  32.1248024  26.6565192  51.5197328  32.9828024
  21.3055192  46.8257328  31.7148024  21.2425192  47.9897328  33.0318024
  22.7605192  46.7737328  34.3608024  21.7505192  45.5407328  33.6348024
  24.6575192  46.2447328  32.9988024  24.0215192  44.7427328  33.6388024
  24.6065192  44.2507328  31.3998024  23.9605192  45.7657328  30.7858024
  22.8745192  44.5437328  29.1958024  20.1755192  43.6117328  30.2828024
  21.2815192  46.0687328  29.5088024  20.9735192  44.1257328  27.3578024
  18.7905192  42.9527328  26.8868024  18.4195192  42.9847328  28.6188024
  18.8885192  45.3807328  28.3698024  22.9135192  42.5827328  27.5848024
  23.3745192  40.5957328  28.9158024  21.9525192  41.8787328  30.4118024
  24.1135192  42.5387328  30.9788024  26.9075192  57.2027328  28.4978024
  27.1125192  56.2527328  29.2338024  26.6975192  56.1377328  30.6928024
  27.0435192  57.0137328  31.2418024  27.4045192  54.8677328  31.2258024
  26.3485192  54.0977328  32.0678024  25.9095192  52.7787328  31.4578024
  25.1595192  55.0757328  32.1988024  25.1875192  55.9327328  30.9168024
  24.4305192  57.2597328  30.8588024  28.2595192  55.1597328  31.8508024
  27.8045192  55.0937328  28.9048024  28.6975192  55.0527328  27.7248024
  27.9915192  54.9227328  26.3538024  26.7705192  53.9707328  26.2818024
  26.9585192  52.5757328  26.9088024  28.2345192  52.0437328  26.5128024
  28.6105192  50.8227328  27.1838024  30.1385192  50.8357328  27.4448024
  30.4785192  51.8627328  28.3838024  30.6235192  49.4517328  27.9748024
  32.1625192  49.3397328  28.0538024  32.6585192  50.1437328  29.1258024
  30.1635192  48.4007328  27.0948024  28.7395192  48.3217328  26.9408024
  28.4135192  47.2757328  26.0528024  28.2595192  49.6237328  26.2778024
  26.8525192  49.5407328  26.0228024  27.9515192  54.1907328  29.9628024
  28.4875192  53.0937328  29.8928024  26.7635192  53.9077328  33.0688024
  25.3845192  52.8517328  30.5068024  25.3455192  55.7087328  33.0748024
  24.2035192  54.5527328  32.3358024  24.8125192  55.3037328  30.0978024
  24.5615192  57.7477328  29.8918024  29.3845192  54.2057328  27.8348024
  29.3145192  55.9607328  27.7218024  27.6565192  55.9197328  26.0428024
  28.7365192  54.6107328  25.6108024  25.9145192  54.4547328  26.7688024
  26.4915192  53.8477328  25.2288024  26.1335192  51.9257328  26.5938024
  26.9025192  52.6667328  27.9978024  28.1005192  50.7207328  28.1478024
  30.6485192  51.0287328  26.4898024  29.6695192  52.1727328  28.8508024
  30.2175192  49.2847328  28.9818024  32.4375192  48.2897328  28.2188024
  32.6035192  49.6517328  27.0978024  32.2195192  51.0167328  29.0488024
  28.2475192  48.1677328  27.9108024  27.6235192  47.6577328  25.6208024
  28.8175192  49.7357328  25.3348024  26.6165192  50.3717328  25.5618024
  23.9225192  61.8407328  34.6558024  24.1985192  60.6717328  34.4478024
  23.3165192  59.4647328  34.7568024  23.1545192  59.3987328  35.8408024
  24.1255192  58.2337328  34.2608024  23.2605192  57.5367328  33.1738024
  23.6655192  57.9197328  31.7558024  21.8275192  58.0247328  33.4778024
  21.9785192  59.4747328  33.9838024  20.8325192  60.0127328  34.8248024
  24.3105192  57.5507328  35.0998024  25.3765192  60.1997328  33.8828024
  26.5265192  61.0907328  33.6088024  26.3795192  61.9577328  32.3348024
  25.9475192  61.2207328  31.0408024  26.8535192  60.0587328  30.5868024
  28.2175192  60.5047328  30.5738024  29.1635192  59.5357328  30.0758024
  29.9725192  58.9357328  31.2548024  29.1265192  58.1227328  32.0738024
  31.1595192  58.0837328  30.7178024  32.0995192  57.5647328  31.8278024
  31.4255192  56.5867328  32.6228024  31.9535192  58.8977328  29.8298024
  31.2605192  59.3677328  28.6628024  32.1445192  60.1387328  27.8748024
  30.1065192  60.2847328  29.1138024  29.3675192  60.7277328  27.9708024
  25.4635192  58.8127328  33.7878024  26.4515192  58.1797328  33.4508024
  23.2735192  56.4517328  33.3068024  23.2505192  58.8737328  31.4308024
  21.4085192  57.3947328  34.2728024  21.1635192  57.9557328  32.6058024
  22.0955192  60.1327328  33.1108024  21.0215192  60.9937328  35.2628024
  27.4345192  60.4837328  33.5168024  26.6665192  61.7517328  34.4738024
  25.6385192  62.7397328  32.5378024  27.3275192  62.4797328  32.1568024
  24.9265192  60.8407328  31.1648024  25.8995192  61.9567328  30.2288024
  26.5415192  59.7317328  29.5858024  26.7305192  59.2127328  31.2658024
  28.6685192  58.7297328  29.5158024  30.3925192  59.7647328  31.8428024
  28.3695192  58.6617328  32.3838024  30.7695192  57.2167328  30.1668024
  32.9915192  57.1217328  31.3648024  32.4335192  58.4077328  32.4478024
  30.5255192  56.9397328  32.7828024  30.8755192  58.5217328  28.0788024
  31.5295192  60.6697328  27.3308024  30.5495192  61.1397328  29.6478024
  28.5525192  61.1407328  28.3198024  19.6565192  59.4057328  35.0568024
  19.3955192  58.4347328  34.6388024  18.8965192  59.8827328  35.6758024
  50.7961150  77.1827310  46.6221600  50.7155200  76.2681920  46.3513310
  50.3825570  77.6794380  45.9161310  48.9279190  78.9606330  48.5030870
  48.1521290  78.4806770  48.7929440  49.5792120  78.2811980  48.3287030
  41.3536970  74.2328030  43.1649020  40.4653670  74.5744000  43.0628900
  41.6378160  74.0328350  42.2729850  39.3169980  76.8333680  49.0488720
  39.8886090  76.0655880  49.0492360  39.3171520  77.1322440  48.1395330
  40.5594850  72.2418040  50.8357650  40.3797690  71.3443790  51.1160410
  40.1574930  72.7889910  51.5104600  49.3993350  74.4433900  48.7369960
  49.7758170  73.5705780  48.6243630  49.3012860  74.7792600  47.8460400
  43.5298360  72.8159530  44.1987400  43.6365110  73.7163260  44.5056160
  42.6190720  72.7677500  43.9082050  53.1817470  71.9384340  45.6698300
  54.0027090  71.4480910  45.7123780  53.2151550  72.5282000  46.4230140
  41.1781520  74.7378540  49.4439990  41.8591630  75.0016910  50.0627390
  40.8629570  73.8979410  49.7778000  45.3706090  75.7845900  48.5312580
  45.8784310  76.2826870  49.1717600  45.9019330  75.0081100  48.3551940
  43.6542190  70.4244460  52.7976000  43.6560630  70.9416850  51.9921900
  42.8246500  69.9474640  52.7745930  53.4178950  73.8784720  48.4425840
  52.7134520  74.1669610  49.0228950  53.7791110  74.6884830  48.0825400
  43.3357520  72.1354420  50.8046450  43.6774330  72.9796470  50.5100320
  42.3973330  72.2838160  50.9211790  56.4865870  73.3239510  48.8335050
  55.5390780  73.3578490  48.9650480  56.8115860  74.1378460  49.2184410
  47.0185410  69.6236690  47.1291040  47.3260390  69.0683580  46.4126540
  46.0886110  69.7581150  46.9464030  49.4066170  77.6885520  43.8651160
  48.4795450  77.6222900  44.0939630  49.5590990  78.6265650  43.7506400
  49.3935250  73.9602520  40.8618320  48.4538920  74.1216480  40.9470780
  49.7118510  74.6788200  40.3154310  52.8790020  75.4290360  51.7852220
  52.4661200  76.2544070  52.0392210  52.1465970  74.8435400  51.5928580
  45.0122810  78.2150260  46.6470890  44.6079810  77.5027510  46.1516790
  45.0985930  77.8703500  47.5358930  43.7251430  74.9893470  50.4269930
  44.2766020  75.0988810  49.6523180  44.2394940  75.3631070  51.1425160
  51.6128160  78.4892630  41.3759160  52.0521440  77.6515060  41.2296980
  52.3256580  79.1222030  41.4623300  55.1945300  69.7435440  39.6900200
  54.8817960  69.8362270  40.5899270  55.9557770  70.3216470  39.6397630
  41.7127440  77.1095240  44.1477540  41.5925040  77.8357330  43.5358810
  41.4028330  76.3398150  43.6705450  56.4046590  74.4806940  55.6674340
  55.7890860  74.9886610  55.1389800  56.0843010  73.5805270  55.6100280
  44.1791100  70.4530310  47.5301210  43.7359250  71.2339850  47.1985730
  44.7376090  70.7760200  48.2372150  48.4660910  73.3198830  53.1336530
  48.0040280  73.5281850  53.9456470  48.0639020  72.5058180  52.8307200
  53.4665420  74.5407780  54.2633190  52.6159010  74.2413530  54.5842260
  53.3067210  74.7849790  53.3517010  50.5615130  76.0409530  56.3631980
  50.8868540  75.2073280  56.0234210  51.3495460  76.5638050  56.5110310
  47.2949920  70.0741010  42.4107040  46.6704100  70.0700880  43.1360350
  47.2080040  69.2071970  42.0143010  46.2167000  70.9977640  49.3890810
  46.5139330  71.9040470  49.3082830  46.7652560  70.5096420  48.7750380
  43.9705320  75.5763880  45.2582460  43.7446240  75.3601050  46.1629080
  43.1897850  76.0092340  44.9128430  51.2003080  75.5827250  43.8573110
  50.6011970  76.3063050  43.6736730  51.7482690  75.5204030  43.0749560
  46.4104530  76.4749460  55.9242730  46.3148130  75.5344190  55.7743130
  47.2536510  76.6964530  55.5290800  49.8067950  74.2190790  45.8876390
  50.1997520  74.5362990  45.0745080  50.1684800  73.3402670  46.0020910
  41.5415070  72.8863130  54.0776510  41.1478460  73.7338340  54.2849290
  40.8533470  72.2489500  54.2685150  38.8432120  70.8091590  48.1106590
  38.5545170  71.3794450  48.8231570  39.5877880  70.3296040  48.4737820
  39.0302350  74.7511710  39.3209310  38.9477020  75.6942470  39.4624300
  38.6785410  74.6086620  38.4421660  50.3923090  76.8096540  49.9827170
  49.6604210  77.3183350  50.3317270  49.9947430  75.9926520  49.6815950
  46.8300480  73.4850740  48.3879660  46.8336540  73.0440690  47.5384200
  47.7251600  73.8068070  48.4951480  42.6802860  73.3677230  47.3473870
  42.3402910  73.8452460  48.1040920  41.9180180  72.9142350  46.9874970
  46.8920630  74.4862820  41.3786420  47.0133450  74.4449300  42.3272240
  46.5069140  75.3486970  41.2233150  50.8549000  72.2630220  49.3950110
  50.8721740  72.7138870  50.2391960  50.6064580  71.3635860  49.6083550
  45.9042130  76.7963960  40.7769720  45.3359030  76.3482210  40.1505630
  46.6131130  77.1556740  40.2434870  54.2819750  69.6762400  55.2336490
  54.6065520  68.9452060  55.7594470  54.3176260  69.3576040  54.3317480
  47.1308450  77.5452520  50.1345070  47.4978580  77.0711090  50.8806410
  46.9413510  78.4194090  50.4753410  39.9948940  72.2896210  46.2638540
  39.7095860  71.9251880  47.1017160  39.9327800  71.5576670  45.6501680
  44.9207820  76.5861160  52.4529280  44.6164890  77.4653140  52.6779640
  45.8754280  76.6460950  52.4886720  49.6687530  71.1825470  42.9851910
  48.8552140  70.6838640  42.9097220  49.4749480  72.0223720  42.5688260
  52.3835920  75.5545120  41.2814070  53.2715540  75.8662350  41.1065410
  52.3541010  74.6817370  40.8894650  40.9771550  77.4263900  53.6000640
  40.6186490  78.0917750  54.1873980  40.6826110  76.5947450  53.9713260
  44.1784670  77.8848140  56.4840190  43.8784810  78.0305320  55.5868010
  44.9495910  77.3253430  56.3913580  54.6550190  76.8656960  40.7493930
  54.5713910  77.2971180  39.8990370  55.3744380  77.3255310  41.1820750
  39.4879600  77.4255160  40.2235240  40.3574450  77.7079960  40.5071160
  38.9969920  78.2391030  40.1084050  42.5526190  69.1566020  44.8166040
  42.4240820  69.1483920  45.7650960  41.7288210  69.4949110  44.4657050
  39.5520120  70.9157140  54.2772740  38.8378640  71.1154060  54.8825350
  39.9715160  70.1396710  54.6487540  51.0458900  73.4079450  52.0274190
  51.4139720  72.5874660  52.3553760  50.1857100  73.4681340  52.4429840
  54.4120930  72.3636390  42.8361750  53.7834090  72.4682060  42.1219980
  53.9172850  72.5833170  43.6255630  46.3804960  74.6422340  44.2519630
  45.6721110  75.1108680  44.6933240  46.6649440  73.9844350  44.8864820
  48.0060890  76.0619040  52.2512160  48.5046140  76.5364860  52.9164010
  48.1483840  75.1382560  52.4582190  50.4120390  71.3673000  45.6915420
  50.2888170  71.3859130  44.7424930  51.3604950  71.4151940  45.8113820
  44.5839980  72.9507420  41.6270340  45.4330510  73.3877570  41.5610530
  44.2171250  73.2627680  42.4542400  55.2127750  72.2787000  53.0940550
  54.7101350  73.0192400  53.4334360  56.0284410  72.6671000  52.7777340
  53.5049760  77.5220180  46.5401910  52.5639900  77.5370410  46.7149600
  53.8193830  76.7356140  46.9862210  42.1778160  76.6364850  40.7838760
  42.2581750  75.6892360  40.8956160  43.0697910  76.9671730  40.8899420
  39.7048960  78.4579770  56.0194930  40.2087980  77.8787050  56.5911160
  38.9656380  78.7420000  56.5571300  43.6777850  75.1801460  54.8819490
  43.1474310  74.6892410  54.2542830  44.3465920  75.6085660  54.3477420
  48.0278070  78.2242520  39.3225610  48.5483730  77.5091540  38.9566760
  48.6746470  78.8628390  39.6226120  53.0478080  76.9867080  56.6499830
  53.6298850  76.2319400  56.5620310  53.2239850  77.5174520  55.8731310
  44.1650150  72.1463830  54.9616780  44.0707020  71.5284580  54.2367650
  43.5847540  72.8730120  54.7346690  46.9311590  70.7037070  51.9944170
  46.4828890  70.7261330  51.1489720  46.2976790  70.3056090  52.5914470
  49.6735040  77.3307580  53.9994450  49.7931250  76.7348720  54.7389290
  50.5329040  77.3677270  53.5795750  52.0122940  77.8844770  52.5756960
  51.4858160  78.4087390  51.9722100  52.3554280  78.5172160  53.2066690
  44.4109330  75.2738140  39.0206670  44.2098390  74.4105500  39.3820010
  44.2401380  75.1871500  38.0828270  46.4403810  73.8728930  55.2570270
  47.0303500  73.5644780  55.9448090  45.6224050  73.4008680  55.4130170
  51.2597240  73.4894740  55.4903290  50.5712760  72.8276280  55.4253280
  51.9803260  73.0433010  55.9351750  51.8897640  70.0846370  41.5493550
  52.1699930  69.2414270  41.9052970  51.1163370  70.3169480  42.0632300
  43.2092130  72.3738760  39.0084550  43.5118030  72.3806190  38.1003700
  43.9486720  72.0236620  39.5052210  46.4277060  71.3173380  39.9940750
  46.0799060  70.6397370  39.4143200  46.6289830  70.8562890  40.8084140
  39.7682700  77.8461030  46.3905120  39.1131540  77.5772670  45.7464820
  40.6060650  77.7365510  45.9407100  52.7173140  72.6402320  40.6123610
  53.1358020  72.4533300  39.7720270  52.4109200  71.7881370  40.9226540
  56.2162870  77.5526460  44.3099410  55.8406470  76.7854390  43.8780700
  55.4865990  77.9349160  44.7974340  40.8058630  78.2313600  50.9308460
  41.1731670  78.1441000  51.8104480  40.2369450  77.4680150  50.8315320
  55.6062490  76.6997980  53.9438930  55.3748580  76.4710730  53.0436880
  55.8667040  77.6197530  53.8983820  40.3574630  75.1422690  54.8366880
  39.4630680  75.1089450  55.1760590  40.8972180  75.3409480  55.6018130
  54.0450560  71.9254410  56.7218630  54.9220740  71.9337810  57.1052630
  54.0571400  71.1885250  56.1110980  38.9820780  75.0559960  42.3330450
  38.0784860  75.3190160  42.1582110  39.4661400  75.3271130  41.5530410
  55.4913830  75.7783950  47.6106650  56.0151310  75.2846600  46.9796820
  56.0773250  75.9134310  48.3554220  55.6703550  75.8623820  51.1326200
  54.7206260  75.8287360  51.2471190  55.8516560  76.7723930  50.8975970
  41.5247990  74.1125500  40.2424830  42.2339690  73.6908720  39.7572110
  40.8087930  74.1800730  39.6108180  41.1722150  70.1664830  39.2827480
  41.8950280  70.7073770  39.6008700  41.4446670  69.8928250  38.4069020
  54.9813800  75.0357300  43.5499060  55.4772920  74.8028170  44.3347940
  54.7829870  74.1969140  43.1336700  40.8614340  69.4171020  49.1850100
  41.5090530  68.8668400  48.7445260  41.2816180  69.6714170  50.0065910
  54.7566680  69.6112380  52.5419740  55.3938900  70.2246520  52.9078930
  54.9041570  69.6473040  51.5968970  40.6146340  69.5726690  51.9275420
  40.2661160  70.0290510  52.6933600  40.2834040  68.6783820  52.0097850
  48.1271160  70.7638570  55.4494840  48.0660050  71.3560400  56.1990250
  49.0671540  70.6564530  55.3045100  50.7645720  70.4208630  55.0887130
  51.3786130  70.7387920  54.4268210  51.3095280  69.9357220  55.7082990
  41.2866980  69.1002890  55.2026190  41.8349970  68.9190940  54.4392300
  41.3522290  68.3097000  55.7382500  51.5053760  68.9840770  51.4156420
  50.6313600  69.3175880  51.2129350  51.3964510  68.5113950  52.2408290
  52.4125740  71.1911640  52.7998140  52.0839100  70.3763400  52.4199870
  53.3608040  71.1481450  52.6763830  49.2528580  69.9010610  50.3549330
  48.4700370  70.3756110  50.6346090  48.9591510  68.9965440  50.2462510
  53.8049650  70.6033710  48.3998420  54.2457740  70.5478810  47.5520020
  53.5357240  71.5191720  48.4708600  55.6688220  70.2348950  46.4107240
  55.6076620  69.2910170  46.2638260  56.4480250  70.3429040  46.9560700
  40.5968990  70.2058090  42.8763050  41.3548350  70.3186970  42.3027080
  40.1346160  71.0427290  42.8306480  47.1382800  72.3197360  45.8665360
  46.3257310  71.9454250  45.5261240  47.6424440  71.5642440  46.1686550
  51.6407780  68.9839810  47.1048430  52.2437150  69.5560020  47.5796950
  50.9000770  69.5479250  46.8822330  54.7842380  69.3861370  42.3788710
  54.9793010  70.2844820  42.6456140  53.9972250  69.1548450  42.8721660
  42.9694140  70.7322140  41.4165020  43.4986900  69.9451940  41.2872970
  43.6022460  71.4113330  41.6500550  45.1631980  70.4697280  44.4710410
  44.5334720  69.7684590  44.6380540  44.6237120  71.2301410  44.2543570
  45.2887540  69.7481260  56.9062900  45.0071810  70.2514860  56.1423720
  45.6707240  68.9503010  56.5405030  50.7961150  77.1827310  27.8478110
  50.7155200  76.2681920  27.5769820  50.3825570  77.6794380  27.1417820
  48.9279190  78.9606330  29.7287380  48.1521290  78.4806770  30.0185950
  49.5792120  78.2811980  29.5543540  41.3536970  74.2328030  24.3905530
  40.4653670  74.5744000  24.2885410  41.6378160  74.0328350  23.4986360
  39.3169980  76.8333680  30.2745230  39.8886090  76.0655880  30.2748870
  39.3171520  77.1322440  29.3651840  40.5594850  72.2418040  32.0614160
  40.3797690  71.3443790  32.3416920  40.1574930  72.7889910  32.7361110
  49.3993350  74.4433900  29.9626470  49.7758170  73.5705780  29.8500140
  49.3012860  74.7792600  29.0716910  43.5298360  72.8159530  25.4243910
  43.6365110  73.7163260  25.7312670  42.6190720  72.7677500  25.1338560
  53.1817470  71.9384340  26.8954810  54.0027090  71.4480910  26.9380290
  53.2151550  72.5282000  27.6486650  41.1781520  74.7378540  30.6696500
  41.8591630  75.0016910  31.2883900  40.8629570  73.8979410  31.0034510
  45.3706090  75.7845900  29.7569090  45.8784310  76.2826870  30.3974110
  45.9019330  75.0081100  29.5808450  43.6542190  70.4244460  34.0232510
  43.6560630  70.9416850  33.2178410  42.8246500  69.9474640  34.0002440
  53.4178950  73.8784720  29.6682350  52.7134520  74.1669610  30.2485460
  53.7791110  74.6884830  29.3081910  43.3357520  72.1354420  32.0302960
  43.6774330  72.9796470  31.7356830  42.3973330  72.2838160  32.1468300
  56.4865870  73.3239510  30.0591560  55.5390780  73.3578490  30.1906990
  56.8115860  74.1378460  30.4440920  47.0185410  69.6236690  28.3547550
  47.3260390  69.0683580  27.6383050  46.0886110  69.7581150  28.1720540
  49.4066170  77.6885520  25.0907670  48.4795450  77.6222900  25.3196140
  49.5590990  78.6265650  24.9762910  49.3935250  73.9602520  22.0874830
  48.4538920  74.1216480  22.1727290  49.7118510  74.6788200  21.5410820
  52.8790020  75.4290360  33.0108730  52.4661200  76.2544070  33.2648720
  52.1465970  74.8435400  32.8185090  45.0122810  78.2150260  27.8727400
  44.6079810  77.5027510  27.3773300  45.0985930  77.8703500  28.7615440
  43.7251430  74.9893470  31.6526440  44.2766020  75.0988810  30.8779690
  44.2394940  75.3631070  32.3681670  51.6128160  78.4892630  22.6015670
  52.0521440  77.6515060  22.4553490  52.3256580  79.1222030  22.6879810
  55.1945300  69.7435440  20.9156710  54.8817960  69.8362270  21.8155780
  55.9557770  70.3216470  20.8654140  41.7127440  77.1095240  25.3734050
  41.5925040  77.8357330  24.7615320  41.4028330  76.3398150  24.8961960
  56.4046590  74.4806940  36.8930850  55.7890860  74.9886610  36.3646310
  56.0843010  73.5805270  36.8356790  44.1791100  70.4530310  28.7557720
  43.7359250  71.2339850  28.4242240  44.7376090  70.7760200  29.4628660
  48.4660910  73.3198830  34.3593040  48.0040280  73.5281850  35.1712980
  48.0639020  72.5058180  34.0563710  53.4665420  74.5407780  35.4889700
  52.6159010  74.2413530  35.8098770  53.3067210  74.7849790  34.5773520
  50.5615130  76.0409530  37.5888490  50.8868540  75.2073280  37.2490720
  51.3495460  76.5638050  37.7366820  47.2949920  70.0741010  23.6363550
  46.6704100  70.0700880  24.3616860  47.2080040  69.2071970  23.2399520
  46.2167000  70.9977640  30.6147320  46.5139330  71.9040470  30.5339340
  46.7652560  70.5096420  30.0006890  43.9705320  75.5763880  26.4838970
  43.7446240  75.3601050  27.3885590  43.1897850  76.0092340  26.1384940
  51.2003080  75.5827250  25.0829620  50.6011970  76.3063050  24.8993240
  51.7482690  75.5204030  24.3006070  46.4104530  76.4749460  37.1499240
  46.3148130  75.5344190  36.9999640  47.2536510  76.6964530  36.7547310
  49.8067950  74.2190790  27.1132900  50.1997520  74.5362990  26.3001590
  50.1684800  73.3402670  27.2277420  41.5415070  72.8863130  35.3033020
  41.1478460  73.7338340  35.5105800  40.8533470  72.2489500  35.4941660
  48.1160120  72.9698100  38.3729760  47.4258440  72.7770300  39.0075850
  48.8592420  73.2532740  38.9054060  38.8432120  70.8091590  29.3363100
  38.5545170  71.3794450  30.0488080  39.5877880  70.3296040  29.6994330
  39.0302350  74.7511710  20.5465820  38.9477020  75.6942470  20.6880810
  38.6785410  74.6086620  19.6678170  50.3923090  76.8096540  31.2083680
  49.6604210  77.3183350  31.5573780  49.9947430  75.9926520  30.9072460
  46.8300480  73.4850740  29.6136170  46.8336540  73.0440690  28.7640710
  47.7251600  73.8068070  29.7207990  42.6802860  73.3677230  28.5730380
  42.3402910  73.8452460  29.3297430  41.9180180  72.9142350  28.2131480
  46.8920630  74.4862820  22.6042930  47.0133450  74.4449300  23.5528750
  46.5069140  75.3486970  22.4489660  50.8549000  72.2630220  30.6206620
  50.8721740  72.7138870  31.4648470  50.6064580  71.3635860  30.8340060
  45.9042130  76.7963960  22.0026230  45.3359030  76.3482210  21.3762140
  46.6131130  77.1556740  21.4691380  54.2819750  69.6762400  36.4593000
  54.6065520  68.9452060  36.9850980  54.3176260  69.3576040  35.5573990
  47.1308450  77.5452520  31.3601580  47.4978580  77.0711090  32.1062920
  46.9413510  78.4194090  31.7009920  39.9948940  72.2896210  27.4895050
  39.7095860  71.9251880  28.3273670  39.9327800  71.5576670  26.8758190
  44.9207820  76.5861160  33.6785790  44.6164890  77.4653140  33.9036150
  45.8754280  76.6460950  33.7143230  49.6687530  71.1825470  24.2108420
  48.8552140  70.6838640  24.1353730  49.4749480  72.0223720  23.7944770
  52.3835920  75.5545120  22.5070580  53.2715540  75.8662350  22.3321920
  52.3541010  74.6817370  22.1151160  40.9771550  77.4263900  34.8257150
  40.6186490  78.0917750  35.4130490  40.6826110  76.5947450  35.1969770
  44.1784670  77.8848140  37.7096700  43.8784810  78.0305320  36.8124520
  44.9495910  77.3253430  37.6170090  54.6550190  76.8656960  21.9750440
  54.5713910  77.2971180  21.1246880  55.3744380  77.3255310  22.4077260
  39.4879600  77.4255160  21.4491750  40.3574450  77.7079960  21.7327670
  38.9969920  78.2391030  21.3340560  42.5526190  69.1566020  26.0422550
  42.4240820  69.1483920  26.9907470  41.7288210  69.4949110  25.6913560
  39.5520120  70.9157140  35.5029250  38.8378640  71.1154060  36.1081860
  39.9715160  70.1396710  35.8744050  51.0458900  73.4079450  33.2530700
  51.4139720  72.5874660  33.5810270  50.1857100  73.4681340  33.6686350
  54.4120930  72.3636390  24.0618260  53.7834090  72.4682060  23.3476490
  53.9172850  72.5833170  24.8512140  46.3804960  74.6422340  25.4776140
  45.6721110  75.1108680  25.9189750  46.6649440  73.9844350  26.1121330
  48.0060890  76.0619040  33.4768670  48.5046140  76.5364860  34.1420520
  48.1483840  75.1382560  33.6838700  50.4120390  71.3673000  26.9171930
  50.2888170  71.3859130  25.9681440  51.3604950  71.4151940  27.0370330
  44.5839980  72.9507420  22.8526850  45.4330510  73.3877570  22.7867040
  44.2171250  73.2627680  23.6798910  55.2127750  72.2787000  34.3197060
  54.7101350  73.0192400  34.6590870  56.0284410  72.6671000  34.0033850
  53.5049760  77.5220180  27.7658420  52.5639900  77.5370410  27.9406110
  53.8193830  76.7356140  28.2118720  42.1778160  76.6364850  22.0095270
  42.2581750  75.6892360  22.1212670  43.0697910  76.9671730  22.1155930
  39.7048960  78.4579770  37.2451440  40.2087980  77.8787050  37.8167670
  38.9656380  78.7420000  37.7827810  41.7372040  76.6009360  38.1401510
  41.7777380  76.3023230  39.0486740  42.5917540  77.0016970  37.9809030
  43.6777850  75.1801460  36.1076000  43.1474310  74.6892410  35.4799340
  44.3465920  75.6085660  35.5733930  48.0278070  78.2242520  20.5482120
  48.5483730  77.5091540  20.1823270  48.6746470  78.8628390  20.8482630
  53.0478080  76.9867080  37.8756340  53.6298850  76.2319400  37.7876820
  53.2239850  77.5174520  37.0987820  44.1650150  72.1463830  36.1873290
  44.0707020  71.5284580  35.4624160  43.5847540  72.8730120  35.9603200
  46.9311590  70.7037070  33.2200680  46.4828890  70.7261330  32.3746230
  46.2976790  70.3056090  33.8170980  49.6735040  77.3307580  35.2250960
  49.7931250  76.7348720  35.9645800  50.5329040  77.3677270  34.8052260
  52.0122940  77.8844770  33.8013470  51.4858160  78.4087390  33.1978610
  52.3554280  78.5172160  34.4323200  44.4109330  75.2738140  20.2463180
  44.2098390  74.4105500  20.6076520  44.2401380  75.1871500  19.3084780
  46.4403810  73.8728930  36.4826780  47.0303500  73.5644780  37.1704600
  45.6224050  73.4008680  36.6386680  51.2597240  73.4894740  36.7159800
  50.5712760  72.8276280  36.6509790  51.9803260  73.0433010  37.1608260
  51.8897640  70.0846370  22.7750060  52.1699930  69.2414270  23.1309480
  51.1163370  70.3169480  23.2888810  43.2092130  72.3738760  20.2341060
  43.5118030  72.3806190  19.3260210  43.9486720  72.0236620  20.7308720
  46.4277060  71.3173380  21.2197260  46.0799060  70.6397370  20.6399710
  46.6289830  70.8562890  22.0340650  39.7682700  77.8461030  27.6161630
  39.1131540  77.5772670  26.9721330  40.6060650  77.7365510  27.1663610
  52.7173140  72.6402320  21.8380120  53.1358020  72.4533300  20.9976780
  52.4109200  71.7881370  22.1483050  56.2162870  77.5526460  25.5355920
  55.8406470  76.7854390  25.1037210  55.4865990  77.9349160  26.0230850
  40.8058630  78.2313600  32.1564970  41.1731670  78.1441000  33.0360990
  40.2369450  77.4680150  32.0571830  55.6062490  76.6997980  35.1695440
  55.3748580  76.4710730  34.2693390  55.8667040  77.6197530  35.1240330
  40.3574630  75.1422690  36.0623390  39.4630680  75.1089450  36.4017100
  40.8972180  75.3409480  36.8274640  54.0450560  71.9254410  37.9475140
  54.9220740  71.9337810  38.3309140  54.0571400  71.1885250  37.3367490
  38.9820780  75.0559960  23.5586960  38.0784860  75.3190160  23.3838620
  39.4661400  75.3271130  22.7786920  55.4913830  75.7783950  28.8363160
  56.0151310  75.2846600  28.2053330  56.0773250  75.9134310  29.5810730
  55.6703550  75.8623820  32.3582710  54.7206260  75.8287360  32.4727700
  55.8516560  76.7723930  32.1232480  41.5247990  74.1125500  21.4681340
  42.2339690  73.6908720  20.9828620  40.8087930  74.1800730  20.8364690
  41.1722150  70.1664830  20.5083990  41.8950280  70.7073770  20.8265210
  41.4446670  69.8928250  19.6325530  54.9813800  75.0357300  24.7755570
  55.4772920  74.8028170  25.5604450  54.7829870  74.1969140  24.3593210
  40.8614340  69.4171020  30.4106610  41.5090530  68.8668400  29.9701770
  41.2816180  69.6714170  31.2322420  54.7566680  69.6112380  33.7676250
  55.3938900  70.2246520  34.1335440  54.9041570  69.6473040  32.8225480
  40.6146340  69.5726690  33.1531930  40.2661160  70.0290510  33.9190110
  40.2834040  68.6783820  33.2354360  48.1271160  70.7638570  36.6751350
  48.0660050  71.3560400  37.4246760  49.0671540  70.6564530  36.5301610
  50.7645720  70.4208630  36.3143640  51.3786130  70.7387920  35.6524720
  51.3095280  69.9357220  36.9339500  41.2866980  69.1002890  36.4282700
  41.8349970  68.9190940  35.6648810  41.3522290  68.3097000  36.9639010
  51.5053760  68.9840770  32.6412930  50.6313600  69.3175880  32.4385860
  51.3964510  68.5113950  33.4664800  52.4125740  71.1911640  34.0254650
  52.0839100  70.3763400  33.6456380  53.3608040  71.1481450  33.9020340
  49.2528580  69.9010610  31.5805840  48.4700370  70.3756110  31.8602600
  48.9591510  68.9965440  31.4719020  53.8049650  70.6033710  29.6254930
  54.2457740  70.5478810  28.7776530  53.5357240  71.5191720  29.6965110
  55.6688220  70.2348950  27.6363750  55.6076620  69.2910170  27.4894770
  56.4480250  70.3429040  28.1817210  40.5968990  70.2058090  24.1019560
  41.3548350  70.3186970  23.5283590  40.1346160  71.0427290  24.0562990
  47.1382800  72.3197360  27.0921870  46.3257310  71.9454250  26.7517750
  47.6424440  71.5642440  27.3943060  51.6407780  68.9839810  28.3304940
  52.2437150  69.5560020  28.8053460  50.9000770  69.5479250  28.1078840
  54.7842380  69.3861370  23.6045220  54.9793010  70.2844820  23.8712650
  53.9972250  69.1548450  24.0978170  42.9694140  70.7322140  22.6421530
  43.4986900  69.9451940  22.5129480  43.6022460  71.4113330  22.8757060
  45.1631980  70.4697280  25.6966920  44.5334720  69.7684590  25.8637050
  44.6237120  71.2301410  25.4800080  45.2887540  69.7481260  38.1319410
  45.0071810  70.2514860  37.3680230  45.6707240  68.9503010  37.7661540
  51.8903000  69.1634840  38.7099880  51.7768450  69.4829450  39.6051400
  52.7072740  69.5647350  38.4137160  50.7961150  77.1827310   9.0734620
  50.7155200  76.2681920   8.8026330  50.3825570  77.6794380   8.3674330
  48.9279190  78.9606330  10.9543890  48.1521290  78.4806770  11.2442460
  49.5792120  78.2811980  10.7800050  41.3536970  74.2328030   5.6162040
  40.4653670  74.5744000   5.5141920  41.6378160  74.0328350   4.7242870
  39.3169980  76.8333680  11.5001740  39.8886090  76.0655880  11.5005380
  39.3171520  77.1322440  10.5908350  40.5594850  72.2418040  13.2870670
  40.3797690  71.3443790  13.5673430  40.1574930  72.7889910  13.9617620
  49.3993350  74.4433900  11.1882980  49.7758170  73.5705780  11.0756650
  49.3012860  74.7792600  10.2973420  43.5298360  72.8159530   6.6500420
  43.6365110  73.7163260   6.9569180  42.6190720  72.7677500   6.3595070
  53.1817470  71.9384340   8.1211320  54.0027090  71.4480910   8.1636800
  53.2151550  72.5282000   8.8743160  41.1781520  74.7378540  11.8953010
  41.8591630  75.0016910  12.5140410  40.8629570  73.8979410  12.2291020
  45.3706090  75.7845900  10.9825600  45.8784310  76.2826870  11.6230620
  45.9019330  75.0081100  10.8064960  43.6542190  70.4244460  15.2489020
  43.6560630  70.9416850  14.4434920  42.8246500  69.9474640  15.2258950
  53.4178950  73.8784720  10.8938860  52.7134520  74.1669610  11.4741970
  53.7791110  74.6884830  10.5338420  43.3357520  72.1354420  13.2559470
  43.6774330  72.9796470  12.9613340  42.3973330  72.2838160  13.3724810
  56.4865870  73.3239510  11.2848070  55.5390780  73.3578490  11.4163500
  56.8115860  74.1378460  11.6697430  47.0185410  69.6236690   9.5804060
  47.3260390  69.0683580   8.8639560  46.0886110  69.7581150   9.3977050
  49.4066170  77.6885520   6.3164180  48.4795450  77.6222900   6.5452650
  49.5590990  78.6265650   6.2019420  49.3935250  73.9602520   3.3131340
  48.4538920  74.1216480   3.3983800  49.7118510  74.6788200   2.7667330
  52.8790020  75.4290360  14.2365240  52.4661200  76.2544070  14.4905230
  52.1465970  74.8435400  14.0441600  45.0122810  78.2150260   9.0983910
  44.6079810  77.5027510   8.6029810  45.0985930  77.8703500   9.9871950
  43.7251430  74.9893470  12.8782950  44.2766020  75.0988810  12.1036200
  44.2394940  75.3631070  13.5938180  51.6128160  78.4892630   3.8272180
  52.0521440  77.6515060   3.6810000  52.3256580  79.1222030   3.9136320
  55.1945300  69.7435440   2.1413220  54.8817960  69.8362270   3.0412290
  55.9557770  70.3216470   2.0910650  41.7127440  77.1095240   6.5990560
  41.5925040  77.8357330   5.9871830  41.4028330  76.3398150   6.1218470
  56.4046590  74.4806940  18.1187360  55.7890860  74.9886610  17.5902820
  56.0843010  73.5805270  18.0613300  44.1791100  70.4530310   9.9814230
  43.7359250  71.2339850   9.6498750  44.7376090  70.7760200  10.6885170
  48.4660910  73.3198830  15.5849550  48.0040280  73.5281850  16.3969490
  48.0639020  72.5058180  15.2820220  53.4665420  74.5407780  16.7146210
  52.6159010  74.2413530  17.0355280  53.3067210  74.7849790  15.8030030
  50.5615130  76.0409530  18.8145000  50.8868540  75.2073280  18.4747230
  51.3495460  76.5638050  18.9623330  47.2949920  70.0741010   4.8620060
  46.6704100  70.0700880   5.5873370  47.2080040  69.2071970   4.4656030
  46.2167000  70.9977640  11.8403830  46.5139330  71.9040470  11.7595850
  46.7652560  70.5096420  11.2263400  43.9705320  75.5763880   7.7095480
  43.7446240  75.3601050   8.6142100  43.1897850  76.0092340   7.3641450
  51.2003080  75.5827250   6.3086130  50.6011970  76.3063050   6.1249750
  51.7482690  75.5204030   5.5262580  46.4104530  76.4749460  18.3755750
  46.3148130  75.5344190  18.2256150  47.2536510  76.6964530  17.9803820
  49.8067950  74.2190790   8.3389410  50.1997520  74.5362990   7.5258100
  50.1684800  73.3402670   8.4533930  41.5415070  72.8863130  16.5289530
  41.1478460  73.7338340  16.7362310  40.8533470  72.2489500  16.7198170
  48.1160120  72.9698100  19.5986270  47.4258440  72.7770300  20.2332360
  48.8592420  73.2532740  20.1310570  38.8432120  70.8091590  10.5619610
  38.5545170  71.3794450  11.2744590  39.5877880  70.3296040  10.9250840
  50.3923090  76.8096540  12.4340190  49.6604210  77.3183350  12.7830290
  49.9947430  75.9926520  12.1328970  46.8300480  73.4850740  10.8392680
  46.8336540  73.0440690   9.9897220  47.7251600  73.8068070  10.9464500
  42.6802860  73.3677230   9.7986890  42.3402910  73.8452460  10.5553940
  41.9180180  72.9142350   9.4387990  46.8920630  74.4862820   3.8299440
  47.0133450  74.4449300   4.7785260  46.5069140  75.3486970   3.6746170
  50.8549000  72.2630220  11.8463130  50.8721740  72.7138870  12.6904980
  50.6064580  71.3635860  12.0596570  45.9042130  76.7963960   3.2282740
  45.3359030  76.3482210   2.6018650  46.6131130  77.1556740   2.6947890
  54.2819750  69.6762400  17.6849510  54.6065520  68.9452060  18.2107490
  54.3176260  69.3576040  16.7830500  47.1308450  77.5452520  12.5858090
  47.4978580  77.0711090  13.3319430  46.9413510  78.4194090  12.9266430
  39.9948940  72.2896210   8.7151560  39.7095860  71.9251880   9.5530180
  39.9327800  71.5576670   8.1014700  44.9207820  76.5861160  14.9042300
  44.6164890  77.4653140  15.1292660  45.8754280  76.6460950  14.9399740
  49.6687530  71.1825470   5.4364930  48.8552140  70.6838640   5.3610240
  49.4749480  72.0223720   5.0201280  52.3835920  75.5545120   3.7327090
  53.2715540  75.8662350   3.5578430  52.3541010  74.6817370   3.3407670
  40.9771550  77.4263900  16.0513660  40.6186490  78.0917750  16.6387000
  40.6826110  76.5947450  16.4226280  44.1784670  77.8848140  18.9353210
  43.8784810  78.0305320  18.0381030  44.9495910  77.3253430  18.8426600
  54.6550190  76.8656960   3.2006950  54.5713910  77.2971180   2.3503390
  55.3744380  77.3255310   3.6333770  39.4879600  77.4255160   2.6748260
  40.3574450  77.7079960   2.9584180  38.9969920  78.2391030   2.5597070
  42.5526190  69.1566020   7.2679060  42.4240820  69.1483920   8.2163980
  41.7288210  69.4949110   6.9170070  39.5520120  70.9157140  16.7285760
  38.8378640  71.1154060  17.3338370  39.9715160  70.1396710  17.1000560
  51.0458900  73.4079450  14.4787210  51.4139720  72.5874660  14.8066780
  50.1857100  73.4681340  14.8942860  54.4120930  72.3636390   5.2874770
  53.7834090  72.4682060   4.5733000  53.9172850  72.5833170   6.0768650
  46.3804960  74.6422340   6.7032650  45.6721110  75.1108680   7.1446260
  46.6649440  73.9844350   7.3377840  48.0060890  76.0619040  14.7025180
  48.5046140  76.5364860  15.3677030  48.1483840  75.1382560  14.9095210
  50.4120390  71.3673000   8.1428440  50.2888170  71.3859130   7.1937950
  51.3604950  71.4151940   8.2626840  44.5839980  72.9507420   4.0783360
  45.4330510  73.3877570   4.0123550  44.2171250  73.2627680   4.9055420
  55.2127750  72.2787000  15.5453570  54.7101350  73.0192400  15.8847380
  56.0284410  72.6671000  15.2290360  53.5049760  77.5220180   8.9914930
  52.5639900  77.5370410   9.1662620  53.8193830  76.7356140   9.4375230
  42.1778160  76.6364850   3.2351780  42.2581750  75.6892360   3.3469180
  43.0697910  76.9671730   3.3412440  39.7048960  78.4579770  18.4707950
  40.2087980  77.8787050  19.0424180  38.9656380  78.7420000  19.0084320
  41.7372040  76.6009360  19.3658020  41.7777380  76.3023230  20.2743250
  42.5917540  77.0016970  19.2065540  43.6777850  75.1801460  17.3332510
  43.1474310  74.6892410  16.7055850  44.3465920  75.6085660  16.7990440
  53.0478080  76.9867080  19.1012850  53.6298850  76.2319400  19.0133330
  53.2239850  77.5174520  18.3244330  44.1650150  72.1463830  17.4129800
  44.0707020  71.5284580  16.6880670  43.5847540  72.8730120  17.1859710
  46.9311590  70.7037070  14.4457190  46.4828890  70.7261330  13.6002740
  46.2976790  70.3056090  15.0427490  49.6735040  77.3307580  16.4507470
  49.7931250  76.7348720  17.1902310  50.5329040  77.3677270  16.0308770
  52.0122940  77.8844770  15.0269980  51.4858160  78.4087390  14.4235120
  52.3554280  78.5172160  15.6579710  46.4403810  73.8728930  17.7083290
  47.0303500  73.5644780  18.3961110  45.6224050  73.4008680  17.8643190
  51.2597240  73.4894740  17.9416310  50.5712760  72.8276280  17.8766300
  51.9803260  73.0433010  18.3864770  51.8897640  70.0846370   4.0006570
  52.1699930  69.2414270   4.3565990  51.1163370  70.3169480   4.5145320
  46.4277060  71.3173380   2.4453770  46.0799060  70.6397370   1.8656220
  46.6289830  70.8562890   3.2597160  39.7682700  77.8461030   8.8418140
  39.1131540  77.5772670   8.1977840  40.6060650  77.7365510   8.3920120
  52.7173140  72.6402320   3.0636630  53.1358020  72.4533300   2.2233290
  52.4109200  71.7881370   3.3739560  56.2162870  77.5526460   6.7612430
  55.8406470  76.7854390   6.3293720  55.4865990  77.9349160   7.2487360
  40.8058630  78.2313600  13.3821480  41.1731670  78.1441000  14.2617500
  40.2369450  77.4680150  13.2828340  55.6062490  76.6997980  16.3951950
  55.3748580  76.4710730  15.4949900  55.8667040  77.6197530  16.3496840
  40.3574630  75.1422690  17.2879900  39.4630680  75.1089450  17.6273610
  40.8972180  75.3409480  18.0531150  54.0450560  71.9254410  19.1731650
  54.9220740  71.9337810  19.5565650  54.0571400  71.1885250  18.5624000
  38.9820780  75.0559960   4.7843470  38.0784860  75.3190160   4.6095130
  39.4661400  75.3271130   4.0043430  55.4913830  75.7783950  10.0619670
  56.0151310  75.2846600   9.4309840  56.0773250  75.9134310  10.8067240
  55.6703550  75.8623820  13.5839220  54.7206260  75.8287360  13.6984210
  55.8516560  76.7723930  13.3488990  41.5247990  74.1125500   2.6937850
  42.2339690  73.6908720   2.2085130  40.8087930  74.1800730   2.0621200
  54.9813800  75.0357300   6.0012080  55.4772920  74.8028170   6.7860960
  54.7829870  74.1969140   5.5849720  40.8614340  69.4171020  11.6363120
  41.5090530  68.8668400  11.1958280  41.2816180  69.6714170  12.4578930
  54.7566680  69.6112380  14.9932760  55.3938900  70.2246520  15.3591950
  54.9041570  69.6473040  14.0481990  40.6146340  69.5726690  14.3788440
  40.2661160  70.0290510  15.1446620  40.2834040  68.6783820  14.4610870
  48.1271160  70.7638570  17.9007860  48.0660050  71.3560400  18.6503270
  49.0671540  70.6564530  17.7558120  50.7645720  70.4208630  17.5400150
  51.3786130  70.7387920  16.8781230  51.3095280  69.9357220  18.1596010
  41.2866980  69.1002890  17.6539210  41.8349970  68.9190940  16.8905320
  41.3522290  68.3097000  18.1895520  51.5053760  68.9840770  13.8669440
  50.6313600  69.3175880  13.6642370  51.3964510  68.5113950  14.6921310
  52.4125740  71.1911640  15.2511160  52.0839100  70.3763400  14.8712890
  53.3608040  71.1481450  15.1276850  49.2528580  69.9010610  12.8062350
  48.4700370  70.3756110  13.0859110  48.9591510  68.9965440  12.6975530
  53.8049650  70.6033710  10.8511440  54.2457740  70.5478810  10.0033040
  53.5357240  71.5191720  10.9221620  55.6688220  70.2348950   8.8620260
  55.6076620  69.2910170   8.7151280  56.4480250  70.3429040   9.4073720
  40.5968990  70.2058090   5.3276070  41.3548350  70.3186970   4.7540100
  40.1346160  71.0427290   5.2819500  47.1382800  72.3197360   8.3178380
  46.3257310  71.9454250   7.9774260  47.6424440  71.5642440   8.6199570
  51.6407780  68.9839810   9.5561450  52.2437150  69.5560020  10.0309970
  50.9000770  69.5479250   9.3335350  54.7842380  69.3861370   4.8301730
  54.9793010  70.2844820   5.0969160  53.9972250  69.1548450   5.3234680
  42.9694140  70.7322140   3.8678040  43.4986900  69.9451940   3.7385990
  43.6022460  71.4113330   4.1013570  45.1631980  70.4697280   6.9223430
  44.5334720  69.7684590   7.0893560  44.6237120  71.2301410   6.7056590
  45.2887540  69.7481260  19.3575920  45.0071810  70.2514860  18.5936740
  45.6707240  68.9503010  18.9918050  51.8903000  69.1634840  19.9356390
  51.7768450  69.4829450  20.8307910  52.7072740  69.5647350  19.6393670
  50.7961150  58.4083820  46.6221600  50.7155200  57.4938430  46.3513310
  50.3825570  58.9050890  45.9161310  48.9279190  60.1862840  48.5030870
  48.1521290  59.7063280  48.7929440  49.5792120  59.5068490  48.3287030
  42.9445020  60.4982650  49.3806630  42.1129900  60.2431360  49.7803140
  43.5526000  60.5693420  50.1164550  52.9486620  64.5923030  47.2830000
  52.4868150  63.8210270  47.6117170  53.7612170  64.6189100  47.7882450
  42.9246280  64.5322740  49.5764650  43.2274320  63.6420480  49.3974870
  43.6689870  65.0892960  49.3486900  41.3536970  55.4584540  43.1649020
  40.4653670  55.8000510  43.0628900  41.6378160  55.2584860  42.2729850
  39.3169980  58.0590190  49.0488720  39.8886090  57.2912390  49.0492360
  39.3171520  58.3578950  48.1395330  49.1749930  66.8781040  46.9033990
  48.5561370  67.3338540  46.3328430  50.0301710  67.0332500  46.5023690
  48.3688180  62.8620030  48.5101030  48.2996460  61.9209970  48.3490160
  49.1308040  62.9521440  49.0823600  40.5594850  53.4674550  50.8357650
  40.3797690  52.5700300  51.1160410  40.1574930  54.0146420  51.5104600
  49.3993350  55.6690410  48.7369960  49.7758170  54.7962290  48.6243630
  49.3012860  56.0049110  47.8460400  43.5298360  54.0416040  44.1987400
  43.6365110  54.9419770  44.5056160  42.6190720  53.9934010  43.9082050
  53.1817470  53.1640850  45.6698300  54.0027090  52.6737420  45.7123780
  53.2151550  53.7538510  46.4230140  41.1781520  55.9635050  49.4439990
  41.8591630  56.2273420  50.0627390  40.8629570  55.1235920  49.7778000
  45.3706090  57.0102410  48.5312580  45.8784310  57.5083380  49.1717600
  45.9019330  56.2337610  48.3551940  43.6542190  51.6500970  52.7976000
  43.6560630  52.1673360  51.9921900  42.8246500  51.1731150  52.7745930
  50.0413280  61.7620280  44.2965900  49.4230550  62.2269730  43.7328620
  50.5536530  62.4547760  44.7135410  44.9045040  61.2896150  50.9749500
  44.5714420  61.9165070  51.6170570  45.0811720  61.8158030  50.1951170
  53.4178950  55.1041230  48.4425840  52.7134520  55.3926120  49.0228950
  53.7791110  55.9141340  48.0825400  43.3357520  53.3610930  50.8046450
  43.6774330  54.2052980  50.5100320  42.3973330  53.5094670  50.9211790
  44.1164140  63.2576950  52.7898680  44.7338140  63.9328030  52.5083130
  43.2557260  63.6664930  52.6986180  39.4096480  62.4476810  41.6705530
  39.0324460  62.9363910  40.9390430  39.6669550  63.1202090  42.3012060
  55.0341730  64.7216360  50.7053320  54.3505250  65.3915470  50.6969990
  55.5736020  64.9197010  49.9398180  56.4865870  54.5496020  48.8335050
  55.5390780  54.5835000  48.9650480  56.8115860  55.3634970  49.2184410
  47.0185410  50.8493200  47.1291040  47.3260390  50.2940090  46.4126540
  46.0886110  50.9837660  46.9464030  52.5700470  66.5660490  49.4198500
  52.5827630  66.1622780  48.5520760  52.0175690  67.3407780  49.3159930
  53.8645890  63.2876710  44.5088670  53.7542220  62.3451040  44.6338090
  53.8614140  63.6492350  45.3951430  51.9685910  61.4690330  50.7481110
  52.3854700  61.2550440  49.9134570  52.6925730  61.7263120  51.3189730
  49.4066170  58.9142030  43.8651160  48.4795450  58.8479410  44.0939630
  49.5590990  59.8522160  43.7506400  49.3935250  55.1859030  40.8618320
  48.4538920  55.3472990  40.9470780  49.7118510  55.9044710  40.3154310
  55.9148010  59.8677550  50.8397350  55.0866640  59.9370640  50.3647480
  56.5098490  60.4531860  50.3713180  53.4363460  60.4762330  44.3686410
  52.8175880  60.1381880  43.7212710  53.4187910  59.8322090  45.0765600
  52.8790020  56.6546870  51.7852220  52.4661200  57.4800580  52.0392210
  52.1465970  56.0691910  51.5928580  45.0122810  59.4406770  46.6470890
  44.6079810  58.7284020  46.1516790  45.0985930  59.0960010  47.5358930
  45.4804510  63.1274330  48.8110100  45.1832800  62.5219800  48.1317880
  46.4304330  63.1651640  48.6999460  43.7251430  56.2149980  50.4269930
  44.2766020  56.3245320  49.6523180  44.2394940  56.5887580  51.1425160
  53.5690120  66.7006200  52.4733200  53.0920680  67.5078390  52.2805810
  52.8851910  66.0484530  52.6259410  44.5722940  62.8656020  55.4617900
  43.6751470  63.0895990  55.7091300  44.5975810  62.9890960  54.5129300
  51.6128160  59.7149140  41.3759160  52.0521440  58.8771570  41.2296980
  52.3256580  60.3478540  41.4623300  43.3994160  59.7369340  54.0375270
  43.2601930  60.6092140  54.4062670  42.5175520  59.3942150  53.8923210
  49.7223540  64.6545210  45.3440400  50.1619450  65.3969540  44.9295790
  49.6610430  64.8971780  46.2679360  45.1974510  65.6791040  56.2460420
  45.1689940  66.0833990  55.3788850  45.0339480  64.7501400  56.0832020
  55.1945300  50.9691950  39.6900200  54.8817960  51.0618780  40.5899270
  55.9557770  51.5472980  39.6397630  41.7127440  58.3351750  44.1477540
  41.5925040  59.0613840  43.5358810  41.4028330  57.5654660  43.6705450
  39.3512810  61.5066890  49.9546180  39.4293230  61.6415660  49.0101900
  39.9654490  60.7982780  50.1474300  40.5960440  63.2067080  46.3652360
  40.1888520  63.3481670  45.5105960  41.4873450  62.9227240  46.1623570
  56.5522580  63.6530990  54.7024600  56.6785640  63.4142870  53.7841780
  56.5943960  62.8215530  55.1746680  50.4139320  67.3558990  53.2719410
  50.9283990  67.2667000  54.0741840  49.5708400  67.7018690  53.5647320
  52.3893720  67.6414330  42.7003410  52.2294860  67.3517270  43.5985240
  52.2240430  66.8654460  42.1648640  44.8682100  67.4212860  44.4775030
  44.6924580  66.5048400  44.2642830  44.0137840  67.7800150  44.7172830
  52.0919850  65.1501890  41.2601410  51.3985010  65.1479180  40.6003690
  52.8342710  64.7261210  40.8295580  51.6569780  66.7764600  45.3349900
  52.1126730  65.9953980  45.6488520  51.9962300  67.4871420  45.8791080
  56.4046590  55.7063450  55.6674340  55.7890860  56.2143120  55.1389800
  56.0843010  54.8061780  55.6100280  39.4072330  62.5481060  52.4940640
  39.5703370  62.0786420  51.6760010  39.8724780  62.0404620  53.1589480
  44.1791100  51.6786820  47.5301210  43.7359250  52.4596360  47.1985730
  44.7376090  52.0016710  48.2372150  48.4660910  54.5455340  53.1336530
  48.0040280  54.7538360  53.9456470  48.0639020  53.7314690  52.8307200
  53.4665420  55.7664290  54.2633190  52.6159010  55.4670040  54.5842260
  53.3067210  56.0106300  53.3517010  50.5615130  57.2666040  56.3631980
  50.8868540  56.4329790  56.0234210  51.3495460  57.7894560  56.5110310
  47.2949920  51.2997520  42.4107040  46.6704100  51.2957390  43.1360350
  47.2080040  50.4328480  42.0143010  46.2167000  52.2234150  49.3890810
  46.5139330  53.1296980  49.3082830  46.7652560  51.7352930  48.7750380
  43.9705320  56.8020390  45.2582460  43.7446240  56.5857560  46.1629080
  43.1897850  57.2348850  44.9128430  51.2003080  56.8083760  43.8573110
  50.6011970  57.5319560  43.6736730  51.7482690  56.7460540  43.0749560
  46.4104530  57.7005970  55.9242730  46.3148130  56.7600700  55.7743130
  47.2536510  57.9221040  55.5290800  49.8067950  55.4447300  45.8876390
  50.1997520  55.7619500  45.0745080  50.1684800  54.5659180  46.0020910
  41.5415070  54.1119640  54.0776510  41.1478460  54.9594850  54.2849290
  40.8533470  53.4746010  54.2685150  38.8432120  52.0348100  48.1106590
  38.5545170  52.6050960  48.8231570  39.5877880  51.5552550  48.4737820
  39.0302350  55.9768220  39.3209310  38.9477020  56.9198980  39.4624300
  38.6785410  55.8343130  38.4421660  50.3923090  58.0353050  49.9827170
  49.6604210  58.5439860  50.3317270  49.9947430  57.2183030  49.6815950
  46.8300480  54.7107250  48.3879660  46.8336540  54.2697200  47.5384200
  47.7251600  55.0324580  48.4951480  42.6802860  54.5933740  47.3473870
  42.3402910  55.0708970  48.1040920  41.9180180  54.1398860  46.9874970
  46.8920630  55.7119330  41.3786420  47.0133450  55.6705810  42.3272240
  46.5069140  56.5743480  41.2233150  50.8549000  53.4886730  49.3950110
  50.8721740  53.9395380  50.2391960  50.6064580  52.5892370  49.6083550
  45.9042130  58.0220470  40.7769720  45.3359030  57.5738720  40.1505630
  46.6131130  58.3813250  40.2434870  54.2819750  50.9018910  55.2336490
  54.6065520  50.1708570  55.7594470  54.3176260  50.5832550  54.3317480
  40.9811310  61.9232490  54.6536450  40.5966100  61.2826160  55.2519410
  41.2923500  62.6268610  55.2231180  47.1308450  58.7709030  50.1345070
  47.4978580  58.2967600  50.8806410  46.9413510  59.6450600  50.4753410
  39.9948940  53.5152720  46.2638540  39.7095860  53.1508390  47.1017160
  39.9327800  52.7833180  45.6501680  44.9207820  57.8117670  52.4529280
  44.6164890  58.6909650  52.6779640  45.8754280  57.8717460  52.4886720
  43.4489610  62.0178660  43.0496130  42.6751870  61.4776280  42.8894850
  44.1784240  61.4985270  42.7113890  54.2077590  61.0144020  48.8422520
  54.9276710  61.5099310  48.4518630  54.0059410  60.3361910  48.1976390
  49.6687530  52.4081980  42.9851910  48.8552140  51.9095150  42.9097220
  49.4749480  53.2480230  42.5688260  49.5896390  61.0853080  54.7291520
  49.5233700  60.1648750  54.4749110  48.9601530  61.1828520  55.4436160
  52.3835920  56.7801630  41.2814070  53.2715540  57.0918860  41.1065410
  52.3541010  55.9073880  40.8894650  43.4927010  61.6859040  46.6874940
  44.0105680  60.8827300  46.6331830  43.0411030  61.6238180  47.5291770
  48.3796510  62.9525320  41.9602240  48.7212210  63.6967550  41.4645560
  47.5509220  63.2656440  42.3227070  40.9771550  58.6520410  53.6000640
  40.6186490  59.3174260  54.1873980  40.6826110  57.8203960  53.9713260
  44.1784670  59.1104650  56.4840190  43.8784810  59.2561830  55.5868010
  44.9495910  58.5509940  56.3913580  49.5213120  63.9073650  54.4795320
  49.5357660  62.9754610  54.2614230  48.8138220  63.9933410  55.1185090
  54.6550190  58.0913470  40.7493930  54.5713910  58.5227690  39.8990370
  55.3744380  58.5511820  41.1820750  55.7324330  60.5480990  53.8263900
  55.0072520  61.1409770  53.6293290  56.2599790  60.5404530  53.0277270
  55.6837440  64.9455730  43.4776060  55.0413600  64.2911350  43.7519780
  55.2968100  65.3510820  42.7016730  51.2623920  62.2741160  47.3247750
  51.6147740  61.6769290  46.6649120  50.3786250  61.9485390  47.4956000
  47.3487200  63.0338850  44.7318160  48.0358330  63.5808060  45.1125750
  46.5619620  63.5779580  44.7667770  39.4879600  58.6511670  40.2235240
  40.3574450  58.9336470  40.5071160  38.9969920  59.4647540  40.1084050
  46.6514410  60.0384880  44.3443520  47.1077190  60.8490130  44.5703710
  46.3002620  59.7208020  45.1762010  48.9547020  65.5491220  51.5735820
  49.5989240  65.7550600  52.2509240  49.3176460  64.7879620  51.1206670
  42.5526190  50.3822530  44.8166040  42.4240820  50.3740430  45.7650960
  41.7288210  50.7205620  44.4657050  50.2279100  63.5523570  50.2913270
  50.8701330  62.8516730  50.4045440  50.7528450  64.3322010  50.1110160
  54.0734820  63.8372190  40.0152410  53.8472400  63.1202630  40.6077050
  53.6831020  63.5884630  39.1774160  52.0016720  64.3518470  53.4949330
  52.3372960  64.9385160  54.1727250  51.0817060  64.2211180  53.7247120
  39.8550850  67.8639050  40.7896870  40.2148490  68.4628390  40.1354140
  39.7143190  68.4098940  41.5631900  39.5520120  52.1413650  54.2772740
  38.8378640  52.3410570  54.8825350  39.9715160  51.3653220  54.6487540
  53.6551070  61.7544130  41.6766570  53.3672770  62.2156820  42.4644450
  54.4503240  61.2941900  41.9450790  39.8392710  66.1293910  55.2639270
  39.9483830  65.1888650  55.1234660  39.1873270  66.3948660  54.6153000
  47.8305300  64.4009800  56.6637390  47.5102170  63.6819040  57.2083080
  47.1563660  65.0764870  56.7373450  45.8719470  65.2470250  41.6070540
  45.8629570  65.9799940  40.9915050  44.9517830  65.0001830  41.6997500
  41.4726110  60.4685140  42.3517300  40.8654060  61.2084040  42.3612600
  41.9475460  60.5584500  41.5255500  51.0458900  54.6335960  52.0274190
  51.4139720  53.8131170  52.3553760  50.1857100  54.6937850  52.4429840
  54.4120930  53.5892900  42.8361750  53.7834090  53.6938570  42.1219980
  53.9172850  53.8089680  43.6255630  48.8579070  65.3098490  40.2695730
  48.9591050  65.1062480  39.3397710  47.9580810  65.0556770  40.4743510
  46.3804960  55.8678850  44.2519630  45.6721110  56.3365190  44.6933240
  46.6649440  55.2100860  44.8864820  48.0060890  57.2875550  52.2512160
  48.5046140  57.7621370  52.9164010  48.1483840  56.3639070  52.4582190
  50.4120390  52.5929510  45.6915420  50.2888170  52.6115640  44.7424930
  51.3604950  52.6408450  45.8113820  47.4997180  67.8284810  44.9643400
  47.7538680  67.7906200  44.0422770  46.5509660  67.7018140  44.9571650
  44.5839980  54.1763930  41.6270340  45.4330510  54.6134080  41.5610530
  44.2171250  54.4884190  42.4542400  55.2127750  53.5043510  53.0940550
  54.7101350  54.2448910  53.4334360  56.0284410  53.8927510  52.7777340
  53.5049760  58.7476690  46.5401910  52.5639900  58.7626920  46.7149600
  53.8193830  57.9612650  46.9862210  43.4831400  60.4296290  40.1005870
  44.2494670  60.3177650  40.6631300  43.5606090  59.7334260  39.4482640
  42.1778160  57.8621360  40.7838760  42.2581750  56.9148870  40.8956160
  43.0697910  58.1928240  40.8899420  55.5075340  65.9185540  48.2156170
  55.6322760  66.7416710  48.6879980  56.3740900  65.7076270  47.8680320
  42.9792870  68.0116750  47.8873300  43.7155350  67.4632210  48.1581870
  43.3633790  68.8772760  47.7479290  39.8638350  64.0790320  43.7614810
  38.9378130  64.3211460  43.7520220  40.3294780  64.9064580  43.6399560
  46.0895180  67.1847060  39.7098870  46.8823790  67.4735890  39.2580660
  45.5699530  66.7539230  39.0311350  52.2516150  67.0322980  55.6343700
  53.2037900  66.9481000  55.5843940  52.1044370  67.6964690  56.3077490
  55.1425350  66.4117190  41.1335610  54.8566860  65.9982330  40.3189790
  54.9444900  67.3404900  41.0136130  39.7048960  59.6836280  56.0194930
  40.2087980  59.1043560  56.5911160  38.9656380  59.9676510  56.5571300
  46.6072580  62.4050470  39.5741220  46.5023220  61.7902820  40.3002600
  46.4396800  61.8816360  38.7904230  46.7586900  61.0907270  55.5530450
  45.9932570  61.6592270  55.4685120  46.9402860  60.7983480  54.6598680
  49.8475310  61.4670500  40.1783210  49.2985410  61.9139800  40.8225950
  50.4694570  60.9619750  40.7020880  53.9010250  62.8212600  56.1105470
  54.6419720  63.1588360  55.6072930  53.1382930  62.9904660  55.5575240
  45.5150430  60.4261420  42.0748510  45.9366850  60.2601290  42.9179900
  45.6401270  59.6161650  41.5803650  43.6777850  56.4057970  54.8819490
  43.1474310  55.9148920  54.2542830  44.3465920  56.8342170  54.3477420
  48.0278070  59.4499030  39.3225610  48.5483730  58.7348050  38.9566760
  48.6746470  60.0884900  39.6226120  52.5755910  60.8727430  54.6460680
  52.9896930  61.0272510  55.4951100  51.6406910  60.9982650  54.8086460
  53.0478080  58.2123590  56.6499830  53.6298850  57.4575910  56.5620310
  53.2239850  58.7431030  55.8731310  44.1650150  53.3720340  54.9616780
  44.0707020  52.7541090  54.2367650  43.5847540  54.0986630  54.7346690
  46.9311590  51.9293580  51.9944170  46.4828890  51.9517840  51.1489720
  46.2976790  51.5312600  52.5914470  47.3371140  60.8247910  52.6156610
  47.7559250  61.6680640  52.4432850  46.4179770  60.9619950  52.3863390
  49.6735040  58.5564090  53.9994450  49.7931250  57.9605230  54.7389290
  50.5329040  58.5933780  53.5795750  52.0122940  59.1101280  52.5756960
  51.4858160  59.6343900  51.9722100  52.3554280  59.7428670  53.2066690
  44.4109330  56.4994650  39.0206670  44.2098390  55.6362010  39.3820010
  44.2401380  56.4128010  38.0828270  45.1878560  67.1300920  53.7314340
  44.6499650  67.8546980  53.4123040  45.4412520  66.6531260  52.9411680
  46.4403810  55.0985440  55.2570270  47.0303500  54.7901290  55.9448090
  45.6224050  54.6265190  55.4130170  51.2597240  54.7151250  55.4903290
  50.5712760  54.0532790  55.4253280  51.9803260  54.2689520  55.9351750
  51.8897640  51.3102880  41.5493550  52.1699930  50.4670780  41.9052970
  51.1163370  51.5425990  42.0632300  43.2092130  53.5995270  39.0084550
  43.5118030  53.6062700  38.1003700  43.9486720  53.2493130  39.5052210
  48.0440770  68.3652130  53.9900990  47.9699470  69.2687270  54.2973360
  47.1419610  68.0464030  53.9623060  46.4277060  52.5429890  39.9940750
  46.0799060  51.8653880  39.4143200  46.6289830  52.0819400  40.8084140
  48.5926100  67.5310640  41.6127350  49.4876890  67.8695610  41.6346110
  48.6243730  66.8090050  40.9851630  42.2322260  62.9037690  39.8414350
  42.6697130  63.4467360  40.4971930  42.7169990  62.0784640  39.8510690
  39.4468060  65.6926720  47.2934610  39.7771070  64.8247780  47.0613250
  39.8759060  65.8985240  48.1239570  44.0429980  64.0235730  44.9536580
  43.7425520  63.9000700  45.8540490  43.9367470  63.1644320  44.5452310
  39.9358270  66.5597310  50.0316240  39.4989260  66.7398110  50.8640390
  40.5035950  67.3171930  49.8897960  55.5720450  66.0614310  54.3193550
  54.9722440  66.1206870  53.5757470  55.7014350  65.1219290  54.4490400
  39.7682700  59.0717540  46.3905120  39.1131540  58.8029180  45.7464820
  40.6060650  58.9622020  45.9407100  54.2572090  62.7866290  52.4169710
  53.4431930  63.2163450  52.6795500  54.6646290  63.3984700  51.8038760
  56.3197530  60.8413980  39.3169980  56.5946370  61.7492860  39.1889200
  56.1308270  60.7776510  40.2531970  52.7173140  53.8658830  40.6123610
  53.1358020  53.6789810  39.7720270  52.4109200  53.0137880  40.9226540
  56.2162870  58.7782970  44.3099410  55.8406470  58.0110900  43.8780700
  55.4865990  59.1605670  44.7974340  40.8058630  59.4570110  50.9308460
  41.1731670  59.3697510  51.8104480  40.2369450  58.6936660  50.8315320
  55.6062490  57.9254490  53.9438930  55.3748580  57.6967240  53.0436880
  55.8667040  58.8454040  53.8983820  40.3574630  56.3679200  54.8366880
  39.4630680  56.3345960  55.1760590  40.8972180  56.5665990  55.6018130
  54.0450560  53.1510920  56.7218630  54.9220740  53.1594320  57.1052630
  54.0571400  52.4141760  56.1110980  38.9820780  56.2816470  42.3330450
  38.0784860  56.5446670  42.1582110  39.4661400  56.5527640  41.5530410
  55.4913830  57.0040460  47.6106650  56.0151310  56.5103110  46.9796820
  56.0773250  57.1390820  48.3554220  55.6703550  57.0880330  51.1326200
  54.7206260  57.0543870  51.2471190  55.8516560  57.9980440  50.8975970
  41.5247990  55.3382010  40.2424830  42.2339690  54.9165230  39.7572110
  40.8087930  55.4057240  39.6108180  41.1722150  51.3921340  39.2827480
  41.8950280  51.9330280  39.6008700  41.4446670  51.1184760  38.4069020
  54.9813800  56.2613810  43.5499060  55.4772920  56.0284680  44.3347940
  54.7829870  55.4225650  43.1336700  40.8614340  50.6427530  49.1850100
  41.5090530  50.0924910  48.7445260  41.2816180  50.8970680  50.0065910
  54.7566680  50.8368890  52.5419740  55.3938900  51.4503030  52.9078930
  54.9041570  50.8729550  51.5968970  54.3148140  67.5384890  45.9437980
  54.9107210  67.2169460  45.2672400  54.5726290  67.0656710  46.7351250
  40.6146340  50.7983200  51.9275420  40.2661160  51.2547020  52.6933600
  40.2834040  49.9040330  52.0097850  42.2210710  63.9702800  56.0928610
  42.1780340  63.5995710  56.9743070  42.3521720  64.9080370  56.2330430
  45.9216740  65.5262390  51.6938330  45.6808100  65.7936950  50.8068850
  46.8619380  65.6968120  51.7489190  48.1271160  51.9895080  55.4494840
  48.0660050  52.5816910  56.1990250  49.0671540  51.8821040  55.3045100
  50.7645720  51.6465140  55.0887130  51.3786130  51.9644430  54.4268210
  51.3095280  51.1613730  55.7082990  41.2866980  50.3259400  55.2026190
  41.8349970  50.1447450  54.4392300  41.3522290  49.5353510  55.7382500
  42.0598740  66.9165050  53.2126390  41.4659060  66.7849750  53.9516430
  42.0522580  66.0803190  52.7468490  51.5053760  50.2097280  51.4156420
  50.6313600  50.5432390  51.2129350  51.3964510  49.7370460  52.2408290
  52.4125740  52.4168150  52.7998140  52.0839100  51.6019910  52.4199870
  53.3608040  52.3737960  52.6763830  54.8660350  68.1880190  49.7735710
  54.4063320  68.9396000  49.3993730  54.2372810  67.4686660  49.7150510
  41.6910970  64.2823430  52.1634430  40.9645030  63.6628720  52.0960380
  41.7520120  64.6764040  51.2932510  45.2956070  66.4968430  48.9483840
  45.8121090  65.8855790  48.4232100  45.9453450  66.9997210  49.4394850
  48.0351570  67.3876920  49.7752820  48.3229380  67.1331220  48.8985830
  48.5474790  66.8354280  50.3658390  49.2528580  51.1267120  50.3549330
  48.4700370  51.6012620  50.6346090  48.9591510  50.2221950  50.2462510
  53.8049650  51.8290220  48.3998420  54.2457740  51.7735320  47.5520020
  53.5357240  52.7448230  48.4708600  55.6688220  51.4605460  46.4107240
  55.6076620  50.5166680  46.2638260  56.4480250  51.5685550  46.9560700
  39.9740970  67.5997820  45.3731190  39.8063010  66.9668500  46.0713080
  39.1075480  67.8057220  45.0225380  40.5968990  51.4314600  42.8763050
  41.3548350  51.5443480  42.3027080  40.1346160  52.2683800  42.8306480
  47.1382800  53.5453870  45.8665360  46.3257310  53.1710760  45.5261240
  47.6424440  52.7898950  46.1686550  51.6407780  50.2096320  47.1048430
  52.2437150  50.7816530  47.5796950  50.9000770  50.7735760  46.8822330
  54.7842380  50.6117880  42.3788710  54.9793010  51.5101330  42.6456140
  53.9972250  50.3804960  42.8721660  41.5803670  66.2931050  42.8181330
  41.0551290  66.6739080  42.1143290  41.5048250  66.9181820  43.5391040
  42.9694140  51.9578650  41.4165020  43.4986900  51.1708450  41.2872970
  43.6022460  52.6369840  41.6500550  45.1631980  51.6953790  44.4710410
  44.5334720  50.9941100  44.6380540  44.6237120  52.4557920  44.2543570
  48.1023930  68.3093020  57.1421020  49.0291240  68.0737290  57.1856980
  48.0874360  69.1365020  56.6607050  56.3368990  67.8518590  44.1395270
  56.5121180  67.1656330  43.4956190  55.6390560  68.3765640  43.7471940
  45.2887540  50.9737770  56.9062900  45.0071810  51.4771370  56.1423720
  45.6707240  50.1759520  56.5405030  44.1796640  68.2413430  41.6930580
  44.9115460  67.9572710  41.1454470  44.4390310  68.0026710  42.5829960
  43.3411430  64.3578160  41.6976910  42.7120310  64.8263260  42.2462740
  43.4559260  63.5127380  42.1323100  50.7961150  58.4083820  27.8478110
  50.7155200  57.4938430  27.5769820  50.3825570  58.9050890  27.1417820
  48.9279190  60.1862840  29.7287380  48.1521290  59.7063280  30.0185950
  49.5792120  59.5068490  29.5543540  42.9445020  60.4982650  30.6063140
  42.1129900  60.2431360  31.0059650  43.5526000  60.5693420  31.3421060
  52.9486620  64.5923030  28.5086510  52.4868150  63.8210270  28.8373680
  53.7612170  64.6189100  29.0138960  42.9246280  64.5322740  30.8021160
  43.2274320  63.6420480  30.6231380  43.6689870  65.0892960  30.5743410
  41.3536970  55.4584540  24.3905530  40.4653670  55.8000510  24.2885410
  41.6378160  55.2584860  23.4986360  39.3169980  58.0590190  30.2745230
  39.8886090  57.2912390  30.2748870  39.3171520  58.3578950  29.3651840
  49.1749930  66.8781040  28.1290500  48.5561370  67.3338540  27.5584940
  50.0301710  67.0332500  27.7280200  48.3688180  62.8620030  29.7357540
  48.2996460  61.9209970  29.5746670  49.1308040  62.9521440  30.3080110
  40.5594850  53.4674550  32.0614160  40.3797690  52.5700300  32.3416920
  40.1574930  54.0146420  32.7361110  49.3993350  55.6690410  29.9626470
  49.7758170  54.7962290  29.8500140  49.3012860  56.0049110  29.0716910
  43.5298360  54.0416040  25.4243910  43.6365110  54.9419770  25.7312670
  42.6190720  53.9934010  25.1338560  53.1817470  53.1640850  26.8954810
  54.0027090  52.6737420  26.9380290  53.2151550  53.7538510  27.6486650
  41.1781520  55.9635050  30.6696500  41.8591630  56.2273420  31.2883900
  40.8629570  55.1235920  31.0034510  45.3706090  57.0102410  29.7569090
  45.8784310  57.5083380  30.3974110  45.9019330  56.2337610  29.5808450
  43.6542190  51.6500970  34.0232510  43.6560630  52.1673360  33.2178410
  42.8246500  51.1731150  34.0002440  50.0413280  61.7620280  25.5222410
  49.4230550  62.2269730  24.9585130  50.5536530  62.4547760  25.9391920
  44.9045040  61.2896150  32.2006010  44.5714420  61.9165070  32.8427080
  45.0811720  61.8158030  31.4207680  53.4178950  55.1041230  29.6682350
  52.7134520  55.3926120  30.2485460  53.7791110  55.9141340  29.3081910
  43.3357520  53.3610930  32.0302960  43.6774330  54.2052980  31.7356830
  42.3973330  53.5094670  32.1468300  44.1164140  63.2576950  34.0155190
  44.7338140  63.9328030  33.7339640  43.2557260  63.6664930  33.9242690
  39.4096480  62.4476810  22.8962040  39.0324460  62.9363910  22.1646940
  39.6669550  63.1202090  23.5268570  55.0341730  64.7216360  31.9309830
  54.3505250  65.3915470  31.9226500  55.5736020  64.9197010  31.1654690
  56.4865870  54.5496020  30.0591560  55.5390780  54.5835000  30.1906990
  56.8115860  55.3634970  30.4440920  47.0185410  50.8493200  28.3547550
  47.3260390  50.2940090  27.6383050  46.0886110  50.9837660  28.1720540
  52.5700470  66.5660490  30.6455010  52.5827630  66.1622780  29.7777270
  52.0175690  67.3407780  30.5416440  53.8645890  63.2876710  25.7345180
  53.7542220  62.3451040  25.8594600  53.8614140  63.6492350  26.6207940
  51.9685910  61.4690330  31.9737620  52.3854700  61.2550440  31.1391080
  52.6925730  61.7263120  32.5446240  49.4066170  58.9142030  25.0907670
  48.4795450  58.8479410  25.3196140  49.5590990  59.8522160  24.9762910
  49.3935250  55.1859030  22.0874830  48.4538920  55.3472990  22.1727290
  49.7118510  55.9044710  21.5410820  55.9148010  59.8677550  32.0653860
  55.0866640  59.9370640  31.5903990  56.5098490  60.4531860  31.5969690
  53.4363460  60.4762330  25.5942920  52.8175880  60.1381880  24.9469220
  53.4187910  59.8322090  26.3022110  52.8790020  56.6546870  33.0108730
  52.4661200  57.4800580  33.2648720  52.1465970  56.0691910  32.8185090
  45.0122810  59.4406770  27.8727400  44.6079810  58.7284020  27.3773300
  45.0985930  59.0960010  28.7615440  45.4804510  63.1274330  30.0366610
  45.1832800  62.5219800  29.3574390  46.4304330  63.1651640  29.9255970
  43.7251430  56.2149980  31.6526440  44.2766020  56.3245320  30.8779690
  44.2394940  56.5887580  32.3681670  53.5690120  66.7006200  33.6989710
  53.0920680  67.5078390  33.5062320  52.8851910  66.0484530  33.8515920
  44.5722940  62.8656020  36.6874410  43.6751470  63.0895990  36.9347810
  44.5975810  62.9890960  35.7385810  51.6128160  59.7149140  22.6015670
  52.0521440  58.8771570  22.4553490  52.3256580  60.3478540  22.6879810
  43.3994160  59.7369340  35.2631780  43.2601930  60.6092140  35.6319180
  42.5175520  59.3942150  35.1179720  49.7223540  64.6545210  26.5696910
  50.1619450  65.3969540  26.1552300  49.6610430  64.8971780  27.4935870
  45.1974510  65.6791040  37.4716930  45.1689940  66.0833990  36.6045360
  45.0339480  64.7501400  37.3088530  55.1945300  50.9691950  20.9156710
  54.8817960  51.0618780  21.8155780  55.9557770  51.5472980  20.8654140
  41.7127440  58.3351750  25.3734050  41.5925040  59.0613840  24.7615320
  41.4028330  57.5654660  24.8961960  39.3512810  61.5066890  31.1802690
  39.4293230  61.6415660  30.2358410  39.9654490  60.7982780  31.3730810
  40.5960440  63.2067080  27.5908870  40.1888520  63.3481670  26.7362470
  41.4873450  62.9227240  27.3880080  56.5522580  63.6530990  35.9281110
  56.6785640  63.4142870  35.0098290  56.5943960  62.8215530  36.4003190
  50.4139320  67.3558990  34.4975920  50.9283990  67.2667000  35.2998350
  49.5708400  67.7018690  34.7903830  52.3893720  67.6414330  23.9259920
  52.2294860  67.3517270  24.8241750  52.2240430  66.8654460  23.3905150
  44.8682100  67.4212860  25.7031540  44.6924580  66.5048400  25.4899340
  44.0137840  67.7800150  25.9429340  52.0919850  65.1501890  22.4857920
  51.3985010  65.1479180  21.8260200  52.8342710  64.7261210  22.0552090
  51.6569780  66.7764600  26.5606410  52.1126730  65.9953980  26.8745030
  51.9962300  67.4871420  27.1047590  56.4046590  55.7063450  36.8930850
  55.7890860  56.2143120  36.3646310  56.0843010  54.8061780  36.8356790
  39.4072330  62.5481060  33.7197150  39.5703370  62.0786420  32.9016520
  39.8724780  62.0404620  34.3845990  44.1791100  51.6786820  28.7557720
  43.7359250  52.4596360  28.4242240  44.7376090  52.0016710  29.4628660
  48.4660910  54.5455340  34.3593040  48.0040280  54.7538360  35.1712980
  48.0639020  53.7314690  34.0563710  53.4665420  55.7664290  35.4889700
  52.6159010  55.4670040  35.8098770  53.3067210  56.0106300  34.5773520
  50.5615130  57.2666040  37.5888490  50.8868540  56.4329790  37.2490720
  51.3495460  57.7894560  37.7366820  47.2949920  51.2997520  23.6363550
  46.6704100  51.2957390  24.3616860  47.2080040  50.4328480  23.2399520
  46.2167000  52.2234150  30.6147320  46.5139330  53.1296980  30.5339340
  46.7652560  51.7352930  30.0006890  43.9705320  56.8020390  26.4838970
  43.7446240  56.5857560  27.3885590  43.1897850  57.2348850  26.1384940
  51.2003080  56.8083760  25.0829620  50.6011970  57.5319560  24.8993240
  51.7482690  56.7460540  24.3006070  46.4104530  57.7005970  37.1499240
  46.3148130  56.7600700  36.9999640  47.2536510  57.9221040  36.7547310
  49.8067950  55.4447300  27.1132900  50.1997520  55.7619500  26.3001590
  50.1684800  54.5659180  27.2277420  41.5415070  54.1119640  35.3033020
  41.1478460  54.9594850  35.5105800  40.8533470  53.4746010  35.4941660
  48.1160120  54.1954610  38.3729760  47.4258440  54.0026810  39.0075850
  48.8592420  54.4789250  38.9054060  38.8432120  52.0348100  29.3363100
  38.5545170  52.6050960  30.0488080  39.5877880  51.5552550  29.6994330
  39.0302350  55.9768220  20.5465820  38.9477020  56.9198980  20.6880810
  38.6785410  55.8343130  19.6678170  50.3923090  58.0353050  31.2083680
  49.6604210  58.5439860  31.5573780  49.9947430  57.2183030  30.9072460
  46.8300480  54.7107250  29.6136170  46.8336540  54.2697200  28.7640710
  47.7251600  55.0324580  29.7207990  42.6802860  54.5933740  28.5730380
  42.3402910  55.0708970  29.3297430  41.9180180  54.1398860  28.2131480
  46.8920630  55.7119330  22.6042930  47.0133450  55.6705810  23.5528750
  46.5069140  56.5743480  22.4489660  50.8549000  53.4886730  30.6206620
  50.8721740  53.9395380  31.4648470  50.6064580  52.5892370  30.8340060
  45.9042130  58.0220470  22.0026230  45.3359030  57.5738720  21.3762140
  46.6131130  58.3813250  21.4691380  54.2819750  50.9018910  36.4593000
  54.6065520  50.1708570  36.9850980  54.3176260  50.5832550  35.5573990
  40.9811310  61.9232490  35.8792960  40.5966100  61.2826160  36.4775920
  41.2923500  62.6268610  36.4487690  47.1308450  58.7709030  31.3601580
  47.4978580  58.2967600  32.1062920  46.9413510  59.6450600  31.7009920
  39.9948940  53.5152720  27.4895050  39.7095860  53.1508390  28.3273670
  39.9327800  52.7833180  26.8758190  44.9207820  57.8117670  33.6785790
  44.6164890  58.6909650  33.9036150  45.8754280  57.8717460  33.7143230
  43.4489610  62.0178660  24.2752640  42.6751870  61.4776280  24.1151360
  44.1784240  61.4985270  23.9370400  54.2077590  61.0144020  30.0679030
  54.9276710  61.5099310  29.6775140  54.0059410  60.3361910  29.4232900
  49.6687530  52.4081980  24.2108420  48.8552140  51.9095150  24.1353730
  49.4749480  53.2480230  23.7944770  49.5896390  61.0853080  35.9548030
  49.5233700  60.1648750  35.7005620  48.9601530  61.1828520  36.6692670
  52.3835920  56.7801630  22.5070580  53.2715540  57.0918860  22.3321920
  52.3541010  55.9073880  22.1151160  43.4927010  61.6859040  27.9131450
  44.0105680  60.8827300  27.8588340  43.0411030  61.6238180  28.7548280
  48.3796510  62.9525320  23.1858750  48.7212210  63.6967550  22.6902070
  47.5509220  63.2656440  23.5483580  40.9771550  58.6520410  34.8257150
  40.6186490  59.3174260  35.4130490  40.6826110  57.8203960  35.1969770
  44.1784670  59.1104650  37.7096700  43.8784810  59.2561830  36.8124520
  44.9495910  58.5509940  37.6170090  49.5213120  63.9073650  35.7051830
  49.5357660  62.9754610  35.4870740  48.8138220  63.9933410  36.3441600
  54.6550190  58.0913470  21.9750440  54.5713910  58.5227690  21.1246880
  55.3744380  58.5511820  22.4077260  55.7324330  60.5480990  35.0520410
  55.0072520  61.1409770  34.8549800  56.2599790  60.5404530  34.2533780
  55.6837440  64.9455730  24.7032570  55.0413600  64.2911350  24.9776290
  55.2968100  65.3510820  23.9273240  51.2623920  62.2741160  28.5504260
  51.6147740  61.6769290  27.8905630  50.3786250  61.9485390  28.7212510
  47.3487200  63.0338850  25.9574670  48.0358330  63.5808060  26.3382260
  46.5619620  63.5779580  25.9924280  39.4879600  58.6511670  21.4491750
  40.3574450  58.9336470  21.7327670  38.9969920  59.4647540  21.3340560
  46.6514410  60.0384880  25.5700030  47.1077190  60.8490130  25.7960220
  46.3002620  59.7208020  26.4018520  48.9547020  65.5491220  32.7992330
  49.5989240  65.7550600  33.4765750  49.3176460  64.7879620  32.3463180
  42.5526190  50.3822530  26.0422550  42.4240820  50.3740430  26.9907470
  41.7288210  50.7205620  25.6913560  50.2279100  63.5523570  31.5169780
  50.8701330  62.8516730  31.6301950  50.7528450  64.3322010  31.3366670
  54.0734820  63.8372190  21.2408920  53.8472400  63.1202630  21.8333560
  53.6831020  63.5884630  20.4030670  52.0016720  64.3518470  34.7205840
  52.3372960  64.9385160  35.3983760  51.0817060  64.2211180  34.9503630
  39.8550850  67.8639050  22.0153380  40.2148490  68.4628390  21.3610650
  39.7143190  68.4098940  22.7888410  39.5520120  52.1413650  35.5029250
  38.8378640  52.3410570  36.1081860  39.9715160  51.3653220  35.8744050
  53.6551070  61.7544130  22.9023080  53.3672770  62.2156820  23.6900960
  54.4503240  61.2941900  23.1707300  39.8392710  66.1293910  36.4895780
  39.9483830  65.1888650  36.3491170  39.1873270  66.3948660  35.8409510
  47.8305300  64.4009800  37.8893900  47.5102170  63.6819040  38.4339590
  47.1563660  65.0764870  37.9629960  45.8719470  65.2470250  22.8327050
  45.8629570  65.9799940  22.2171560  44.9517830  65.0001830  22.9254010
  41.4726110  60.4685140  23.5773810  40.8654060  61.2084040  23.5869110
  41.9475460  60.5584500  22.7512010  51.0458900  54.6335960  33.2530700
  51.4139720  53.8131170  33.5810270  50.1857100  54.6937850  33.6686350
  54.4120930  53.5892900  24.0618260  53.7834090  53.6938570  23.3476490
  53.9172850  53.8089680  24.8512140  48.8579070  65.3098490  21.4952240
  48.9591050  65.1062480  20.5654220  47.9580810  65.0556770  21.7000020
  46.3804960  55.8678850  25.4776140  45.6721110  56.3365190  25.9189750
  46.6649440  55.2100860  26.1121330  48.0060890  57.2875550  33.4768670
  48.5046140  57.7621370  34.1420520  48.1483840  56.3639070  33.6838700
  50.4120390  52.5929510  26.9171930  50.2888170  52.6115640  25.9681440
  51.3604950  52.6408450  27.0370330  47.4997180  67.8284810  26.1899910
  47.7538680  67.7906200  25.2679280  46.5509660  67.7018140  26.1828160
  44.5839980  54.1763930  22.8526850  45.4330510  54.6134080  22.7867040
  44.2171250  54.4884190  23.6798910  55.2127750  53.5043510  34.3197060
  54.7101350  54.2448910  34.6590870  56.0284410  53.8927510  34.0033850
  53.5049760  58.7476690  27.7658420  52.5639900  58.7626920  27.9406110
  53.8193830  57.9612650  28.2118720  43.4831400  60.4296290  21.3262380
  44.2494670  60.3177650  21.8887810  43.5606090  59.7334260  20.6739150
  42.1778160  57.8621360  22.0095270  42.2581750  56.9148870  22.1212670
  43.0697910  58.1928240  22.1155930  55.5075340  65.9185540  29.4412680
  55.6322760  66.7416710  29.9136490  56.3740900  65.7076270  29.0936830
  42.9792870  68.0116750  29.1129810  43.7155350  67.4632210  29.3838380
  43.3633790  68.8772760  28.9735800  39.8638350  64.0790320  24.9871320
  38.9378130  64.3211460  24.9776730  40.3294780  64.9064580  24.8656070
  41.9851150  67.1962820  38.3015390  42.7863880  67.5174870  38.7150790
  41.4702970  66.8358400  39.0235300  46.0895180  67.1847060  20.9355380
  46.8823790  67.4735890  20.4837170  45.5699530  66.7539230  20.2567860
  50.8215780  63.3042690  38.2490800  50.2153940  63.3274290  37.5086550
  50.5169890  62.5725730  38.7858050  52.2516150  67.0322980  36.8600210
  53.2037900  66.9481000  36.8100450  52.1044370  67.6964690  37.5334000
  55.1425350  66.4117190  22.3592120  54.8566860  65.9982330  21.5446300
  54.9444900  67.3404900  22.2392640  39.7048960  59.6836280  37.2451440
  40.2087980  59.1043560  37.8167670  38.9656380  59.9676510  37.7827810
  46.6072580  62.4050470  20.7997730  46.5023220  61.7902820  21.5259110
  46.4396800  61.8816360  20.0160740  46.7586900  61.0907270  36.7786960
  45.9932570  61.6592270  36.6941630  46.9402860  60.7983480  35.8855190
  49.8475310  61.4670500  21.4039720  49.2985410  61.9139800  22.0482460
  50.4694570  60.9619750  21.9277390  53.9010250  62.8212600  37.3361980
  54.6419720  63.1588360  36.8329440  53.1382930  62.9904660  36.7831750
  41.7372040  57.8265870  38.1401510  41.7777380  57.5279740  39.0486740
  42.5917540  58.2273480  37.9809030  45.5150430  60.4261420  23.3005020
  45.9366850  60.2601290  24.1436410  45.6401270  59.6161650  22.8060160
  43.6777850  56.4057970  36.1076000  43.1474310  55.9148920  35.4799340
  44.3465920  56.8342170  35.5733930  48.0278070  59.4499030  20.5482120
  48.5483730  58.7348050  20.1823270  48.6746470  60.0884900  20.8482630
  52.5755910  60.8727430  35.8717190  52.9896930  61.0272510  36.7207610
  51.6406910  60.9982650  36.0342970  53.0478080  58.2123590  37.8756340
  53.6298850  57.4575910  37.7876820  53.2239850  58.7431030  37.0987820
  44.1650150  53.3720340  36.1873290  44.0707020  52.7541090  35.4624160
  43.5847540  54.0986630  35.9603200  46.9311590  51.9293580  33.2200680
  46.4828890  51.9517840  32.3746230  46.2976790  51.5312600  33.8170980
  47.3371140  60.8247910  33.8413120  47.7559250  61.6680640  33.6689360
  46.4179770  60.9619950  33.6119900  49.6735040  58.5564090  35.2250960
  49.7931250  57.9605230  35.9645800  50.5329040  58.5933780  34.8052260
  52.0122940  59.1101280  33.8013470  51.4858160  59.6343900  33.1978610
  52.3554280  59.7428670  34.4323200  44.4109330  56.4994650  20.2463180
  44.2098390  55.6362010  20.6076520  44.2401380  56.4128010  19.3084780
  45.1878560  67.1300920  34.9570850  44.6499650  67.8546980  34.6379550
  45.4412520  66.6531260  34.1668190  46.4403810  55.0985440  36.4826780
  47.0303500  54.7901290  37.1704600  45.6224050  54.6265190  36.6386680
  51.2597240  54.7151250  36.7159800  50.5712760  54.0532790  36.6509790
  51.9803260  54.2689520  37.1608260  51.8897640  51.3102880  22.7750060
  52.1699930  50.4670780  23.1309480  51.1163370  51.5425990  23.2888810
  43.2092130  53.5995270  20.2341060  43.5118030  53.6062700  19.3260210
  43.9486720  53.2493130  20.7308720  48.0440770  68.3652130  35.2157500
  47.9699470  69.2687270  35.5229870  47.1419610  68.0464030  35.1879570
  46.4277060  52.5429890  21.2197260  46.0799060  51.8653880  20.6399710
  46.6289830  52.0819400  22.0340650  48.5926100  67.5310640  22.8383860
  49.4876890  67.8695610  22.8602620  48.6243730  66.8090050  22.2108140
  42.2322260  62.9037690  21.0670860  42.6697130  63.4467360  21.7228440
  42.7169990  62.0784640  21.0767200  39.4468060  65.6926720  28.5191120
  39.7771070  64.8247780  28.2869760  39.8759060  65.8985240  29.3496080
  44.0429980  64.0235730  26.1793090  43.7425520  63.9000700  27.0797000
  43.9367470  63.1644320  25.7708820  39.9358270  66.5597310  31.2572750
  39.4989260  66.7398110  32.0896900  40.5035950  67.3171930  31.1154470
  55.5720450  66.0614310  35.5450060  54.9722440  66.1206870  34.8013980
  55.7014350  65.1219290  35.6746910  39.7682700  59.0717540  27.6161630
  39.1131540  58.8029180  26.9721330  40.6060650  58.9622020  27.1663610
  54.2572090  62.7866290  33.6426220  53.4431930  63.2163450  33.9052010
  54.6646290  63.3984700  33.0295270  56.3197530  60.8413980  20.5426490
  56.5946370  61.7492860  20.4145710  56.1308270  60.7776510  21.4788480
  52.7173140  53.8658830  21.8380120  53.1358020  53.6789810  20.9976780
  52.4109200  53.0137880  22.1483050  56.2162870  58.7782970  25.5355920
  55.8406470  58.0110900  25.1037210  55.4865990  59.1605670  26.0230850
  40.8058630  59.4570110  32.1564970  41.1731670  59.3697510  33.0360990
  40.2369450  58.6936660  32.0571830  55.6062490  57.9254490  35.1695440
  55.3748580  57.6967240  34.2693390  55.8667040  58.8454040  35.1240330
  40.3574630  56.3679200  36.0623390  39.4630680  56.3345960  36.4017100
  40.8972180  56.5665990  36.8274640  54.0450560  53.1510920  37.9475140
  54.9220740  53.1594320  38.3309140  54.0571400  52.4141760  37.3367490
  38.9820780  56.2816470  23.5586960  38.0784860  56.5446670  23.3838620
  39.4661400  56.5527640  22.7786920  55.4913830  57.0040460  28.8363160
  56.0151310  56.5103110  28.2053330  56.0773250  57.1390820  29.5810730
  55.6703550  57.0880330  32.3582710  54.7206260  57.0543870  32.4727700
  55.8516560  57.9980440  32.1232480  41.5247990  55.3382010  21.4681340
  42.2339690  54.9165230  20.9828620  40.8087930  55.4057240  20.8364690
  41.1722150  51.3921340  20.5083990  41.8950280  51.9330280  20.8265210
  41.4446670  51.1184760  19.6325530  54.9813800  56.2613810  24.7755570
  55.4772920  56.0284680  25.5604450  54.7829870  55.4225650  24.3593210
  40.8614340  50.6427530  30.4106610  41.5090530  50.0924910  29.9701770
  41.2816180  50.8970680  31.2322420  54.7566680  50.8368890  33.7676250
  55.3938900  51.4503030  34.1335440  54.9041570  50.8729550  32.8225480
  54.3148140  67.5384890  27.1694490  54.9107210  67.2169460  26.4928910
  54.5726290  67.0656710  27.9607760  40.6146340  50.7983200  33.1531930
  40.2661160  51.2547020  33.9190110  40.2834040  49.9040330  33.2354360
  42.2210710  63.9702800  37.3185120  42.1780340  63.5995710  38.1999580
  42.3521720  64.9080370  37.4586940  45.9216740  65.5262390  32.9194840
  45.6808100  65.7936950  32.0325360  46.8619380  65.6968120  32.9745700
  48.1271160  51.9895080  36.6751350  48.0660050  52.5816910  37.4246760
  49.0671540  51.8821040  36.5301610  50.7645720  51.6465140  36.3143640
  51.3786130  51.9644430  35.6524720  51.3095280  51.1613730  36.9339500
  41.2866980  50.3259400  36.4282700  41.8349970  50.1447450  35.6648810
  41.3522290  49.5353510  36.9639010  42.0598740  66.9165050  34.4382900
  41.4659060  66.7849750  35.1772940  42.0522580  66.0803190  33.9725000
  51.5053760  50.2097280  32.6412930  50.6313600  50.5432390  32.4385860
  51.3964510  49.7370460  33.4664800  52.4125740  52.4168150  34.0254650
  52.0839100  51.6019910  33.6456380  53.3608040  52.3737960  33.9020340
  54.8660350  68.1880190  30.9992220  54.4063320  68.9396000  30.6250240
  54.2372810  67.4686660  30.9407020  41.6910970  64.2823430  33.3890940
  40.9645030  63.6628720  33.3216890  41.7520120  64.6764040  32.5189020
  45.2956070  66.4968430  30.1740350  45.8121090  65.8855790  29.6488610
  45.9453450  66.9997210  30.6651360  48.0351570  67.3876920  31.0009330
  48.3229380  67.1331220  30.1242340  48.5474790  66.8354280  31.5914900
  49.2528580  51.1267120  31.5805840  48.4700370  51.6012620  31.8602600
  48.9591510  50.2221950  31.4719020  53.8049650  51.8290220  29.6254930
  54.2457740  51.7735320  28.7776530  53.5357240  52.7448230  29.6965110
  55.6688220  51.4605460  27.6363750  55.6076620  50.5166680  27.4894770
  56.4480250  51.5685550  28.1817210  39.9740970  67.5997820  26.5987700
  39.8063010  66.9668500  27.2969590  39.1075480  67.8057220  26.2481890
  40.5968990  51.4314600  24.1019560  41.3548350  51.5443480  23.5283590
  40.1346160  52.2683800  24.0562990  47.1382800  53.5453870  27.0921870
  46.3257310  53.1710760  26.7517750  47.6424440  52.7898950  27.3943060
  51.6407780  50.2096320  28.3304940  52.2437150  50.7816530  28.8053460
  50.9000770  50.7735760  28.1078840  54.7842380  50.6117880  23.6045220
  54.9793010  51.5101330  23.8712650  53.9972250  50.3804960  24.0978170
  41.5803670  66.2931050  24.0437840  41.0551290  66.6739080  23.3399800
  41.5048250  66.9181820  24.7647550  42.9694140  51.9578650  22.6421530
  43.4986900  51.1708450  22.5129480  43.6022460  52.6369840  22.8757060
  45.1631980  51.6953790  25.6966920  44.5334720  50.9941100  25.8637050
  44.6237120  52.4557920  25.4800080  48.1023930  68.3093020  38.3677530
  49.0291240  68.0737290  38.4113490  48.0874360  69.1365020  37.8863560
  56.3368990  67.8518590  25.3651780  56.5121180  67.1656330  24.7212700
  55.6390560  68.3765640  24.9728450  45.2887540  50.9737770  38.1319410
  45.0071810  51.4771370  37.3680230  45.6707240  50.1759520  37.7661540
  44.1796640  68.2413430  22.9187090  44.9115460  67.9572710  22.3710980
  44.4390310  68.0026710  23.8086470  43.3411430  64.3578160  22.9233420
  42.7120310  64.8263260  23.4719250  43.4559260  63.5127380  23.3579610
  51.8903000  50.3891350  38.7099880  51.7768450  50.7085960  39.6051400
  52.7072740  50.7903860  38.4137160  54.6701490  67.5362880  38.1918570
  55.4626810  67.0412110  37.9844530  54.9634640  68.2153020  38.7994180
  50.7961150  58.4083820   9.0734620  50.7155200  57.4938430   8.8026330
  50.3825570  58.9050890   8.3674330  48.9279190  60.1862840  10.9543890
  48.1521290  59.7063280  11.2442460  49.5792120  59.5068490  10.7800050
  42.9445020  60.4982650  11.8319650  42.1129900  60.2431360  12.2316160
  43.5526000  60.5693420  12.5677570  52.9486620  64.5923030   9.7343020
  52.4868150  63.8210270  10.0630190  53.7612170  64.6189100  10.2395470
  42.9246280  64.5322740  12.0277670  43.2274320  63.6420480  11.8487890
  43.6689870  65.0892960  11.7999920  41.3536970  55.4584540   5.6162040
  40.4653670  55.8000510   5.5141920  41.6378160  55.2584860   4.7242870
  39.3169980  58.0590190  11.5001740  39.8886090  57.2912390  11.5005380
  39.3171520  58.3578950  10.5908350  49.1749930  66.8781040   9.3547010
  48.5561370  67.3338540   8.7841450  50.0301710  67.0332500   8.9536710
  48.3688180  62.8620030  10.9614050  48.2996460  61.9209970  10.8003180
  49.1308040  62.9521440  11.5336620  40.5594850  53.4674550  13.2870670
  40.3797690  52.5700300  13.5673430  40.1574930  54.0146420  13.9617620
  49.3993350  55.6690410  11.1882980  49.7758170  54.7962290  11.0756650
  49.3012860  56.0049110  10.2973420  43.5298360  54.0416040   6.6500420
  43.6365110  54.9419770   6.9569180  42.6190720  53.9934010   6.3595070
  53.1817470  53.1640850   8.1211320  54.0027090  52.6737420   8.1636800
  53.2151550  53.7538510   8.8743160  41.1781520  55.9635050  11.8953010
  41.8591630  56.2273420  12.5140410  40.8629570  55.1235920  12.2291020
  45.3706090  57.0102410  10.9825600  45.8784310  57.5083380  11.6230620
  45.9019330  56.2337610  10.8064960  43.6542190  51.6500970  15.2489020
  43.6560630  52.1673360  14.4434920  42.8246500  51.1731150  15.2258950
  50.0413280  61.7620280   6.7478920  49.4230550  62.2269730   6.1841640
  50.5536530  62.4547760   7.1648430  44.9045040  61.2896150  13.4262520
  44.5714420  61.9165070  14.0683590  45.0811720  61.8158030  12.6464190
  53.4178950  55.1041230  10.8938860  52.7134520  55.3926120  11.4741970
  53.7791110  55.9141340  10.5338420  43.3357520  53.3610930  13.2559470
  43.6774330  54.2052980  12.9613340  42.3973330  53.5094670  13.3724810
  44.1164140  63.2576950  15.2411700  44.7338140  63.9328030  14.9596150
  43.2557260  63.6664930  15.1499200  39.4096480  62.4476810   4.1218550
  39.0324460  62.9363910   3.3903450  39.6669550  63.1202090   4.7525080
  55.0341730  64.7216360  13.1566340  54.3505250  65.3915470  13.1483010
  55.5736020  64.9197010  12.3911200  56.4865870  54.5496020  11.2848070
  55.5390780  54.5835000  11.4163500  56.8115860  55.3634970  11.6697430
  47.0185410  50.8493200   9.5804060  47.3260390  50.2940090   8.8639560
  46.0886110  50.9837660   9.3977050  52.5700470  66.5660490  11.8711520
  52.5827630  66.1622780  11.0033780  52.0175690  67.3407780  11.7672950
  53.8645890  63.2876710   6.9601690  53.7542220  62.3451040   7.0851110
  53.8614140  63.6492350   7.8464450  51.9685910  61.4690330  13.1994130
  52.3854700  61.2550440  12.3647590  52.6925730  61.7263120  13.7702750
  49.4066170  58.9142030   6.3164180  48.4795450  58.8479410   6.5452650
  49.5590990  59.8522160   6.2019420  49.3935250  55.1859030   3.3131340
  48.4538920  55.3472990   3.3983800  49.7118510  55.9044710   2.7667330
  55.9148010  59.8677550  13.2910370  55.0866640  59.9370640  12.8160500
  56.5098490  60.4531860  12.8226200  53.4363460  60.4762330   6.8199430
  52.8175880  60.1381880   6.1725730  53.4187910  59.8322090   7.5278620
  52.8790020  56.6546870  14.2365240  52.4661200  57.4800580  14.4905230
  52.1465970  56.0691910  14.0441600  45.0122810  59.4406770   9.0983910
  44.6079810  58.7284020   8.6029810  45.0985930  59.0960010   9.9871950
  45.4804510  63.1274330  11.2623120  45.1832800  62.5219800  10.5830900
  46.4304330  63.1651640  11.1512480  43.7251430  56.2149980  12.8782950
  44.2766020  56.3245320  12.1036200  44.2394940  56.5887580  13.5938180
  53.5690120  66.7006200  14.9246220  53.0920680  67.5078390  14.7318830
  52.8851910  66.0484530  15.0772430  44.5722940  62.8656020  17.9130920
  43.6751470  63.0895990  18.1604320  44.5975810  62.9890960  16.9642320
  51.6128160  59.7149140   3.8272180  52.0521440  58.8771570   3.6810000
  52.3256580  60.3478540   3.9136320  43.3994160  59.7369340  16.4888290
  43.2601930  60.6092140  16.8575690  42.5175520  59.3942150  16.3436230
  49.7223540  64.6545210   7.7953420  50.1619450  65.3969540   7.3808810
  49.6610430  64.8971780   8.7192380  45.1974510  65.6791040  18.6973440
  45.1689940  66.0833990  17.8301870  45.0339480  64.7501400  18.5345040
  55.1945300  50.9691950   2.1413220  54.8817960  51.0618780   3.0412290
  55.9557770  51.5472980   2.0910650  41.7127440  58.3351750   6.5990560
  41.5925040  59.0613840   5.9871830  41.4028330  57.5654660   6.1218470
  39.3512810  61.5066890  12.4059200  39.4293230  61.6415660  11.4614920
  39.9654490  60.7982780  12.5987320  40.5960440  63.2067080   8.8165380
  40.1888520  63.3481670   7.9618980  41.4873450  62.9227240   8.6136590
  56.5522580  63.6530990  17.1537620  56.6785640  63.4142870  16.2354800
  56.5943960  62.8215530  17.6259700  50.4139320  67.3558990  15.7232430
  50.9283990  67.2667000  16.5254860  49.5708400  67.7018690  16.0160340
  52.3893720  67.6414330   5.1516430  52.2294860  67.3517270   6.0498260
  52.2240430  66.8654460   4.6161660  44.8682100  67.4212860   6.9288050
  44.6924580  66.5048400   6.7155850  44.0137840  67.7800150   7.1685850
  52.0919850  65.1501890   3.7114430  51.3985010  65.1479180   3.0516710
  52.8342710  64.7261210   3.2808600  51.6569780  66.7764600   7.7862920
  52.1126730  65.9953980   8.1001540  51.9962300  67.4871420   8.3304100
  56.4046590  55.7063450  18.1187360  55.7890860  56.2143120  17.5902820
  56.0843010  54.8061780  18.0613300  39.4072330  62.5481060  14.9453660
  39.5703370  62.0786420  14.1273030  39.8724780  62.0404620  15.6102500
  44.1791100  51.6786820   9.9814230  43.7359250  52.4596360   9.6498750
  44.7376090  52.0016710  10.6885170  48.4660910  54.5455340  15.5849550
  48.0040280  54.7538360  16.3969490  48.0639020  53.7314690  15.2820220
  53.4665420  55.7664290  16.7146210  52.6159010  55.4670040  17.0355280
  53.3067210  56.0106300  15.8030030  50.5615130  57.2666040  18.8145000
  50.8868540  56.4329790  18.4747230  51.3495460  57.7894560  18.9623330
  47.2949920  51.2997520   4.8620060  46.6704100  51.2957390   5.5873370
  47.2080040  50.4328480   4.4656030  46.2167000  52.2234150  11.8403830
  46.5139330  53.1296980  11.7595850  46.7652560  51.7352930  11.2263400
  43.9705320  56.8020390   7.7095480  43.7446240  56.5857560   8.6142100
  43.1897850  57.2348850   7.3641450  51.2003080  56.8083760   6.3086130
  50.6011970  57.5319560   6.1249750  51.7482690  56.7460540   5.5262580
  46.4104530  57.7005970  18.3755750  46.3148130  56.7600700  18.2256150
  47.2536510  57.9221040  17.9803820  49.8067950  55.4447300   8.3389410
  50.1997520  55.7619500   7.5258100  50.1684800  54.5659180   8.4533930
  41.5415070  54.1119640  16.5289530  41.1478460  54.9594850  16.7362310
  40.8533470  53.4746010  16.7198170  48.1160120  54.1954610  19.5986270
  47.4258440  54.0026810  20.2332360  48.8592420  54.4789250  20.1310570
  38.8432120  52.0348100  10.5619610  38.5545170  52.6050960  11.2744590
  39.5877880  51.5552550  10.9250840  50.3923090  58.0353050  12.4340190
  49.6604210  58.5439860  12.7830290  49.9947430  57.2183030  12.1328970
  46.8300480  54.7107250  10.8392680  46.8336540  54.2697200   9.9897220
  47.7251600  55.0324580  10.9464500  42.6802860  54.5933740   9.7986890
  42.3402910  55.0708970  10.5553940  41.9180180  54.1398860   9.4387990
  46.8920630  55.7119330   3.8299440  47.0133450  55.6705810   4.7785260
  46.5069140  56.5743480   3.6746170  50.8549000  53.4886730  11.8463130
  50.8721740  53.9395380  12.6904980  50.6064580  52.5892370  12.0596570
  45.9042130  58.0220470   3.2282740  45.3359030  57.5738720   2.6018650
  46.6131130  58.3813250   2.6947890  54.2819750  50.9018910  17.6849510
  54.6065520  50.1708570  18.2107490  54.3176260  50.5832550  16.7830500
  40.9811310  61.9232490  17.1049470  40.5966100  61.2826160  17.7032430
  41.2923500  62.6268610  17.6744200  47.1308450  58.7709030  12.5858090
  47.4978580  58.2967600  13.3319430  46.9413510  59.6450600  12.9266430
  39.9948940  53.5152720   8.7151560  39.7095860  53.1508390   9.5530180
  39.9327800  52.7833180   8.1014700  44.9207820  57.8117670  14.9042300
  44.6164890  58.6909650  15.1292660  45.8754280  57.8717460  14.9399740
  43.4489610  62.0178660   5.5009150  42.6751870  61.4776280   5.3407870
  44.1784240  61.4985270   5.1626910  54.2077590  61.0144020  11.2935540
  54.9276710  61.5099310  10.9031650  54.0059410  60.3361910  10.6489410
  49.6687530  52.4081980   5.4364930  48.8552140  51.9095150   5.3610240
  49.4749480  53.2480230   5.0201280  49.5896390  61.0853080  17.1804540
  49.5233700  60.1648750  16.9262130  48.9601530  61.1828520  17.8949180
  52.3835920  56.7801630   3.7327090  53.2715540  57.0918860   3.5578430
  52.3541010  55.9073880   3.3407670  43.4927010  61.6859040   9.1387960
  44.0105680  60.8827300   9.0844850  43.0411030  61.6238180   9.9804790
  48.3796510  62.9525320   4.4115260  48.7212210  63.6967550   3.9158580
  47.5509220  63.2656440   4.7740090  40.9771550  58.6520410  16.0513660
  40.6186490  59.3174260  16.6387000  40.6826110  57.8203960  16.4226280
  44.1784670  59.1104650  18.9353210  43.8784810  59.2561830  18.0381030
  44.9495910  58.5509940  18.8426600  49.5213120  63.9073650  16.9308340
  49.5357660  62.9754610  16.7127250  48.8138220  63.9933410  17.5698110
  54.6550190  58.0913470   3.2006950  54.5713910  58.5227690   2.3503390
  55.3744380  58.5511820   3.6333770  55.7324330  60.5480990  16.2776920
  55.0072520  61.1409770  16.0806310  56.2599790  60.5404530  15.4790290
  55.6837440  64.9455730   5.9289080  55.0413600  64.2911350   6.2032800
  55.2968100  65.3510820   5.1529750  51.2623920  62.2741160   9.7760770
  51.6147740  61.6769290   9.1162140  50.3786250  61.9485390   9.9469020
  47.3487200  63.0338850   7.1831180  48.0358330  63.5808060   7.5638770
  46.5619620  63.5779580   7.2180790  39.4879600  58.6511670   2.6748260
  40.3574450  58.9336470   2.9584180  38.9969920  59.4647540   2.5597070
  46.6514410  60.0384880   6.7956540  47.1077190  60.8490130   7.0216730
  46.3002620  59.7208020   7.6275030  48.9547020  65.5491220  14.0248840
  49.5989240  65.7550600  14.7022260  49.3176460  64.7879620  13.5719690
  42.5526190  50.3822530   7.2679060  42.4240820  50.3740430   8.2163980
  41.7288210  50.7205620   6.9170070  50.2279100  63.5523570  12.7426290
  50.8701330  62.8516730  12.8558460  50.7528450  64.3322010  12.5623180
  54.0734820  63.8372190   2.4665430  53.8472400  63.1202630   3.0590070
  53.6831020  63.5884630   1.6287180  52.0016720  64.3518470  15.9462350
  52.3372960  64.9385160  16.6240270  51.0817060  64.2211180  16.1760140
  39.8550850  67.8639050   3.2409890  40.2148490  68.4628390   2.5867160
  39.7143190  68.4098940   4.0144920  39.5520120  52.1413650  16.7285760
  38.8378640  52.3410570  17.3338370  39.9715160  51.3653220  17.1000560
  53.6551070  61.7544130   4.1279590  53.3672770  62.2156820   4.9157470
  54.4503240  61.2941900   4.3963810  39.8392710  66.1293910  17.7152290
  39.9483830  65.1888650  17.5747680  39.1873270  66.3948660  17.0666020
  47.8305300  64.4009800  19.1150410  47.5102170  63.6819040  19.6596100
  47.1563660  65.0764870  19.1886470  45.8719470  65.2470250   4.0583560
  45.8629570  65.9799940   3.4428070  44.9517830  65.0001830   4.1510520
  41.4726110  60.4685140   4.8030320  40.8654060  61.2084040   4.8125620
  41.9475460  60.5584500   3.9768520  51.0458900  54.6335960  14.4787210
  51.4139720  53.8131170  14.8066780  50.1857100  54.6937850  14.8942860
  54.4120930  53.5892900   5.2874770  53.7834090  53.6938570   4.5733000
  53.9172850  53.8089680   6.0768650  48.8579070  65.3098490   2.7208750
  48.9591050  65.1062480   1.7910730  47.9580810  65.0556770   2.9256530
  46.3804960  55.8678850   6.7032650  45.6721110  56.3365190   7.1446260
  46.6649440  55.2100860   7.3377840  48.0060890  57.2875550  14.7025180
  48.5046140  57.7621370  15.3677030  48.1483840  56.3639070  14.9095210
  50.4120390  52.5929510   8.1428440  50.2888170  52.6115640   7.1937950
  51.3604950  52.6408450   8.2626840  47.4997180  67.8284810   7.4156420
  47.7538680  67.7906200   6.4935790  46.5509660  67.7018140   7.4084670
  44.5839980  54.1763930   4.0783360  45.4330510  54.6134080   4.0123550
  44.2171250  54.4884190   4.9055420  55.2127750  53.5043510  15.5453570
  54.7101350  54.2448910  15.8847380  56.0284410  53.8927510  15.2290360
  53.5049760  58.7476690   8.9914930  52.5639900  58.7626920   9.1662620
  53.8193830  57.9612650   9.4375230  43.4831400  60.4296290   2.5518890
  44.2494670  60.3177650   3.1144320  43.5606090  59.7334260   1.8995660
  42.1778160  57.8621360   3.2351780  42.2581750  56.9148870   3.3469180
  43.0697910  58.1928240   3.3412440  55.5075340  65.9185540  10.6669190
  55.6322760  66.7416710  11.1393000  56.3740900  65.7076270  10.3193340
  42.9792870  68.0116750  10.3386320  43.7155350  67.4632210  10.6094890
  43.3633790  68.8772760  10.1992310  39.8638350  64.0790320   6.2127830
  38.9378130  64.3211460   6.2033240  40.3294780  64.9064580   6.0912580
  41.9851150  67.1962820  19.5271900  42.7863880  67.5174870  19.9407300
  41.4702970  66.8358400  20.2491810  46.0895180  67.1847060   2.1611890
  46.8823790  67.4735890   1.7093680  45.5699530  66.7539230   1.4824370
  50.8215780  63.3042690  19.4747310  50.2153940  63.3274290  18.7343060
  50.5169890  62.5725730  20.0114560  52.2516150  67.0322980  18.0856720
  53.2037900  66.9481000  18.0356960  52.1044370  67.6964690  18.7590510
  55.1425350  66.4117190   3.5848630  54.8566860  65.9982330   2.7702810
  54.9444900  67.3404900   3.4649150  39.7048960  59.6836280  18.4707950
  40.2087980  59.1043560  19.0424180  38.9656380  59.9676510  19.0084320
  46.7586900  61.0907270  18.0043470  45.9932570  61.6592270  17.9198140
  46.9402860  60.7983480  17.1111700  49.8475310  61.4670500   2.6296230
  49.2985410  61.9139800   3.2738970  50.4694570  60.9619750   3.1533900
  53.9010250  62.8212600  18.5618490  54.6419720  63.1588360  18.0585950
  53.1382930  62.9904660  18.0088260  41.7372040  57.8265870  19.3658020
  41.7777380  57.5279740  20.2743250  42.5917540  58.2273480  19.2065540
  45.5150430  60.4261420   4.5261530  45.9366850  60.2601290   5.3692920
  45.6401270  59.6161650   4.0316670  43.6777850  56.4057970  17.3332510
  43.1474310  55.9148920  16.7055850  44.3465920  56.8342170  16.7990440
  52.5755910  60.8727430  17.0973700  52.9896930  61.0272510  17.9464120
  51.6406910  60.9982650  17.2599480  53.0478080  58.2123590  19.1012850
  53.6298850  57.4575910  19.0133330  53.2239850  58.7431030  18.3244330
  44.1650150  53.3720340  17.4129800  44.0707020  52.7541090  16.6880670
  43.5847540  54.0986630  17.1859710  46.9311590  51.9293580  14.4457190
  46.4828890  51.9517840  13.6002740  46.2976790  51.5312600  15.0427490
  47.3371140  60.8247910  15.0669630  47.7559250  61.6680640  14.8945870
  46.4179770  60.9619950  14.8376410  49.6735040  58.5564090  16.4507470
  49.7931250  57.9605230  17.1902310  50.5329040  58.5933780  16.0308770
  52.0122940  59.1101280  15.0269980  51.4858160  59.6343900  14.4235120
  52.3554280  59.7428670  15.6579710  45.1878560  67.1300920  16.1827360
  44.6499650  67.8546980  15.8636060  45.4412520  66.6531260  15.3924700
  46.4403810  55.0985440  17.7083290  47.0303500  54.7901290  18.3961110
  45.6224050  54.6265190  17.8643190  51.2597240  54.7151250  17.9416310
  50.5712760  54.0532790  17.8766300  51.9803260  54.2689520  18.3864770
  51.8897640  51.3102880   4.0006570  52.1699930  50.4670780   4.3565990
  51.1163370  51.5425990   4.5145320  48.0440770  68.3652130  16.4414010
  47.9699470  69.2687270  16.7486380  47.1419610  68.0464030  16.4136080
  46.4277060  52.5429890   2.4453770  46.0799060  51.8653880   1.8656220
  46.6289830  52.0819400   3.2597160  48.5926100  67.5310640   4.0640370
  49.4876890  67.8695610   4.0859130  48.6243730  66.8090050   3.4364650
  42.2322260  62.9037690   2.2927370  42.6697130  63.4467360   2.9484950
  42.7169990  62.0784640   2.3023710  39.4468060  65.6926720   9.7447630
  39.7771070  64.8247780   9.5126270  39.8759060  65.8985240  10.5752590
  44.0429980  64.0235730   7.4049600  43.7425520  63.9000700   8.3053510
  43.9367470  63.1644320   6.9965330  39.9358270  66.5597310  12.4829260
  39.4989260  66.7398110  13.3153410  40.5035950  67.3171930  12.3410980
  55.5720450  66.0614310  16.7706570  54.9722440  66.1206870  16.0270490
  55.7014350  65.1219290  16.9003420  39.7682700  59.0717540   8.8418140
  39.1131540  58.8029180   8.1977840  40.6060650  58.9622020   8.3920120
  54.2572090  62.7866290  14.8682730  53.4431930  63.2163450  15.1308520
  54.6646290  63.3984700  14.2551780  56.3197530  60.8413980   1.7683000
  56.5946370  61.7492860   1.6402220  56.1308270  60.7776510   2.7044990
  52.7173140  53.8658830   3.0636630  53.1358020  53.6789810   2.2233290
  52.4109200  53.0137880   3.3739560  56.2162870  58.7782970   6.7612430
  55.8406470  58.0110900   6.3293720  55.4865990  59.1605670   7.2487360
  40.8058630  59.4570110  13.3821480  41.1731670  59.3697510  14.2617500
  40.2369450  58.6936660  13.2828340  55.6062490  57.9254490  16.3951950
  55.3748580  57.6967240  15.4949900  55.8667040  58.8454040  16.3496840
  40.3574630  56.3679200  17.2879900  39.4630680  56.3345960  17.6273610
  40.8972180  56.5665990  18.0531150  54.0450560  53.1510920  19.1731650
  54.9220740  53.1594320  19.5565650  54.0571400  52.4141760  18.5624000
  38.9820780  56.2816470   4.7843470  38.0784860  56.5446670   4.6095130
  39.4661400  56.5527640   4.0043430  55.4913830  57.0040460  10.0619670
  56.0151310  56.5103110   9.4309840  56.0773250  57.1390820  10.8067240
  55.6703550  57.0880330  13.5839220  54.7206260  57.0543870  13.6984210
  55.8516560  57.9980440  13.3488990  41.5247990  55.3382010   2.6937850
  42.2339690  54.9165230   2.2085130  40.8087930  55.4057240   2.0621200
  54.9813800  56.2613810   6.0012080  55.4772920  56.0284680   6.7860960
  54.7829870  55.4225650   5.5849720  40.8614340  50.6427530  11.6363120
  41.5090530  50.0924910  11.1958280  41.2816180  50.8970680  12.4578930
  54.7566680  50.8368890  14.9932760  55.3938900  51.4503030  15.3591950
  54.9041570  50.8729550  14.0481990  54.3148140  67.5384890   8.3951000
  54.9107210  67.2169460   7.7185420  54.5726290  67.0656710   9.1864270
  40.6146340  50.7983200  14.3788440  40.2661160  51.2547020  15.1446620
  40.2834040  49.9040330  14.4610870  42.2210710  63.9702800  18.5441630
  42.1780340  63.5995710  19.4256090  42.3521720  64.9080370  18.6843450
  45.9216740  65.5262390  14.1451350  45.6808100  65.7936950  13.2581870
  46.8619380  65.6968120  14.2002210  48.1271160  51.9895080  17.9007860
  48.0660050  52.5816910  18.6503270  49.0671540  51.8821040  17.7558120
  50.7645720  51.6465140  17.5400150  51.3786130  51.9644430  16.8781230
  51.3095280  51.1613730  18.1596010  41.2866980  50.3259400  17.6539210
  41.8349970  50.1447450  16.8905320  41.3522290  49.5353510  18.1895520
  42.0598740  66.9165050  15.6639410  41.4659060  66.7849750  16.4029450
  42.0522580  66.0803190  15.1981510  51.5053760  50.2097280  13.8669440
  50.6313600  50.5432390  13.6642370  51.3964510  49.7370460  14.6921310
  52.4125740  52.4168150  15.2511160  52.0839100  51.6019910  14.8712890
  53.3608040  52.3737960  15.1276850  54.8660350  68.1880190  12.2248730
  54.4063320  68.9396000  11.8506750  54.2372810  67.4686660  12.1663530
  41.6910970  64.2823430  14.6147450  40.9645030  63.6628720  14.5473400
  41.7520120  64.6764040  13.7445530  45.2956070  66.4968430  11.3996860
  45.8121090  65.8855790  10.8745120  45.9453450  66.9997210  11.8907870
  48.0351570  67.3876920  12.2265840  48.3229380  67.1331220  11.3498850
  48.5474790  66.8354280  12.8171410  49.2528580  51.1267120  12.8062350
  48.4700370  51.6012620  13.0859110  48.9591510  50.2221950  12.6975530
  53.8049650  51.8290220  10.8511440  54.2457740  51.7735320  10.0033040
  53.5357240  52.7448230  10.9221620  55.6688220  51.4605460   8.8620260
  55.6076620  50.5166680   8.7151280  56.4480250  51.5685550   9.4073720
  39.9740970  67.5997820   7.8244210  39.8063010  66.9668500   8.5226100
  39.1075480  67.8057220   7.4738400  40.5968990  51.4314600   5.3276070
  41.3548350  51.5443480   4.7540100  40.1346160  52.2683800   5.2819500
  47.1382800  53.5453870   8.3178380  46.3257310  53.1710760   7.9774260
  47.6424440  52.7898950   8.6199570  51.6407780  50.2096320   9.5561450
  52.2437150  50.7816530  10.0309970  50.9000770  50.7735760   9.3335350
  54.7842380  50.6117880   4.8301730  54.9793010  51.5101330   5.0969160
  53.9972250  50.3804960   5.3234680  41.5803670  66.2931050   5.2694350
  41.0551290  66.6739080   4.5656310  41.5048250  66.9181820   5.9904060
  42.9694140  51.9578650   3.8678040  43.4986900  51.1708450   3.7385990
  43.6022460  52.6369840   4.1013570  45.1631980  51.6953790   6.9223430
  44.5334720  50.9941100   7.0893560  44.6237120  52.4557920   6.7056590
  48.1023930  68.3093020  19.5934040  49.0291240  68.0737290  19.6370000
  48.0874360  69.1365020  19.1120070  56.3368990  67.8518590   6.5908290
  56.5121180  67.1656330   5.9469210  55.6390560  68.3765640   6.1984960
  45.2887540  50.9737770  19.3575920  45.0071810  51.4771370  18.5936740
  45.6707240  50.1759520  18.9918050  44.1796640  68.2413430   4.1443600
  44.9115460  67.9572710   3.5967490  44.4390310  68.0026710   5.0342980
  43.3411430  64.3578160   4.1489930  42.7120310  64.8263260   4.6975760
  43.4559260  63.5127380   4.5836120  51.8903000  50.3891350  19.9356390
  51.7768450  50.7085960  20.8307910  52.7072740  50.7903860  19.6393670
  54.6701490  67.5362880  19.4175080  55.4626810  67.0412110  19.2101040
  54.9634640  68.2153020  20.0250690  50.7961150  39.6340330  46.6221600
  50.7155200  38.7194940  46.3513310  50.3825570  40.1307400  45.9161310
  48.9279190  41.4119350  48.5030870  48.1521290  40.9319790  48.7929440
  49.5792120  40.7325000  48.3287030  42.9445020  41.7239160  49.3806630
  42.1129900  41.4687870  49.7803140  43.5526000  41.7949930  50.1164550
  52.9486620  45.8179540  47.2830000  52.4868150  45.0466780  47.6117170
  53.7612170  45.8445610  47.7882450  42.9246280  45.7579250  49.5764650
  43.2274320  44.8676990  49.3974870  43.6689870  46.3149470  49.3486900
  41.3536970  36.6841050  43.1649020  40.4653670  37.0257020  43.0628900
  41.6378160  36.4841370  42.2729850  39.3169980  39.2846700  49.0488720
  39.8886090  38.5168900  49.0492360  39.3171520  39.5835460  48.1395330
  49.1749930  48.1037550  46.9033990  48.5561370  48.5595050  46.3328430
  50.0301710  48.2589010  46.5023690  48.3688180  44.0876540  48.5101030
  48.2996460  43.1466480  48.3490160  49.1308040  44.1777950  49.0823600
  40.5594850  34.6931060  50.8357650  40.3797690  33.7956810  51.1160410
  40.1574930  35.2402930  51.5104600  49.3993350  36.8946920  48.7369960
  49.7758170  36.0218800  48.6243630  49.3012860  37.2305620  47.8460400
  43.5298360  35.2672550  44.1987400  43.6365110  36.1676280  44.5056160
  42.6190720  35.2190520  43.9082050  53.1817470  34.3897360  45.6698300
  54.0027090  33.8993930  45.7123780  53.2151550  34.9795020  46.4230140
  41.1781520  37.1891560  49.4439990  41.8591630  37.4529930  50.0627390
  40.8629570  36.3492430  49.7778000  45.3706090  38.2358920  48.5312580
  45.8784310  38.7339890  49.1717600  45.9019330  37.4594120  48.3551940
  43.6542190  32.8757480  52.7976000  43.6560630  33.3929870  51.9921900
  42.8246500  32.3987660  52.7745930  50.0413280  42.9876790  44.2965900
  49.4230550  43.4526240  43.7328620  50.5536530  43.6804270  44.7135410
  44.9045040  42.5152660  50.9749500  44.5714420  43.1421580  51.6170570
  45.0811720  43.0414540  50.1951170  53.4178950  36.3297740  48.4425840
  52.7134520  36.6182630  49.0228950  53.7791110  37.1397850  48.0825400
  43.3357520  34.5867440  50.8046450  43.6774330  35.4309490  50.5100320
  42.3973330  34.7351180  50.9211790  44.1164140  44.4833460  52.7898680
  44.7338140  45.1584540  52.5083130  43.2557260  44.8921440  52.6986180
  39.4096480  43.6733320  41.6705530  39.0324460  44.1620420  40.9390430
  39.6669550  44.3458600  42.3012060  55.0341730  45.9472870  50.7053320
  54.3505250  46.6171980  50.6969990  55.5736020  46.1453520  49.9398180
  56.4865870  35.7752530  48.8335050  55.5390780  35.8091510  48.9650480
  56.8115860  36.5891480  49.2184410  47.0185410  32.0749710  47.1291040
  47.3260390  31.5196600  46.4126540  46.0886110  32.2094170  46.9464030
  52.5700470  47.7917000  49.4198500  52.5827630  47.3879290  48.5520760
  52.0175690  48.5664290  49.3159930  53.8645890  44.5133220  44.5088670
  53.7542220  43.5707550  44.6338090  53.8614140  44.8748860  45.3951430
  51.9685910  42.6946840  50.7481110  52.3854700  42.4806950  49.9134570
  52.6925730  42.9519630  51.3189730  49.4066170  40.1398540  43.8651160
  48.4795450  40.0735920  44.0939630  49.5590990  41.0778670  43.7506400
  49.3935250  36.4115540  40.8618320  48.4538920  36.5729500  40.9470780
  49.7118510  37.1301220  40.3154310  55.9148010  41.0934060  50.8397350
  55.0866640  41.1627150  50.3647480  56.5098490  41.6788370  50.3713180
  53.4363460  41.7018840  44.3686410  52.8175880  41.3638390  43.7212710
  53.4187910  41.0578600  45.0765600  52.8790020  37.8803380  51.7852220
  52.4661200  38.7057090  52.0392210  52.1465970  37.2948420  51.5928580
  45.0122810  40.6663280  46.6470890  44.6079810  39.9540530  46.1516790
  45.0985930  40.3216520  47.5358930  45.4804510  44.3530840  48.8110100
  45.1832800  43.7476310  48.1317880  46.4304330  44.3908150  48.6999460
  43.7251430  37.4406490  50.4269930  44.2766020  37.5501830  49.6523180
  44.2394940  37.8144090  51.1425160  53.5690120  47.9262710  52.4733200
  53.0920680  48.7334900  52.2805810  52.8851910  47.2741040  52.6259410
  44.5722940  44.0912530  55.4617900  43.6751470  44.3152500  55.7091300
  44.5975810  44.2147470  54.5129300  51.6128160  40.9405650  41.3759160
  52.0521440  40.1028080  41.2296980  52.3256580  41.5735050  41.4623300
  43.3994160  40.9625850  54.0375270  43.2601930  41.8348650  54.4062670
  42.5175520  40.6198660  53.8923210  49.7223540  45.8801720  45.3440400
  50.1619450  46.6226050  44.9295790  49.6610430  46.1228290  46.2679360
  45.1974510  46.9047550  56.2460420  45.1689940  47.3090500  55.3788850
  45.0339480  45.9757910  56.0832020  55.1945300  32.1948460  39.6900200
  54.8817960  32.2875290  40.5899270  55.9557770  32.7729490  39.6397630
  41.7127440  39.5608260  44.1477540  41.5925040  40.2870350  43.5358810
  41.4028330  38.7911170  43.6705450  39.3512810  42.7323400  49.9546180
  39.4293230  42.8672170  49.0101900  39.9654490  42.0239290  50.1474300
  40.5960440  44.4323590  46.3652360  40.1888520  44.5738180  45.5105960
  41.4873450  44.1483750  46.1623570  56.5522580  44.8787500  54.7024600
  56.6785640  44.6399380  53.7841780  56.5943960  44.0472040  55.1746680
  50.4139320  48.5815500  53.2719410  50.9283990  48.4923510  54.0741840
  49.5708400  48.9275200  53.5647320  52.3893720  48.8670840  42.7003410
  52.2294860  48.5773780  43.5985240  52.2240430  48.0910970  42.1648640
  44.8682100  48.6469370  44.4775030  44.6924580  47.7304910  44.2642830
  44.0137840  49.0056660  44.7172830  52.0919850  46.3758400  41.2601410
  51.3985010  46.3735690  40.6003690  52.8342710  45.9517720  40.8295580
  51.6569780  48.0021110  45.3349900  52.1126730  47.2210490  45.6488520
  51.9962300  48.7127930  45.8791080  56.4046590  36.9319960  55.6674340
  55.7890860  37.4399630  55.1389800  56.0843010  36.0318290  55.6100280
  39.4072330  43.7737570  52.4940640  39.5703370  43.3042930  51.6760010
  39.8724780  43.2661130  53.1589480  44.1791100  32.9043330  47.5301210
  43.7359250  33.6852870  47.1985730  44.7376090  33.2273220  48.2372150
  48.4660910  35.7711850  53.1336530  48.0040280  35.9794870  53.9456470
  48.0639020  34.9571200  52.8307200  53.4665420  36.9920800  54.2633190
  52.6159010  36.6926550  54.5842260  53.3067210  37.2362810  53.3517010
  50.5615130  38.4922550  56.3631980  50.8868540  37.6586300  56.0234210
  51.3495460  39.0151070  56.5110310  47.2949920  32.5254030  42.4107040
  46.6704100  32.5213900  43.1360350  47.2080040  31.6584990  42.0143010
  46.2167000  33.4490660  49.3890810  46.5139330  34.3553490  49.3082830
  46.7652560  32.9609440  48.7750380  43.9705320  38.0276900  45.2582460
  43.7446240  37.8114070  46.1629080  43.1897850  38.4605360  44.9128430
  51.2003080  38.0340270  43.8573110  50.6011970  38.7576070  43.6736730
  51.7482690  37.9717050  43.0749560  46.4104530  38.9262480  55.9242730
  46.3148130  37.9857210  55.7743130  47.2536510  39.1477550  55.5290800
  49.8067950  36.6703810  45.8876390  50.1997520  36.9876010  45.0745080
  50.1684800  35.7915690  46.0020910  41.5415070  35.3376150  54.0776510
  41.1478460  36.1851360  54.2849290  40.8533470  34.7002520  54.2685150
  38.8432120  33.2604610  48.1106590  38.5545170  33.8307470  48.8231570
  39.5877880  32.7809060  48.4737820  39.0302350  37.2024730  39.3209310
  38.9477020  38.1455490  39.4624300  38.6785410  37.0599640  38.4421660
  50.3923090  39.2609560  49.9827170  49.6604210  39.7696370  50.3317270
  49.9947430  38.4439540  49.6815950  46.8300480  35.9363760  48.3879660
  46.8336540  35.4953710  47.5384200  47.7251600  36.2581090  48.4951480
  42.6802860  35.8190250  47.3473870  42.3402910  36.2965480  48.1040920
  41.9180180  35.3655370  46.9874970  46.8920630  36.9375840  41.3786420
  47.0133450  36.8962320  42.3272240  46.5069140  37.7999990  41.2233150
  50.8549000  34.7143240  49.3950110  50.8721740  35.1651890  50.2391960
  50.6064580  33.8148880  49.6083550  45.9042130  39.2476980  40.7769720
  45.3359030  38.7995230  40.1505630  46.6131130  39.6069760  40.2434870
  54.2819750  32.1275420  55.2336490  54.6065520  31.3965080  55.7594470
  54.3176260  31.8089060  54.3317480  40.9811310  43.1489000  54.6536450
  40.5966100  42.5082670  55.2519410  41.2923500  43.8525120  55.2231180
  47.1308450  39.9965540  50.1345070  47.4978580  39.5224110  50.8806410
  46.9413510  40.8707110  50.4753410  39.9948940  34.7409230  46.2638540
  39.7095860  34.3764900  47.1017160  39.9327800  34.0089690  45.6501680
  44.9207820  39.0374180  52.4529280  44.6164890  39.9166160  52.6779640
  45.8754280  39.0973970  52.4886720  43.4489610  43.2435170  43.0496130
  42.6751870  42.7032790  42.8894850  44.1784240  42.7241780  42.7113890
  54.2077590  42.2400530  48.8422520  54.9276710  42.7355820  48.4518630
  54.0059410  41.5618420  48.1976390  49.6687530  33.6338490  42.9851910
  48.8552140  33.1351660  42.9097220  49.4749480  34.4736740  42.5688260
  49.5896390  42.3109590  54.7291520  49.5233700  41.3905260  54.4749110
  48.9601530  42.4085030  55.4436160  52.3835920  38.0058140  41.2814070
  53.2715540  38.3175370  41.1065410  52.3541010  37.1330390  40.8894650
  43.4927010  42.9115550  46.6874940  44.0105680  42.1083810  46.6331830
  43.0411030  42.8494690  47.5291770  48.3796510  44.1781830  41.9602240
  48.7212210  44.9224060  41.4645560  47.5509220  44.4912950  42.3227070
  40.9771550  39.8776920  53.6000640  40.6186490  40.5430770  54.1873980
  40.6826110  39.0460470  53.9713260  44.1784670  40.3361160  56.4840190
  43.8784810  40.4818340  55.5868010  44.9495910  39.7766450  56.3913580
  49.5213120  45.1330160  54.4795320  49.5357660  44.2011120  54.2614230
  48.8138220  45.2189920  55.1185090  54.6550190  39.3169980  40.7493930
  54.5713910  39.7484200  39.8990370  55.3744380  39.7768330  41.1820750
  55.7324330  41.7737500  53.8263900  55.0072520  42.3666280  53.6293290
  56.2599790  41.7661040  53.0277270  55.6837440  46.1712240  43.4776060
  55.0413600  45.5167860  43.7519780  55.2968100  46.5767330  42.7016730
  51.2623920  43.4997670  47.3247750  51.6147740  42.9025800  46.6649120
  50.3786250  43.1741900  47.4956000  47.3487200  44.2595360  44.7318160
  48.0358330  44.8064570  45.1125750  46.5619620  44.8036090  44.7667770
  39.4879600  39.8768180  40.2235240  40.3574450  40.1592980  40.5071160
  38.9969920  40.6904050  40.1084050  46.6514410  41.2641390  44.3443520
  47.1077190  42.0746640  44.5703710  46.3002620  40.9464530  45.1762010
  48.9547020  46.7747730  51.5735820  49.5989240  46.9807110  52.2509240
  49.3176460  46.0136130  51.1206670  42.5526190  31.6079040  44.8166040
  42.4240820  31.5996940  45.7650960  41.7288210  31.9462130  44.4657050
  50.2279100  44.7780080  50.2913270  50.8701330  44.0773240  50.4045440
  50.7528450  45.5578520  50.1110160  54.0734820  45.0628700  40.0152410
  53.8472400  44.3459140  40.6077050  53.6831020  44.8141140  39.1774160
  52.0016720  45.5774980  53.4949330  52.3372960  46.1641670  54.1727250
  51.0817060  45.4467690  53.7247120  39.8550850  49.0895560  40.7896870
  40.2148490  49.6884900  40.1354140  39.7143190  49.6355450  41.5631900
  39.5520120  33.3670160  54.2772740  38.8378640  33.5667080  54.8825350
  39.9715160  32.5909730  54.6487540  53.6551070  42.9800640  41.6766570
  53.3672770  43.4413330  42.4644450  54.4503240  42.5198410  41.9450790
  39.8392710  47.3550420  55.2639270  39.9483830  46.4145160  55.1234660
  39.1873270  47.6205170  54.6153000  47.8305300  45.6266310  56.6637390
  47.5102170  44.9075550  57.2083080  47.1563660  46.3021380  56.7373450
  45.8719470  46.4726760  41.6070540  45.8629570  47.2056450  40.9915050
  44.9517830  46.2258340  41.6997500  41.4726110  41.6941650  42.3517300
  40.8654060  42.4340550  42.3612600  41.9475460  41.7841010  41.5255500
  51.0458900  35.8592470  52.0274190  51.4139720  35.0387680  52.3553760
  50.1857100  35.9194360  52.4429840  54.4120930  34.8149410  42.8361750
  53.7834090  34.9195080  42.1219980  53.9172850  35.0346190  43.6255630
  48.8579070  46.5355000  40.2695730  48.9591050  46.3318990  39.3397710
  47.9580810  46.2813280  40.4743510  46.3804960  37.0935360  44.2519630
  45.6721110  37.5621700  44.6933240  46.6649440  36.4357370  44.8864820
  48.0060890  38.5132060  52.2512160  48.5046140  38.9877880  52.9164010
  48.1483840  37.5895580  52.4582190  50.4120390  33.8186020  45.6915420
  50.2888170  33.8372150  44.7424930  51.3604950  33.8664960  45.8113820
  47.4997180  49.0541320  44.9643400  47.7538680  49.0162710  44.0422770
  46.5509660  48.9274650  44.9571650  44.5839980  35.4020440  41.6270340
  45.4330510  35.8390590  41.5610530  44.2171250  35.7140700  42.4542400
  55.2127750  34.7300020  53.0940550  54.7101350  35.4705420  53.4334360
  56.0284410  35.1184020  52.7777340  53.5049760  39.9733200  46.5401910
  52.5639900  39.9883430  46.7149600  53.8193830  39.1869160  46.9862210
  43.4831400  41.6552800  40.1005870  44.2494670  41.5434160  40.6631300
  43.5606090  40.9590770  39.4482640  42.1778160  39.0877870  40.7838760
  42.2581750  38.1405380  40.8956160  43.0697910  39.4184750  40.8899420
  55.5075340  47.1442050  48.2156170  55.6322760  47.9673220  48.6879980
  56.3740900  46.9332780  47.8680320  42.9792870  49.2373260  47.8873300
  43.7155350  48.6888720  48.1581870  43.3633790  50.1029270  47.7479290
  39.8638350  45.3046830  43.7614810  38.9378130  45.5467970  43.7520220
  40.3294780  46.1321090  43.6399560  46.0895180  48.4103570  39.7098870
  46.8823790  48.6992400  39.2580660  45.5699530  47.9795740  39.0311350
  52.2516150  48.2579490  55.6343700  53.2037900  48.1737510  55.5843940
  52.1044370  48.9221200  56.3077490  55.1425350  47.6373700  41.1335610
  54.8566860  47.2238840  40.3189790  54.9444900  48.5661410  41.0136130
  39.7048960  40.9092790  56.0194930  40.2087980  40.3300070  56.5911160
  38.9656380  41.1933020  56.5571300  46.6072580  43.6306980  39.5741220
  46.5023220  43.0159330  40.3002600  46.4396800  43.1072870  38.7904230
  46.7586900  42.3163780  55.5530450  45.9932570  42.8848780  55.4685120
  46.9402860  42.0239990  54.6598680  49.8475310  42.6927010  40.1783210
  49.2985410  43.1396310  40.8225950  50.4694570  42.1876260  40.7020880
  53.9010250  44.0469110  56.1105470  54.6419720  44.3844870  55.6072930
  53.1382930  44.2161170  55.5575240  45.5150430  41.6517930  42.0748510
  45.9366850  41.4857800  42.9179900  45.6401270  40.8418160  41.5803650
  43.6777850  37.6314480  54.8819490  43.1474310  37.1405430  54.2542830
  44.3465920  38.0598680  54.3477420  48.0278070  40.6755540  39.3225610
  48.5483730  39.9604560  38.9566760  48.6746470  41.3141410  39.6226120
  52.5755910  42.0983940  54.6460680  52.9896930  42.2529020  55.4951100
  51.6406910  42.2239160  54.8086460  53.0478080  39.4380100  56.6499830
  53.6298850  38.6832420  56.5620310  53.2239850  39.9687540  55.8731310
  44.1650150  34.5976850  54.9616780  44.0707020  33.9797600  54.2367650
  43.5847540  35.3243140  54.7346690  46.9311590  33.1550090  51.9944170
  46.4828890  33.1774350  51.1489720  46.2976790  32.7569110  52.5914470
  47.3371140  42.0504420  52.6156610  47.7559250  42.8937150  52.4432850
  46.4179770  42.1876460  52.3863390  49.6735040  39.7820600  53.9994450
  49.7931250  39.1861740  54.7389290  50.5329040  39.8190290  53.5795750
  52.0122940  40.3357790  52.5756960  51.4858160  40.8600410  51.9722100
  52.3554280  40.9685180  53.2066690  44.4109330  37.7251160  39.0206670
  44.2098390  36.8618520  39.3820010  44.2401380  37.6384520  38.0828270
  45.1878560  48.3557430  53.7314340  44.6499650  49.0803490  53.4123040
  45.4412520  47.8787770  52.9411680  46.4403810  36.3241950  55.2570270
  47.0303500  36.0157800  55.9448090  45.6224050  35.8521700  55.4130170
  51.2597240  35.9407760  55.4903290  50.5712760  35.2789300  55.4253280
  51.9803260  35.4946030  55.9351750  51.8897640  32.5359390  41.5493550
  52.1699930  31.6927290  41.9052970  51.1163370  32.7682500  42.0632300
  43.2092130  34.8251780  39.0084550  43.5118030  34.8319210  38.1003700
  43.9486720  34.4749640  39.5052210  48.0440770  49.5908640  53.9900990
  47.9699470  50.4943780  54.2973360  47.1419610  49.2720540  53.9623060
  46.4277060  33.7686400  39.9940750  46.0799060  33.0910390  39.4143200
  46.6289830  33.3075910  40.8084140  48.5926100  48.7567150  41.6127350
  49.4876890  49.0952120  41.6346110  48.6243730  48.0346560  40.9851630
  42.2322260  44.1294200  39.8414350  42.6697130  44.6723870  40.4971930
  42.7169990  43.3041150  39.8510690  39.4468060  46.9183230  47.2934610
  39.7771070  46.0504290  47.0613250  39.8759060  47.1241750  48.1239570
  44.0429980  45.2492240  44.9536580  43.7425520  45.1257210  45.8540490
  43.9367470  44.3900830  44.5452310  39.9358270  47.7853820  50.0316240
  39.4989260  47.9654620  50.8640390  40.5035950  48.5428440  49.8897960
  55.5720450  47.2870820  54.3193550  54.9722440  47.3463380  53.5757470
  55.7014350  46.3475800  54.4490400  39.7682700  40.2974050  46.3905120
  39.1131540  40.0285690  45.7464820  40.6060650  40.1878530  45.9407100
  54.2572090  44.0122800  52.4169710  53.4431930  44.4419960  52.6795500
  54.6646290  44.6241210  51.8038760  56.3197530  42.0670490  39.3169980
  56.5946370  42.9749370  39.1889200  56.1308270  42.0033020  40.2531970
  52.7173140  35.0915340  40.6123610  53.1358020  34.9046320  39.7720270
  52.4109200  34.2394390  40.9226540  56.2162870  40.0039480  44.3099410
  55.8406470  39.2367410  43.8780700  55.4865990  40.3862180  44.7974340
  40.8058630  40.6826620  50.9308460  41.1731670  40.5954020  51.8104480
  40.2369450  39.9193170  50.8315320  55.6062490  39.1511000  53.9438930
  55.3748580  38.9223750  53.0436880  55.8667040  40.0710550  53.8983820
  40.3574630  37.5935710  54.8366880  39.4630680  37.5602470  55.1760590
  40.8972180  37.7922500  55.6018130  54.0450560  34.3767430  56.7218630
  54.9220740  34.3850830  57.1052630  54.0571400  33.6398270  56.1110980
  38.9820780  37.5072980  42.3330450  38.0784860  37.7703180  42.1582110
  39.4661400  37.7784150  41.5530410  55.4913830  38.2296970  47.6106650
  56.0151310  37.7359620  46.9796820  56.0773250  38.3647330  48.3554220
  55.6703550  38.3136840  51.1326200  54.7206260  38.2800380  51.2471190
  55.8516560  39.2236950  50.8975970  41.5247990  36.5638520  40.2424830
  42.2339690  36.1421740  39.7572110  40.8087930  36.6313750  39.6108180
  41.1722150  32.6177850  39.2827480  41.8950280  33.1586790  39.6008700
  41.4446670  32.3441270  38.4069020  54.9813800  37.4870320  43.5499060
  55.4772920  37.2541190  44.3347940  54.7829870  36.6482160  43.1336700
  40.8614340  31.8684040  49.1850100  41.5090530  31.3181420  48.7445260
  41.2816180  32.1227190  50.0065910  54.7566680  32.0625400  52.5419740
  55.3938900  32.6759540  52.9078930  54.9041570  32.0986060  51.5968970
  54.3148140  48.7641400  45.9437980  54.9107210  48.4425970  45.2672400
  54.5726290  48.2913220  46.7351250  40.6146340  32.0239710  51.9275420
  40.2661160  32.4803530  52.6933600  40.2834040  31.1296840  52.0097850
  42.2210710  45.1959310  56.0928610  42.1780340  44.8252220  56.9743070
  42.3521720  46.1336880  56.2330430  45.9216740  46.7518900  51.6938330
  45.6808100  47.0193460  50.8068850  46.8619380  46.9224630  51.7489190
  48.1271160  33.2151590  55.4494840  48.0660050  33.8073420  56.1990250
  49.0671540  33.1077550  55.3045100  50.7645720  32.8721650  55.0887130
  51.3786130  33.1900940  54.4268210  51.3095280  32.3870240  55.7082990
  41.2866980  31.5515910  55.2026190  41.8349970  31.3703960  54.4392300
  41.3522290  30.7610020  55.7382500  42.0598740  48.1421560  53.2126390
  41.4659060  48.0106260  53.9516430  42.0522580  47.3059700  52.7468490
  51.5053760  31.4353790  51.4156420  50.6313600  31.7688900  51.2129350
  51.3964510  30.9626970  52.2408290  52.4125740  33.6424660  52.7998140
  52.0839100  32.8276420  52.4199870  53.3608040  33.5994470  52.6763830
  54.8660350  49.4136700  49.7735710  54.4063320  50.1652510  49.3993730
  54.2372810  48.6943170  49.7150510  41.6910970  45.5079940  52.1634430
  40.9645030  44.8885230  52.0960380  41.7520120  45.9020550  51.2932510
  45.2956070  47.7224940  48.9483840  45.8121090  47.1112300  48.4232100
  45.9453450  48.2253720  49.4394850  48.0351570  48.6133430  49.7752820
  48.3229380  48.3587730  48.8985830  48.5474790  48.0610790  50.3658390
  49.2528580  32.3523630  50.3549330  48.4700370  32.8269130  50.6346090
  48.9591510  31.4478460  50.2462510  53.8049650  33.0546730  48.3998420
  54.2457740  32.9991830  47.5520020  53.5357240  33.9704740  48.4708600
  55.6688220  32.6861970  46.4107240  55.6076620  31.7423190  46.2638260
  56.4480250  32.7942060  46.9560700  39.9740970  48.8254330  45.3731190
  39.8063010  48.1925010  46.0713080  39.1075480  49.0313730  45.0225380
  40.5968990  32.6571110  42.8763050  41.3548350  32.7699990  42.3027080
  40.1346160  33.4940310  42.8306480  47.1382800  34.7710380  45.8665360
  46.3257310  34.3967270  45.5261240  47.6424440  34.0155460  46.1686550
  51.6407780  31.4352830  47.1048430  52.2437150  32.0073040  47.5796950
  50.9000770  31.9992270  46.8822330  54.7842380  31.8374390  42.3788710
  54.9793010  32.7357840  42.6456140  53.9972250  31.6061470  42.8721660
  41.5803670  47.5187560  42.8181330  41.0551290  47.8995590  42.1143290
  41.5048250  48.1438330  43.5391040  42.9694140  33.1835160  41.4165020
  43.4986900  32.3964960  41.2872970  43.6022460  33.8626350  41.6500550
  45.1631980  32.9210300  44.4710410  44.5334720  32.2197610  44.6380540
  44.6237120  33.6814430  44.2543570  48.1023930  49.5349530  57.1421020
  49.0291240  49.2993800  57.1856980  48.0874360  50.3621530  56.6607050
  56.3368990  49.0775100  44.1395270  56.5121180  48.3912840  43.4956190
  55.6390560  49.6022150  43.7471940  45.2887540  32.1994280  56.9062900
  45.0071810  32.7027880  56.1423720  45.6707240  31.4016030  56.5405030
  44.1796640  49.4669940  41.6930580  44.9115460  49.1829220  41.1454470
  44.4390310  49.2283220  42.5829960  43.3411430  45.5834670  41.6976910
  42.7120310  46.0519770  42.2462740  43.4559260  44.7383890  42.1323100
  50.7961150  39.6340330  27.8478110  50.7155200  38.7194940  27.5769820
  50.3825570  40.1307400  27.1417820  48.9279190  41.4119350  29.7287380
  48.1521290  40.9319790  30.0185950  49.5792120  40.7325000  29.5543540
  42.9445020  41.7239160  30.6063140  42.1129900  41.4687870  31.0059650
  43.5526000  41.7949930  31.3421060  52.9486620  45.8179540  28.5086510
  52.4868150  45.0466780  28.8373680  53.7612170  45.8445610  29.0138960
  42.9246280  45.7579250  30.8021160  43.2274320  44.8676990  30.6231380
  43.6689870  46.3149470  30.5743410  41.3536970  36.6841050  24.3905530
  40.4653670  37.0257020  24.2885410  41.6378160  36.4841370  23.4986360
  39.3169980  39.2846700  30.2745230  39.8886090  38.5168900  30.2748870
  39.3171520  39.5835460  29.3651840  49.1749930  48.1037550  28.1290500
  48.5561370  48.5595050  27.5584940  50.0301710  48.2589010  27.7280200
  48.3688180  44.0876540  29.7357540  48.2996460  43.1466480  29.5746670
  49.1308040  44.1777950  30.3080110  49.3993350  36.8946920  29.9626470
  49.7758170  36.0218800  29.8500140  49.3012860  37.2305620  29.0716910
  43.5298360  35.2672550  25.4243910  43.6365110  36.1676280  25.7312670
  42.6190720  35.2190520  25.1338560  53.1817470  34.3897360  26.8954810
  54.0027090  33.8993930  26.9380290  53.2151550  34.9795020  27.6486650
  41.1781520  37.1891560  30.6696500  41.8591630  37.4529930  31.2883900
  40.8629570  36.3492430  31.0034510  45.3706090  38.2358920  29.7569090
  45.8784310  38.7339890  30.3974110  45.9019330  37.4594120  29.5808450
  43.6542190  32.8757480  34.0232510  43.6560630  33.3929870  33.2178410
  42.8246500  32.3987660  34.0002440  50.0413280  42.9876790  25.5222410
  49.4230550  43.4526240  24.9585130  50.5536530  43.6804270  25.9391920
  44.9045040  42.5152660  32.2006010  44.5714420  43.1421580  32.8427080
  45.0811720  43.0414540  31.4207680  53.4178950  36.3297740  29.6682350
  52.7134520  36.6182630  30.2485460  53.7791110  37.1397850  29.3081910
  43.3357520  34.5867440  32.0302960  43.6774330  35.4309490  31.7356830
  42.3973330  34.7351180  32.1468300  44.1164140  44.4833460  34.0155190
  44.7338140  45.1584540  33.7339640  43.2557260  44.8921440  33.9242690
  39.4096480  43.6733320  22.8962040  39.0324460  44.1620420  22.1646940
  39.6669550  44.3458600  23.5268570  55.0341730  45.9472870  31.9309830
  54.3505250  46.6171980  31.9226500  55.5736020  46.1453520  31.1654690
  56.4865870  35.7752530  30.0591560  55.5390780  35.8091510  30.1906990
  56.8115860  36.5891480  30.4440920  47.0185410  32.0749710  28.3547550
  47.3260390  31.5196600  27.6383050  46.0886110  32.2094170  28.1720540
  52.5700470  47.7917000  30.6455010  52.5827630  47.3879290  29.7777270
  52.0175690  48.5664290  30.5416440  53.8645890  44.5133220  25.7345180
  53.7542220  43.5707550  25.8594600  53.8614140  44.8748860  26.6207940
  51.9685910  42.6946840  31.9737620  52.3854700  42.4806950  31.1391080
  52.6925730  42.9519630  32.5446240  49.4066170  40.1398540  25.0907670
  48.4795450  40.0735920  25.3196140  49.5590990  41.0778670  24.9762910
  49.3935250  36.4115540  22.0874830  48.4538920  36.5729500  22.1727290
  49.7118510  37.1301220  21.5410820  55.9148010  41.0934060  32.0653860
  55.0866640  41.1627150  31.5903990  56.5098490  41.6788370  31.5969690
  53.4363460  41.7018840  25.5942920  52.8175880  41.3638390  24.9469220
  53.4187910  41.0578600  26.3022110  52.8790020  37.8803380  33.0108730
  52.4661200  38.7057090  33.2648720  52.1465970  37.2948420  32.8185090
  45.0122810  40.6663280  27.8727400  44.6079810  39.9540530  27.3773300
  45.0985930  40.3216520  28.7615440  45.4804510  44.3530840  30.0366610
  45.1832800  43.7476310  29.3574390  46.4304330  44.3908150  29.9255970
  43.7251430  37.4406490  31.6526440  44.2766020  37.5501830  30.8779690
  44.2394940  37.8144090  32.3681670  53.5690120  47.9262710  33.6989710
  53.0920680  48.7334900  33.5062320  52.8851910  47.2741040  33.8515920
  44.5722940  44.0912530  36.6874410  43.6751470  44.3152500  36.9347810
  44.5975810  44.2147470  35.7385810  51.6128160  40.9405650  22.6015670
  52.0521440  40.1028080  22.4553490  52.3256580  41.5735050  22.6879810
  43.3994160  40.9625850  35.2631780  43.2601930  41.8348650  35.6319180
  42.5175520  40.6198660  35.1179720  49.7223540  45.8801720  26.5696910
  50.1619450  46.6226050  26.1552300  49.6610430  46.1228290  27.4935870
  45.1974510  46.9047550  37.4716930  45.1689940  47.3090500  36.6045360
  45.0339480  45.9757910  37.3088530  55.1945300  32.1948460  20.9156710
  54.8817960  32.2875290  21.8155780  55.9557770  32.7729490  20.8654140
  41.7127440  39.5608260  25.3734050  41.5925040  40.2870350  24.7615320
  41.4028330  38.7911170  24.8961960  39.3512810  42.7323400  31.1802690
  39.4293230  42.8672170  30.2358410  39.9654490  42.0239290  31.3730810
  40.5960440  44.4323590  27.5908870  40.1888520  44.5738180  26.7362470
  41.4873450  44.1483750  27.3880080  56.5522580  44.8787500  35.9281110
  56.6785640  44.6399380  35.0098290  56.5943960  44.0472040  36.4003190
  50.4139320  48.5815500  34.4975920  50.9283990  48.4923510  35.2998350
  49.5708400  48.9275200  34.7903830  52.3893720  48.8670840  23.9259920
  52.2294860  48.5773780  24.8241750  52.2240430  48.0910970  23.3905150
  44.8682100  48.6469370  25.7031540  44.6924580  47.7304910  25.4899340
  44.0137840  49.0056660  25.9429340  52.0919850  46.3758400  22.4857920
  51.3985010  46.3735690  21.8260200  52.8342710  45.9517720  22.0552090
  51.6569780  48.0021110  26.5606410  52.1126730  47.2210490  26.8745030
  51.9962300  48.7127930  27.1047590  56.4046590  36.9319960  36.8930850
  55.7890860  37.4399630  36.3646310  56.0843010  36.0318290  36.8356790
  39.4072330  43.7737570  33.7197150  39.5703370  43.3042930  32.9016520
  39.8724780  43.2661130  34.3845990  44.1791100  32.9043330  28.7557720
  43.7359250  33.6852870  28.4242240  44.7376090  33.2273220  29.4628660
  48.4660910  35.7711850  34.3593040  48.0040280  35.9794870  35.1712980
  48.0639020  34.9571200  34.0563710  53.4665420  36.9920800  35.4889700
  52.6159010  36.6926550  35.8098770  53.3067210  37.2362810  34.5773520
  50.5615130  38.4922550  37.5888490  50.8868540  37.6586300  37.2490720
  51.3495460  39.0151070  37.7366820  47.2949920  32.5254030  23.6363550
  46.6704100  32.5213900  24.3616860  47.2080040  31.6584990  23.2399520
  46.2167000  33.4490660  30.6147320  46.5139330  34.3553490  30.5339340
  46.7652560  32.9609440  30.0006890  43.9705320  38.0276900  26.4838970
  43.7446240  37.8114070  27.3885590  43.1897850  38.4605360  26.1384940
  51.2003080  38.0340270  25.0829620  50.6011970  38.7576070  24.8993240
  51.7482690  37.9717050  24.3006070  46.4104530  38.9262480  37.1499240
  46.3148130  37.9857210  36.9999640  47.2536510  39.1477550  36.7547310
  49.8067950  36.6703810  27.1132900  50.1997520  36.9876010  26.3001590
  50.1684800  35.7915690  27.2277420  48.1160120  35.4211120  38.3729760
  47.4258440  35.2283320  39.0075850  48.8592420  35.7045760  38.9054060
  39.0302350  37.2024730  20.5465820  38.9477020  38.1455490  20.6880810
  38.6785410  37.0599640  19.6678170  50.3923090  39.2609560  31.2083680
  49.6604210  39.7696370  31.5573780  49.9947430  38.4439540  30.9072460
  46.8300480  35.9363760  29.6136170  46.8336540  35.4953710  28.7640710
  47.7251600  36.2581090  29.7207990  42.6802860  35.8190250  28.5730380
  42.3402910  36.2965480  29.3297430  41.9180180  35.3655370  28.2131480
  46.8920630  36.9375840  22.6042930  47.0133450  36.8962320  23.5528750
  46.5069140  37.7999990  22.4489660  50.8549000  34.7143240  30.6206620
  50.8721740  35.1651890  31.4648470  50.6064580  33.8148880  30.8340060
  45.9042130  39.2476980  22.0026230  45.3359030  38.7995230  21.3762140
  46.6131130  39.6069760  21.4691380  54.2819750  32.1275420  36.4593000
  54.6065520  31.3965080  36.9850980  54.3176260  31.8089060  35.5573990
  40.9811310  43.1489000  35.8792960  40.5966100  42.5082670  36.4775920
  41.2923500  43.8525120  36.4487690  47.1308450  39.9965540  31.3601580
  47.4978580  39.5224110  32.1062920  46.9413510  40.8707110  31.7009920
  39.9948940  34.7409230  27.4895050  39.7095860  34.3764900  28.3273670
  39.9327800  34.0089690  26.8758190  44.9207820  39.0374180  33.6785790
  44.6164890  39.9166160  33.9036150  45.8754280  39.0973970  33.7143230
  43.4489610  43.2435170  24.2752640  42.6751870  42.7032790  24.1151360
  44.1784240  42.7241780  23.9370400  54.2077590  42.2400530  30.0679030
  54.9276710  42.7355820  29.6775140  54.0059410  41.5618420  29.4232900
  49.6687530  33.6338490  24.2108420  48.8552140  33.1351660  24.1353730
  49.4749480  34.4736740  23.7944770  49.5896390  42.3109590  35.9548030
  49.5233700  41.3905260  35.7005620  48.9601530  42.4085030  36.6692670
  52.3835920  38.0058140  22.5070580  53.2715540  38.3175370  22.3321920
  52.3541010  37.1330390  22.1151160  43.4927010  42.9115550  27.9131450
  44.0105680  42.1083810  27.8588340  43.0411030  42.8494690  28.7548280
  48.3796510  44.1781830  23.1858750  48.7212210  44.9224060  22.6902070
  47.5509220  44.4912950  23.5483580  40.9771550  39.8776920  34.8257150
  40.6186490  40.5430770  35.4130490  40.6826110  39.0460470  35.1969770
  44.1784670  40.3361160  37.7096700  43.8784810  40.4818340  36.8124520
  44.9495910  39.7766450  37.6170090  49.5213120  45.1330160  35.7051830
  49.5357660  44.2011120  35.4870740  48.8138220  45.2189920  36.3441600
  54.6550190  39.3169980  21.9750440  54.5713910  39.7484200  21.1246880
  55.3744380  39.7768330  22.4077260  55.7324330  41.7737500  35.0520410
  55.0072520  42.3666280  34.8549800  56.2599790  41.7661040  34.2533780
  55.6837440  46.1712240  24.7032570  55.0413600  45.5167860  24.9776290
  55.2968100  46.5767330  23.9273240  51.2623920  43.4997670  28.5504260
  51.6147740  42.9025800  27.8905630  50.3786250  43.1741900  28.7212510
  47.3487200  44.2595360  25.9574670  48.0358330  44.8064570  26.3382260
  46.5619620  44.8036090  25.9924280  39.4879600  39.8768180  21.4491750
  40.3574450  40.1592980  21.7327670  38.9969920  40.6904050  21.3340560
  46.6514410  41.2641390  25.5700030  47.1077190  42.0746640  25.7960220
  46.3002620  40.9464530  26.4018520  48.9547020  46.7747730  32.7992330
  49.5989240  46.9807110  33.4765750  49.3176460  46.0136130  32.3463180
  42.5526190  31.6079040  26.0422550  42.4240820  31.5996940  26.9907470
  41.7288210  31.9462130  25.6913560  50.2279100  44.7780080  31.5169780
  50.8701330  44.0773240  31.6301950  50.7528450  45.5578520  31.3366670
  54.0734820  45.0628700  21.2408920  53.8472400  44.3459140  21.8333560
  53.6831020  44.8141140  20.4030670  52.0016720  45.5774980  34.7205840
  52.3372960  46.1641670  35.3983760  51.0817060  45.4467690  34.9503630
  39.8550850  49.0895560  22.0153380  40.2148490  49.6884900  21.3610650
  39.7143190  49.6355450  22.7888410  53.6551070  42.9800640  22.9023080
  53.3672770  43.4413330  23.6900960  54.4503240  42.5198410  23.1707300
  39.8392710  47.3550420  36.4895780  39.9483830  46.4145160  36.3491170
  39.1873270  47.6205170  35.8409510  47.8305300  45.6266310  37.8893900
  47.5102170  44.9075550  38.4339590  47.1563660  46.3021380  37.9629960
  45.8719470  46.4726760  22.8327050  45.8629570  47.2056450  22.2171560
  44.9517830  46.2258340  22.9254010  41.4726110  41.6941650  23.5773810
  40.8654060  42.4340550  23.5869110  41.9475460  41.7841010  22.7512010
  51.0458900  35.8592470  33.2530700  51.4139720  35.0387680  33.5810270
  50.1857100  35.9194360  33.6686350  54.4120930  34.8149410  24.0618260
  53.7834090  34.9195080  23.3476490  53.9172850  35.0346190  24.8512140
  48.8579070  46.5355000  21.4952240  48.9591050  46.3318990  20.5654220
  47.9580810  46.2813280  21.7000020  46.3804960  37.0935360  25.4776140
  45.6721110  37.5621700  25.9189750  46.6649440  36.4357370  26.1121330
  48.0060890  38.5132060  33.4768670  48.5046140  38.9877880  34.1420520
  48.1483840  37.5895580  33.6838700  50.4120390  33.8186020  26.9171930
  50.2888170  33.8372150  25.9681440  51.3604950  33.8664960  27.0370330
  47.4997180  49.0541320  26.1899910  47.7538680  49.0162710  25.2679280
  46.5509660  48.9274650  26.1828160  44.5839980  35.4020440  22.8526850
  45.4330510  35.8390590  22.7867040  44.2171250  35.7140700  23.6798910
  55.2127750  34.7300020  34.3197060  54.7101350  35.4705420  34.6590870
  56.0284410  35.1184020  34.0033850  53.5049760  39.9733200  27.7658420
  52.5639900  39.9883430  27.9406110  53.8193830  39.1869160  28.2118720
  43.4831400  41.6552800  21.3262380  44.2494670  41.5434160  21.8887810
  43.5606090  40.9590770  20.6739150  42.1778160  39.0877870  22.0095270
  42.2581750  38.1405380  22.1212670  43.0697910  39.4184750  22.1155930
  55.5075340  47.1442050  29.4412680  55.6322760  47.9673220  29.9136490
  56.3740900  46.9332780  29.0936830  42.9792870  49.2373260  29.1129810
  43.7155350  48.6888720  29.3838380  43.3633790  50.1029270  28.9735800
  39.8638350  45.3046830  24.9871320  38.9378130  45.5467970  24.9776730
  40.3294780  46.1321090  24.8656070  41.9851150  48.4219330  38.3015390
  42.7863880  48.7431380  38.7150790  41.4702970  48.0614910  39.0235300
  46.0895180  48.4103570  20.9355380  46.8823790  48.6992400  20.4837170
  45.5699530  47.9795740  20.2567860  50.8215780  44.5299200  38.2490800
  50.2153940  44.5530800  37.5086550  50.5169890  43.7982240  38.7858050
  52.2516150  48.2579490  36.8600210  53.2037900  48.1737510  36.8100450
  52.1044370  48.9221200  37.5334000  55.1425350  47.6373700  22.3592120
  54.8566860  47.2238840  21.5446300  54.9444900  48.5661410  22.2392640
  39.7048960  40.9092790  37.2451440  40.2087980  40.3300070  37.8167670
  38.9656380  41.1933020  37.7827810  46.6072580  43.6306980  20.7997730
  46.5023220  43.0159330  21.5259110  46.4396800  43.1072870  20.0160740
  46.7586900  42.3163780  36.7786960  45.9932570  42.8848780  36.6941630
  46.9402860  42.0239990  35.8855190  49.8475310  42.6927010  21.4039720
  49.2985410  43.1396310  22.0482460  50.4694570  42.1876260  21.9277390
  53.9010250  44.0469110  37.3361980  54.6419720  44.3844870  36.8329440
  53.1382930  44.2161170  36.7831750  41.7372040  39.0522380  38.1401510
  41.7777380  38.7536250  39.0486740  42.5917540  39.4529990  37.9809030
  45.5150430  41.6517930  23.3005020  45.9366850  41.4857800  24.1436410
  45.6401270  40.8418160  22.8060160  43.6777850  37.6314480  36.1076000
  43.1474310  37.1405430  35.4799340  44.3465920  38.0598680  35.5733930
  48.0278070  40.6755540  20.5482120  48.5483730  39.9604560  20.1823270
  48.6746470  41.3141410  20.8482630  52.5755910  42.0983940  35.8717190
  52.9896930  42.2529020  36.7207610  51.6406910  42.2239160  36.0342970
  53.0478080  39.4380100  37.8756340  53.6298850  38.6832420  37.7876820
  53.2239850  39.9687540  37.0987820  44.1650150  34.5976850  36.1873290
  44.0707020  33.9797600  35.4624160  43.5847540  35.3243140  35.9603200
  46.9311590  33.1550090  33.2200680  46.4828890  33.1774350  32.3746230
  46.2976790  32.7569110  33.8170980  47.3371140  42.0504420  33.8413120
  47.7559250  42.8937150  33.6689360  46.4179770  42.1876460  33.6119900
  49.6735040  39.7820600  35.2250960  49.7931250  39.1861740  35.9645800
  50.5329040  39.8190290  34.8052260  52.0122940  40.3357790  33.8013470
  51.4858160  40.8600410  33.1978610  52.3554280  40.9685180  34.4323200
  44.4109330  37.7251160  20.2463180  44.2098390  36.8618520  20.6076520
  44.2401380  37.6384520  19.3084780  45.1878560  48.3557430  34.9570850
  44.6499650  49.0803490  34.6379550  45.4412520  47.8787770  34.1668190
  46.4403810  36.3241950  36.4826780  47.0303500  36.0157800  37.1704600
  45.6224050  35.8521700  36.6386680  51.2597240  35.9407760  36.7159800
  50.5712760  35.2789300  36.6509790  51.9803260  35.4946030  37.1608260
  51.8897640  32.5359390  22.7750060  52.1699930  31.6927290  23.1309480
  51.1163370  32.7682500  23.2888810  43.2092130  34.8251780  20.2341060
  43.5118030  34.8319210  19.3260210  43.9486720  34.4749640  20.7308720
  48.0440770  49.5908640  35.2157500  47.9699470  50.4943780  35.5229870
  47.1419610  49.2720540  35.1879570  46.4277060  33.7686400  21.2197260
  46.0799060  33.0910390  20.6399710  46.6289830  33.3075910  22.0340650
  48.5926100  48.7567150  22.8383860  49.4876890  49.0952120  22.8602620
  48.6243730  48.0346560  22.2108140  42.2322260  44.1294200  21.0670860
  42.6697130  44.6723870  21.7228440  42.7169990  43.3041150  21.0767200
  39.4468060  46.9183230  28.5191120  39.7771070  46.0504290  28.2869760
  39.8759060  47.1241750  29.3496080  44.0429980  45.2492240  26.1793090
  43.7425520  45.1257210  27.0797000  43.9367470  44.3900830  25.7708820
  39.9358270  47.7853820  31.2572750  39.4989260  47.9654620  32.0896900
  40.5035950  48.5428440  31.1154470  55.5720450  47.2870820  35.5450060
  54.9722440  47.3463380  34.8013980  55.7014350  46.3475800  35.6746910
  39.7682700  40.2974050  27.6161630  39.1131540  40.0285690  26.9721330
  40.6060650  40.1878530  27.1663610  54.2572090  44.0122800  33.6426220
  53.4431930  44.4419960  33.9052010  54.6646290  44.6241210  33.0295270
  56.3197530  42.0670490  20.5426490  56.5946370  42.9749370  20.4145710
  56.1308270  42.0033020  21.4788480  52.7173140  35.0915340  21.8380120
  53.1358020  34.9046320  20.9976780  52.4109200  34.2394390  22.1483050
  56.2162870  40.0039480  25.5355920  55.8406470  39.2367410  25.1037210
  55.4865990  40.3862180  26.0230850  40.8058630  40.6826620  32.1564970
  41.1731670  40.5954020  33.0360990  40.2369450  39.9193170  32.0571830
  55.6062490  39.1511000  35.1695440  55.3748580  38.9223750  34.2693390
  55.8667040  40.0710550  35.1240330  54.0450560  34.3767430  37.9475140
  54.9220740  34.3850830  38.3309140  54.0571400  33.6398270  37.3367490
  38.9820780  37.5072980  23.5586960  38.0784860  37.7703180  23.3838620
  39.4661400  37.7784150  22.7786920  55.4913830  38.2296970  28.8363160
  56.0151310  37.7359620  28.2053330  56.0773250  38.3647330  29.5810730
  55.6703550  38.3136840  32.3582710  54.7206260  38.2800380  32.4727700
  55.8516560  39.2236950  32.1232480  41.5247990  36.5638520  21.4681340
  42.2339690  36.1421740  20.9828620  40.8087930  36.6313750  20.8364690
  41.1722150  32.6177850  20.5083990  41.8950280  33.1586790  20.8265210
  41.4446670  32.3441270  19.6325530  54.9813800  37.4870320  24.7755570
  55.4772920  37.2541190  25.5604450  54.7829870  36.6482160  24.3593210
  54.7566680  32.0625400  33.7676250  55.3938900  32.6759540  34.1335440
  54.9041570  32.0986060  32.8225480  54.3148140  48.7641400  27.1694490
  54.9107210  48.4425970  26.4928910  54.5726290  48.2913220  27.9607760
  42.2210710  45.1959310  37.3185120  42.1780340  44.8252220  38.1999580
  42.3521720  46.1336880  37.4586940  45.9216740  46.7518900  32.9194840
  45.6808100  47.0193460  32.0325360  46.8619380  46.9224630  32.9745700
  48.1271160  33.2151590  36.6751350  48.0660050  33.8073420  37.4246760
  49.0671540  33.1077550  36.5301610  50.7645720  32.8721650  36.3143640
  51.3786130  33.1900940  35.6524720  51.3095280  32.3870240  36.9339500
  41.2866980  31.5515910  36.4282700  41.8349970  31.3703960  35.6648810
  41.3522290  30.7610020  36.9639010  42.0598740  48.1421560  34.4382900
  41.4659060  48.0106260  35.1772940  42.0522580  47.3059700  33.9725000
  51.5053760  31.4353790  32.6412930  50.6313600  31.7688900  32.4385860
  51.3964510  30.9626970  33.4664800  52.4125740  33.6424660  34.0254650
  52.0839100  32.8276420  33.6456380  53.3608040  33.5994470  33.9020340
  54.8660350  49.4136700  30.9992220  54.4063320  50.1652510  30.6250240
  54.2372810  48.6943170  30.9407020  41.6910970  45.5079940  33.3890940
  40.9645030  44.8885230  33.3216890  41.7520120  45.9020550  32.5189020
  45.2956070  47.7224940  30.1740350  45.8121090  47.1112300  29.6488610
  45.9453450  48.2253720  30.6651360  48.0351570  48.6133430  31.0009330
  48.3229380  48.3587730  30.1242340  48.5474790  48.0610790  31.5914900
  49.2528580  32.3523630  31.5805840  48.4700370  32.8269130  31.8602600
  48.9591510  31.4478460  31.4719020  53.8049650  33.0546730  29.6254930
  54.2457740  32.9991830  28.7776530  53.5357240  33.9704740  29.6965110
  55.6688220  32.6861970  27.6363750  55.6076620  31.7423190  27.4894770
  56.4480250  32.7942060  28.1817210  39.9740970  48.8254330  26.5987700
  39.8063010  48.1925010  27.2969590  39.1075480  49.0313730  26.2481890
  40.5968990  32.6571110  24.1019560  41.3548350  32.7699990  23.5283590
  40.1346160  33.4940310  24.0562990  47.1382800  34.7710380  27.0921870
  46.3257310  34.3967270  26.7517750  47.6424440  34.0155460  27.3943060
  51.6407780  31.4352830  28.3304940  52.2437150  32.0073040  28.8053460
  50.9000770  31.9992270  28.1078840  54.7842380  31.8374390  23.6045220
  54.9793010  32.7357840  23.8712650  53.9972250  31.6061470  24.0978170
  41.5803670  47.5187560  24.0437840  41.0551290  47.8995590  23.3399800
  41.5048250  48.1438330  24.7647550  42.9694140  33.1835160  22.6421530
  43.4986900  32.3964960  22.5129480  43.6022460  33.8626350  22.8757060
  45.1631980  32.9210300  25.6966920  44.5334720  32.2197610  25.8637050
  44.6237120  33.6814430  25.4800080  48.1023930  49.5349530  38.3677530
  49.0291240  49.2993800  38.4113490  48.0874360  50.3621530  37.8863560
  56.3368990  49.0775100  25.3651780  56.5121180  48.3912840  24.7212700
  55.6390560  49.6022150  24.9728450  45.2887540  32.1994280  38.1319410
  45.0071810  32.7027880  37.3680230  45.6707240  31.4016030  37.7661540
  44.1796640  49.4669940  22.9187090  44.9115460  49.1829220  22.3710980
  44.4390310  49.2283220  23.8086470  43.3411430  45.5834670  22.9233420
  42.7120310  46.0519770  23.4719250  43.4559260  44.7383890  23.3579610
  51.8903000  31.6147860  38.7099880  51.7768450  31.9342470  39.6051400
  52.7072740  32.0160370  38.4137160  54.6701490  48.7619390  38.1918570
  55.4626810  48.2668620  37.9844530  54.9634640  49.4409530  38.7994180
  50.7961150  39.6340330   9.0734620  50.7155200  38.7194940   8.8026330
  50.3825570  40.1307400   8.3674330  48.9279190  41.4119350  10.9543890
  48.1521290  40.9319790  11.2442460  49.5792120  40.7325000  10.7800050
  42.9445020  41.7239160  11.8319650  42.1129900  41.4687870  12.2316160
  43.5526000  41.7949930  12.5677570  52.9486620  45.8179540   9.7343020
  52.4868150  45.0466780  10.0630190  53.7612170  45.8445610  10.2395470
  42.9246280  45.7579250  12.0277670  43.2274320  44.8676990  11.8487890
  43.6689870  46.3149470  11.7999920  41.3536970  36.6841050   5.6162040
  40.4653670  37.0257020   5.5141920  41.6378160  36.4841370   4.7242870
  39.3169980  39.2846700  11.5001740  39.8886090  38.5168900  11.5005380
  39.3171520  39.5835460  10.5908350  49.1749930  48.1037550   9.3547010
  48.5561370  48.5595050   8.7841450  50.0301710  48.2589010   8.9536710
  48.3688180  44.0876540  10.9614050  48.2996460  43.1466480  10.8003180
  49.1308040  44.1777950  11.5336620  40.5594850  34.6931060  13.2870670
  40.3797690  33.7956810  13.5673430  40.1574930  35.2402930  13.9617620
  49.3993350  36.8946920  11.1882980  49.7758170  36.0218800  11.0756650
  49.3012860  37.2305620  10.2973420  43.5298360  35.2672550   6.6500420
  43.6365110  36.1676280   6.9569180  42.6190720  35.2190520   6.3595070
  53.1817470  34.3897360   8.1211320  54.0027090  33.8993930   8.1636800
  53.2151550  34.9795020   8.8743160  41.1781520  37.1891560  11.8953010
  41.8591630  37.4529930  12.5140410  40.8629570  36.3492430  12.2291020
  45.3706090  38.2358920  10.9825600  45.8784310  38.7339890  11.6230620
  45.9019330  37.4594120  10.8064960  43.6542190  32.8757480  15.2489020
  43.6560630  33.3929870  14.4434920  42.8246500  32.3987660  15.2258950
  50.0413280  42.9876790   6.7478920  49.4230550  43.4526240   6.1841640
  50.5536530  43.6804270   7.1648430  44.9045040  42.5152660  13.4262520
  44.5714420  43.1421580  14.0683590  45.0811720  43.0414540  12.6464190
  53.4178950  36.3297740  10.8938860  52.7134520  36.6182630  11.4741970
  53.7791110  37.1397850  10.5338420  43.3357520  34.5867440  13.2559470
  43.6774330  35.4309490  12.9613340  42.3973330  34.7351180  13.3724810
  44.1164140  44.4833460  15.2411700  44.7338140  45.1584540  14.9596150
  43.2557260  44.8921440  15.1499200  39.4096480  43.6733320   4.1218550
  39.0324460  44.1620420   3.3903450  39.6669550  44.3458600   4.7525080
  55.0341730  45.9472870  13.1566340  54.3505250  46.6171980  13.1483010
  55.5736020  46.1453520  12.3911200  56.4865870  35.7752530  11.2848070
  55.5390780  35.8091510  11.4163500  56.8115860  36.5891480  11.6697430
  47.0185410  32.0749710   9.5804060  47.3260390  31.5196600   8.8639560
  46.0886110  32.2094170   9.3977050  52.5700470  47.7917000  11.8711520
  52.5827630  47.3879290  11.0033780  52.0175690  48.5664290  11.7672950
  53.8645890  44.5133220   6.9601690  53.7542220  43.5707550   7.0851110
  53.8614140  44.8748860   7.8464450  51.9685910  42.6946840  13.1994130
  52.3854700  42.4806950  12.3647590  52.6925730  42.9519630  13.7702750
  49.4066170  40.1398540   6.3164180  48.4795450  40.0735920   6.5452650
  49.5590990  41.0778670   6.2019420  49.3935250  36.4115540   3.3131340
  48.4538920  36.5729500   3.3983800  49.7118510  37.1301220   2.7667330
  55.9148010  41.0934060  13.2910370  55.0866640  41.1627150  12.8160500
  56.5098490  41.6788370  12.8226200  53.4363460  41.7018840   6.8199430
  52.8175880  41.3638390   6.1725730  53.4187910  41.0578600   7.5278620
  52.8790020  37.8803380  14.2365240  52.4661200  38.7057090  14.4905230
  52.1465970  37.2948420  14.0441600  45.0122810  40.6663280   9.0983910
  44.6079810  39.9540530   8.6029810  45.0985930  40.3216520   9.9871950
  45.4804510  44.3530840  11.2623120  45.1832800  43.7476310  10.5830900
  46.4304330  44.3908150  11.1512480  43.7251430  37.4406490  12.8782950
  44.2766020  37.5501830  12.1036200  44.2394940  37.8144090  13.5938180
  53.5690120  47.9262710  14.9246220  53.0920680  48.7334900  14.7318830
  52.8851910  47.2741040  15.0772430  44.5722940  44.0912530  17.9130920
  43.6751470  44.3152500  18.1604320  44.5975810  44.2147470  16.9642320
  51.6128160  40.9405650   3.8272180  52.0521440  40.1028080   3.6810000
  52.3256580  41.5735050   3.9136320  43.3994160  40.9625850  16.4888290
  43.2601930  41.8348650  16.8575690  42.5175520  40.6198660  16.3436230
  49.7223540  45.8801720   7.7953420  50.1619450  46.6226050   7.3808810
  49.6610430  46.1228290   8.7192380  45.1974510  46.9047550  18.6973440
  45.1689940  47.3090500  17.8301870  45.0339480  45.9757910  18.5345040
  55.1945300  32.1948460   2.1413220  54.8817960  32.2875290   3.0412290
  55.9557770  32.7729490   2.0910650  41.7127440  39.5608260   6.5990560
  41.5925040  40.2870350   5.9871830  41.4028330  38.7911170   6.1218470
  39.3512810  42.7323400  12.4059200  39.4293230  42.8672170  11.4614920
  39.9654490  42.0239290  12.5987320  40.5960440  44.4323590   8.8165380
  40.1888520  44.5738180   7.9618980  41.4873450  44.1483750   8.6136590
  56.5522580  44.8787500  17.1537620  56.6785640  44.6399380  16.2354800
  56.5943960  44.0472040  17.6259700  50.4139320  48.5815500  15.7232430
  50.9283990  48.4923510  16.5254860  49.5708400  48.9275200  16.0160340
  52.3893720  48.8670840   5.1516430  52.2294860  48.5773780   6.0498260
  52.2240430  48.0910970   4.6161660  44.8682100  48.6469370   6.9288050
  44.6924580  47.7304910   6.7155850  44.0137840  49.0056660   7.1685850
  52.0919850  46.3758400   3.7114430  51.3985010  46.3735690   3.0516710
  52.8342710  45.9517720   3.2808600  51.6569780  48.0021110   7.7862920
  52.1126730  47.2210490   8.1001540  51.9962300  48.7127930   8.3304100
  56.4046590  36.9319960  18.1187360  55.7890860  37.4399630  17.5902820
  56.0843010  36.0318290  18.0613300  39.4072330  43.7737570  14.9453660
  39.5703370  43.3042930  14.1273030  39.8724780  43.2661130  15.6102500
  44.1791100  32.9043330   9.9814230  43.7359250  33.6852870   9.6498750
  44.7376090  33.2273220  10.6885170  48.4660910  35.7711850  15.5849550
  48.0040280  35.9794870  16.3969490  48.0639020  34.9571200  15.2820220
  53.4665420  36.9920800  16.7146210  52.6159010  36.6926550  17.0355280
  53.3067210  37.2362810  15.8030030  50.5615130  38.4922550  18.8145000
  50.8868540  37.6586300  18.4747230  51.3495460  39.0151070  18.9623330
  47.2949920  32.5254030   4.8620060  46.6704100  32.5213900   5.5873370
  47.2080040  31.6584990   4.4656030  46.2167000  33.4490660  11.8403830
  46.5139330  34.3553490  11.7595850  46.7652560  32.9609440  11.2263400
  43.9705320  38.0276900   7.7095480  43.7446240  37.8114070   8.6142100
  43.1897850  38.4605360   7.3641450  51.2003080  38.0340270   6.3086130
  50.6011970  38.7576070   6.1249750  51.7482690  37.9717050   5.5262580
  46.4104530  38.9262480  18.3755750  46.3148130  37.9857210  18.2256150
  47.2536510  39.1477550  17.9803820  49.8067950  36.6703810   8.3389410
  50.1997520  36.9876010   7.5258100  50.1684800  35.7915690   8.4533930
  41.5415070  35.3376150  16.5289530  41.1478460  36.1851360  16.7362310
  40.8533470  34.7002520  16.7198170  48.1160120  35.4211120  19.5986270
  47.4258440  35.2283320  20.2332360  48.8592420  35.7045760  20.1310570
  38.8432120  33.2604610  10.5619610  38.5545170  33.8307470  11.2744590
  39.5877880  32.7809060  10.9250840  50.3923090  39.2609560  12.4340190
  49.6604210  39.7696370  12.7830290  49.9947430  38.4439540  12.1328970
  46.8300480  35.9363760  10.8392680  46.8336540  35.4953710   9.9897220
  47.7251600  36.2581090  10.9464500  42.6802860  35.8190250   9.7986890
  42.3402910  36.2965480  10.5553940  41.9180180  35.3655370   9.4387990
  46.8920630  36.9375840   3.8299440  47.0133450  36.8962320   4.7785260
  46.5069140  37.7999990   3.6746170  50.8549000  34.7143240  11.8463130
  50.8721740  35.1651890  12.6904980  50.6064580  33.8148880  12.0596570
  45.9042130  39.2476980   3.2282740  45.3359030  38.7995230   2.6018650
  46.6131130  39.6069760   2.6947890  54.2819750  32.1275420  17.6849510
  54.6065520  31.3965080  18.2107490  54.3176260  31.8089060  16.7830500
  40.9811310  43.1489000  17.1049470  40.5966100  42.5082670  17.7032430
  41.2923500  43.8525120  17.6744200  47.1308450  39.9965540  12.5858090
  47.4978580  39.5224110  13.3319430  46.9413510  40.8707110  12.9266430
  39.9948940  34.7409230   8.7151560  39.7095860  34.3764900   9.5530180
  39.9327800  34.0089690   8.1014700  44.9207820  39.0374180  14.9042300
  44.6164890  39.9166160  15.1292660  45.8754280  39.0973970  14.9399740
  43.4489610  43.2435170   5.5009150  42.6751870  42.7032790   5.3407870
  44.1784240  42.7241780   5.1626910  54.2077590  42.2400530  11.2935540
  54.9276710  42.7355820  10.9031650  54.0059410  41.5618420  10.6489410
  49.6687530  33.6338490   5.4364930  48.8552140  33.1351660   5.3610240
  49.4749480  34.4736740   5.0201280  49.5896390  42.3109590  17.1804540
  49.5233700  41.3905260  16.9262130  48.9601530  42.4085030  17.8949180
  52.3835920  38.0058140   3.7327090  53.2715540  38.3175370   3.5578430
  52.3541010  37.1330390   3.3407670  43.4927010  42.9115550   9.1387960
  44.0105680  42.1083810   9.0844850  43.0411030  42.8494690   9.9804790
  48.3796510  44.1781830   4.4115260  48.7212210  44.9224060   3.9158580
  47.5509220  44.4912950   4.7740090  40.9771550  39.8776920  16.0513660
  40.6186490  40.5430770  16.6387000  40.6826110  39.0460470  16.4226280
  44.1784670  40.3361160  18.9353210  43.8784810  40.4818340  18.0381030
  44.9495910  39.7766450  18.8426600  49.5213120  45.1330160  16.9308340
  49.5357660  44.2011120  16.7127250  48.8138220  45.2189920  17.5698110
  54.6550190  39.3169980   3.2006950  54.5713910  39.7484200   2.3503390
  55.3744380  39.7768330   3.6333770  55.7324330  41.7737500  16.2776920
  55.0072520  42.3666280  16.0806310  56.2599790  41.7661040  15.4790290
  55.6837440  46.1712240   5.9289080  55.0413600  45.5167860   6.2032800
  55.2968100  46.5767330   5.1529750  51.2623920  43.4997670   9.7760770
  51.6147740  42.9025800   9.1162140  50.3786250  43.1741900   9.9469020
  47.3487200  44.2595360   7.1831180  48.0358330  44.8064570   7.5638770
  46.5619620  44.8036090   7.2180790  39.4879600  39.8768180   2.6748260
  40.3574450  40.1592980   2.9584180  38.9969920  40.6904050   2.5597070
  46.6514410  41.2641390   6.7956540  47.1077190  42.0746640   7.0216730
  46.3002620  40.9464530   7.6275030  48.9547020  46.7747730  14.0248840
  49.5989240  46.9807110  14.7022260  49.3176460  46.0136130  13.5719690
  42.5526190  31.6079040   7.2679060  42.4240820  31.5996940   8.2163980
  41.7288210  31.9462130   6.9170070  50.2279100  44.7780080  12.7426290
  50.8701330  44.0773240  12.8558460  50.7528450  45.5578520  12.5623180
  54.0734820  45.0628700   2.4665430  53.8472400  44.3459140   3.0590070
  53.6831020  44.8141140   1.6287180  52.0016720  45.5774980  15.9462350
  52.3372960  46.1641670  16.6240270  51.0817060  45.4467690  16.1760140
  39.8550850  49.0895560   3.2409890  40.2148490  49.6884900   2.5867160
  39.7143190  49.6355450   4.0144920  39.5520120  33.3670160  16.7285760
  38.8378640  33.5667080  17.3338370  39.9715160  32.5909730  17.1000560
  53.6551070  42.9800640   4.1279590  53.3672770  43.4413330   4.9157470
  54.4503240  42.5198410   4.3963810  39.8392710  47.3550420  17.7152290
  39.9483830  46.4145160  17.5747680  39.1873270  47.6205170  17.0666020
  47.8305300  45.6266310  19.1150410  47.5102170  44.9075550  19.6596100
  47.1563660  46.3021380  19.1886470  45.8719470  46.4726760   4.0583560
  45.8629570  47.2056450   3.4428070  44.9517830  46.2258340   4.1510520
  41.4726110  41.6941650   4.8030320  40.8654060  42.4340550   4.8125620
  41.9475460  41.7841010   3.9768520  51.0458900  35.8592470  14.4787210
  51.4139720  35.0387680  14.8066780  50.1857100  35.9194360  14.8942860
  54.4120930  34.8149410   5.2874770  53.7834090  34.9195080   4.5733000
  53.9172850  35.0346190   6.0768650  48.8579070  46.5355000   2.7208750
  48.9591050  46.3318990   1.7910730  47.9580810  46.2813280   2.9256530
  46.3804960  37.0935360   6.7032650  45.6721110  37.5621700   7.1446260
  46.6649440  36.4357370   7.3377840  48.0060890  38.5132060  14.7025180
  48.5046140  38.9877880  15.3677030  48.1483840  37.5895580  14.9095210
  50.4120390  33.8186020   8.1428440  50.2888170  33.8372150   7.1937950
  51.3604950  33.8664960   8.2626840  47.4997180  49.0541320   7.4156420
  47.7538680  49.0162710   6.4935790  46.5509660  48.9274650   7.4084670
  44.5839980  35.4020440   4.0783360  45.4330510  35.8390590   4.0123550
  44.2171250  35.7140700   4.9055420  55.2127750  34.7300020  15.5453570
  54.7101350  35.4705420  15.8847380  56.0284410  35.1184020  15.2290360
  53.5049760  39.9733200   8.9914930  52.5639900  39.9883430   9.1662620
  53.8193830  39.1869160   9.4375230  43.4831400  41.6552800   2.5518890
  44.2494670  41.5434160   3.1144320  43.5606090  40.9590770   1.8995660
  42.1778160  39.0877870   3.2351780  42.2581750  38.1405380   3.3469180
  43.0697910  39.4184750   3.3412440  55.5075340  47.1442050  10.6669190
  55.6322760  47.9673220  11.1393000  56.3740900  46.9332780  10.3193340
  42.9792870  49.2373260  10.3386320  43.7155350  48.6888720  10.6094890
  43.3633790  50.1029270  10.1992310  39.8638350  45.3046830   6.2127830
  38.9378130  45.5467970   6.2033240  40.3294780  46.1321090   6.0912580
  41.9851150  48.4219330  19.5271900  42.7863880  48.7431380  19.9407300
  41.4702970  48.0614910  20.2491810  46.0895180  48.4103570   2.1611890
  46.8823790  48.6992400   1.7093680  45.5699530  47.9795740   1.4824370
  50.8215780  44.5299200  19.4747310  50.2153940  44.5530800  18.7343060
  50.5169890  43.7982240  20.0114560  52.2516150  48.2579490  18.0856720
  53.2037900  48.1737510  18.0356960  52.1044370  48.9221200  18.7590510
  55.1425350  47.6373700   3.5848630  54.8566860  47.2238840   2.7702810
  54.9444900  48.5661410   3.4649150  39.7048960  40.9092790  18.4707950
  40.2087980  40.3300070  19.0424180  38.9656380  41.1933020  19.0084320
  46.7586900  42.3163780  18.0043470  45.9932570  42.8848780  17.9198140
  46.9402860  42.0239990  17.1111700  49.8475310  42.6927010   2.6296230
  49.2985410  43.1396310   3.2738970  50.4694570  42.1876260   3.1533900
  53.9010250  44.0469110  18.5618490  54.6419720  44.3844870  18.0585950
  53.1382930  44.2161170  18.0088260  41.7372040  39.0522380  19.3658020
  41.7777380  38.7536250  20.2743250  42.5917540  39.4529990  19.2065540
  45.5150430  41.6517930   4.5261530  45.9366850  41.4857800   5.3692920
  45.6401270  40.8418160   4.0316670  43.6777850  37.6314480  17.3332510
  43.1474310  37.1405430  16.7055850  44.3465920  38.0598680  16.7990440
  52.5755910  42.0983940  17.0973700  52.9896930  42.2529020  17.9464120
  51.6406910  42.2239160  17.2599480  53.0478080  39.4380100  19.1012850
  53.6298850  38.6832420  19.0133330  53.2239850  39.9687540  18.3244330
  44.1650150  34.5976850  17.4129800  44.0707020  33.9797600  16.6880670
  43.5847540  35.3243140  17.1859710  46.9311590  33.1550090  14.4457190
  46.4828890  33.1774350  13.6002740  46.2976790  32.7569110  15.0427490
  47.3371140  42.0504420  15.0669630  47.7559250  42.8937150  14.8945870
  46.4179770  42.1876460  14.8376410  49.6735040  39.7820600  16.4507470
  49.7931250  39.1861740  17.1902310  50.5329040  39.8190290  16.0308770
  52.0122940  40.3357790  15.0269980  51.4858160  40.8600410  14.4235120
  52.3554280  40.9685180  15.6579710  45.1878560  48.3557430  16.1827360
  44.6499650  49.0803490  15.8636060  45.4412520  47.8787770  15.3924700
  46.4403810  36.3241950  17.7083290  47.0303500  36.0157800  18.3961110
  45.6224050  35.8521700  17.8643190  51.2597240  35.9407760  17.9416310
  50.5712760  35.2789300  17.8766300  51.9803260  35.4946030  18.3864770
  51.8897640  32.5359390   4.0006570  52.1699930  31.6927290   4.3565990
  51.1163370  32.7682500   4.5145320  48.0440770  49.5908640  16.4414010
  47.9699470  50.4943780  16.7486380  47.1419610  49.2720540  16.4136080
  46.4277060  33.7686400   2.4453770  46.0799060  33.0910390   1.8656220
  46.6289830  33.3075910   3.2597160  48.5926100  48.7567150   4.0640370
  49.4876890  49.0952120   4.0859130  48.6243730  48.0346560   3.4364650
  42.2322260  44.1294200   2.2927370  42.6697130  44.6723870   2.9484950
  42.7169990  43.3041150   2.3023710  39.4468060  46.9183230   9.7447630
  39.7771070  46.0504290   9.5126270  39.8759060  47.1241750  10.5752590
  44.0429980  45.2492240   7.4049600  43.7425520  45.1257210   8.3053510
  43.9367470  44.3900830   6.9965330  39.9358270  47.7853820  12.4829260
  39.4989260  47.9654620  13.3153410  40.5035950  48.5428440  12.3410980
  55.5720450  47.2870820  16.7706570  54.9722440  47.3463380  16.0270490
  55.7014350  46.3475800  16.9003420  39.7682700  40.2974050   8.8418140
  39.1131540  40.0285690   8.1977840  40.6060650  40.1878530   8.3920120
  54.2572090  44.0122800  14.8682730  53.4431930  44.4419960  15.1308520
  54.6646290  44.6241210  14.2551780  56.3197530  42.0670490   1.7683000
  56.5946370  42.9749370   1.6402220  56.1308270  42.0033020   2.7044990
  52.7173140  35.0915340   3.0636630  53.1358020  34.9046320   2.2233290
  52.4109200  34.2394390   3.3739560  56.2162870  40.0039480   6.7612430
  55.8406470  39.2367410   6.3293720  55.4865990  40.3862180   7.2487360
  40.8058630  40.6826620  13.3821480  41.1731670  40.5954020  14.2617500
  40.2369450  39.9193170  13.2828340  55.6062490  39.1511000  16.3951950
  55.3748580  38.9223750  15.4949900  55.8667040  40.0710550  16.3496840
  40.3574630  37.5935710  17.2879900  39.4630680  37.5602470  17.6273610
  40.8972180  37.7922500  18.0531150  54.0450560  34.3767430  19.1731650
  54.9220740  34.3850830  19.5565650  54.0571400  33.6398270  18.5624000
  38.9820780  37.5072980   4.7843470  38.0784860  37.7703180   4.6095130
  39.4661400  37.7784150   4.0043430  55.4913830  38.2296970  10.0619670
  56.0151310  37.7359620   9.4309840  56.0773250  38.3647330  10.8067240
  55.6703550  38.3136840  13.5839220  54.7206260  38.2800380  13.6984210
  55.8516560  39.2236950  13.3488990  41.5247990  36.5638520   2.6937850
  42.2339690  36.1421740   2.2085130  40.8087930  36.6313750   2.0621200
  54.9813800  37.4870320   6.0012080  55.4772920  37.2541190   6.7860960
  54.7829870  36.6482160   5.5849720  40.8614340  31.8684040  11.6363120
  41.5090530  31.3181420  11.1958280  41.2816180  32.1227190  12.4578930
  54.7566680  32.0625400  14.9932760  55.3938900  32.6759540  15.3591950
  54.9041570  32.0986060  14.0481990  54.3148140  48.7641400   8.3951000
  54.9107210  48.4425970   7.7185420  54.5726290  48.2913220   9.1864270
  40.6146340  32.0239710  14.3788440  40.2661160  32.4803530  15.1446620
  40.2834040  31.1296840  14.4610870  42.2210710  45.1959310  18.5441630
  42.1780340  44.8252220  19.4256090  42.3521720  46.1336880  18.6843450
  45.9216740  46.7518900  14.1451350  45.6808100  47.0193460  13.2581870
  46.8619380  46.9224630  14.2002210  48.1271160  33.2151590  17.9007860
  48.0660050  33.8073420  18.6503270  49.0671540  33.1077550  17.7558120
  50.7645720  32.8721650  17.5400150  51.3786130  33.1900940  16.8781230
  51.3095280  32.3870240  18.1596010  41.2866980  31.5515910  17.6539210
  41.8349970  31.3703960  16.8905320  41.3522290  30.7610020  18.1895520
  42.0598740  48.1421560  15.6639410  41.4659060  48.0106260  16.4029450
  42.0522580  47.3059700  15.1981510  51.5053760  31.4353790  13.8669440
  50.6313600  31.7688900  13.6642370  51.3964510  30.9626970  14.6921310
  52.4125740  33.6424660  15.2511160  52.0839100  32.8276420  14.8712890
  53.3608040  33.5994470  15.1276850  54.8660350  49.4136700  12.2248730
  54.4063320  50.1652510  11.8506750  54.2372810  48.6943170  12.1663530
  41.6910970  45.5079940  14.6147450  40.9645030  44.8885230  14.5473400
  41.7520120  45.9020550  13.7445530  45.2956070  47.7224940  11.3996860
  45.8121090  47.1112300  10.8745120  45.9453450  48.2253720  11.8907870
  48.0351570  48.6133430  12.2265840  48.3229380  48.3587730  11.3498850
  48.5474790  48.0610790  12.8171410  49.2528580  32.3523630  12.8062350
  48.4700370  32.8269130  13.0859110  48.9591510  31.4478460  12.6975530
  53.8049650  33.0546730  10.8511440  54.2457740  32.9991830  10.0033040
  53.5357240  33.9704740  10.9221620  55.6688220  32.6861970   8.8620260
  55.6076620  31.7423190   8.7151280  56.4480250  32.7942060   9.4073720
  39.9740970  48.8254330   7.8244210  39.8063010  48.1925010   8.5226100
  39.1075480  49.0313730   7.4738400  40.5968990  32.6571110   5.3276070
  41.3548350  32.7699990   4.7540100  40.1346160  33.4940310   5.2819500
  47.1382800  34.7710380   8.3178380  46.3257310  34.3967270   7.9774260
  47.6424440  34.0155460   8.6199570  51.6407780  31.4352830   9.5561450
  52.2437150  32.0073040  10.0309970  50.9000770  31.9992270   9.3335350
  54.7842380  31.8374390   4.8301730  54.9793010  32.7357840   5.0969160
  53.9972250  31.6061470   5.3234680  41.5803670  47.5187560   5.2694350
  41.0551290  47.8995590   4.5656310  41.5048250  48.1438330   5.9904060
  42.9694140  33.1835160   3.8678040  43.4986900  32.3964960   3.7385990
  43.6022460  33.8626350   4.1013570  45.1631980  32.9210300   6.9223430
  44.5334720  32.2197610   7.0893560  44.6237120  33.6814430   6.7056590
  48.1023930  49.5349530  19.5934040  49.0291240  49.2993800  19.6370000
  48.0874360  50.3621530  19.1120070  56.3368990  49.0775100   6.5908290
  56.5121180  48.3912840   5.9469210  55.6390560  49.6022150   6.1984960
  45.2887540  32.1994280  19.3575920  45.0071810  32.7027880  18.5936740
  45.6707240  31.4016030  18.9918050  44.1796640  49.4669940   4.1443600
  44.9115460  49.1829220   3.5967490  44.4390310  49.2283220   5.0342980
  43.3411430  45.5834670   4.1489930  42.7120310  46.0519770   4.6975760
  43.4559260  44.7383890   4.5836120  51.8903000  31.6147860  19.9356390
  51.7768450  31.9342470  20.8307910  52.7072740  32.0160370  19.6393670
  54.6701490  48.7619390  19.4175080  55.4626810  48.2668620  19.2101040
  54.9634640  49.4409530  20.0250690  50.7961150  20.8596840  46.6221600
  50.7155200  19.9451450  46.3513310  50.3825570  21.3563910  45.9161310
  48.9279190  22.6375860  48.5030870  48.1521290  22.1576300  48.7929440
  49.5792120  21.9581510  48.3287030  42.9445020  22.9495670  49.3806630
  42.1129900  22.6944380  49.7803140  43.5526000  23.0206440  50.1164550
  52.9486620  27.0436050  47.2830000  52.4868150  26.2723290  47.6117170
  53.7612170  27.0702120  47.7882450  42.9246280  26.9835760  49.5764650
  43.2274320  26.0933500  49.3974870  43.6689870  27.5405980  49.3486900
  41.3536970  17.9097560  43.1649020  40.4653670  18.2513530  43.0628900
  41.6378160  17.7097880  42.2729850  39.3169980  20.5103210  49.0488720
  39.8886090  19.7425410  49.0492360  39.3171520  20.8091970  48.1395330
  49.1749930  29.3294060  46.9033990  48.5561370  29.7851560  46.3328430
  50.0301710  29.4845520  46.5023690  48.3688180  25.3133050  48.5101030
  48.2996460  24.3722990  48.3490160  49.1308040  25.4034460  49.0823600
  40.5594850  15.9187570  50.8357650  40.3797690  15.0213320  51.1160410
  40.1574930  16.4659440  51.5104600  49.3993350  18.1203430  48.7369960
  49.7758170  17.2475310  48.6243630  49.3012860  18.4562130  47.8460400
  43.5298360  16.4929060  44.1987400  43.6365110  17.3932790  44.5056160
  42.6190720  16.4447030  43.9082050  53.1817470  15.6153870  45.6698300
  54.0027090  15.1250440  45.7123780  53.2151550  16.2051530  46.4230140
  41.1781520  18.4148070  49.4439990  41.8591630  18.6786440  50.0627390
  40.8629570  17.5748940  49.7778000  45.3706090  19.4615430  48.5312580
  45.8784310  19.9596400  49.1717600  45.9019330  18.6850630  48.3551940
  43.6542190  14.1013990  52.7976000  43.6560630  14.6186380  51.9921900
  42.8246500  13.6244170  52.7745930  50.0413280  24.2133300  44.2965900
  49.4230550  24.6782750  43.7328620  50.5536530  24.9060780  44.7135410
  44.9045040  23.7409170  50.9749500  44.5714420  24.3678090  51.6170570
  45.0811720  24.2671050  50.1951170  53.4178950  17.5554250  48.4425840
  52.7134520  17.8439140  49.0228950  53.7791110  18.3654360  48.0825400
  43.3357520  15.8123950  50.8046450  43.6774330  16.6566000  50.5100320
  42.3973330  15.9607690  50.9211790  44.1164140  25.7089970  52.7898680
  44.7338140  26.3841050  52.5083130  43.2557260  26.1177950  52.6986180
  39.4096480  24.8989830  41.6705530  39.0324460  25.3876930  40.9390430
  39.6669550  25.5715110  42.3012060  55.0341730  27.1729380  50.7053320
  54.3505250  27.8428490  50.6969990  55.5736020  27.3710030  49.9398180
  56.4865870  17.0009040  48.8335050  55.5390780  17.0348020  48.9650480
  56.8115860  17.8147990  49.2184410  47.0185410  13.3006220  47.1291040
  47.3260390  12.7453110  46.4126540  46.0886110  13.4350680  46.9464030
  52.5700470  29.0173510  49.4198500  52.5827630  28.6135800  48.5520760
  52.0175690  29.7920800  49.3159930  53.8645890  25.7389730  44.5088670
  53.7542220  24.7964060  44.6338090  53.8614140  26.1005370  45.3951430
  51.9685910  23.9203350  50.7481110  52.3854700  23.7063460  49.9134570
  52.6925730  24.1776140  51.3189730  49.4066170  21.3655050  43.8651160
  48.4795450  21.2992430  44.0939630  49.5590990  22.3035180  43.7506400
  49.3935250  17.6372050  40.8618320  48.4538920  17.7986010  40.9470780
  49.7118510  18.3557730  40.3154310  55.9148010  22.3190570  50.8397350
  55.0866640  22.3883660  50.3647480  56.5098490  22.9044880  50.3713180
  53.4363460  22.9275350  44.3686410  52.8175880  22.5894900  43.7212710
  53.4187910  22.2835110  45.0765600  52.8790020  19.1059890  51.7852220
  52.4661200  19.9313600  52.0392210  52.1465970  18.5204930  51.5928580
  45.0122810  21.8919790  46.6470890  44.6079810  21.1797040  46.1516790
  45.0985930  21.5473030  47.5358930  45.4804510  25.5787350  48.8110100
  45.1832800  24.9732820  48.1317880  46.4304330  25.6164660  48.6999460
  43.7251430  18.6663000  50.4269930  44.2766020  18.7758340  49.6523180
  44.2394940  19.0400600  51.1425160  53.5690120  29.1519220  52.4733200
  53.0920680  29.9591410  52.2805810  52.8851910  28.4997550  52.6259410
  44.5722940  25.3169040  55.4617900  43.6751470  25.5409010  55.7091300
  44.5975810  25.4403980  54.5129300  51.6128160  22.1662160  41.3759160
  52.0521440  21.3284590  41.2296980  52.3256580  22.7991560  41.4623300
  43.3994160  22.1882360  54.0375270  43.2601930  23.0605160  54.4062670
  42.5175520  21.8455170  53.8923210  49.7223540  27.1058230  45.3440400
  50.1619450  27.8482560  44.9295790  49.6610430  27.3484800  46.2679360
  45.1974510  28.1304060  56.2460420  45.1689940  28.5347010  55.3788850
  45.0339480  27.2014420  56.0832020  55.1945300  13.4204970  39.6900200
  54.8817960  13.5131800  40.5899270  55.9557770  13.9986000  39.6397630
  41.7127440  20.7864770  44.1477540  41.5925040  21.5126860  43.5358810
  41.4028330  20.0167680  43.6705450  39.3512810  23.9579910  49.9546180
  39.4293230  24.0928680  49.0101900  39.9654490  23.2495800  50.1474300
  40.5960440  25.6580100  46.3652360  40.1888520  25.7994690  45.5105960
  41.4873450  25.3740260  46.1623570  56.5522580  26.1044010  54.7024600
  56.6785640  25.8655890  53.7841780  56.5943960  25.2728550  55.1746680
  50.4139320  29.8072010  53.2719410  50.9283990  29.7180020  54.0741840
  49.5708400  30.1531710  53.5647320  52.3893720  30.0927350  42.7003410
  52.2294860  29.8030290  43.5985240  52.2240430  29.3167480  42.1648640
  44.8682100  29.8725880  44.4775030  44.6924580  28.9561420  44.2642830
  44.0137840  30.2313170  44.7172830  52.0919850  27.6014910  41.2601410
  51.3985010  27.5992200  40.6003690  52.8342710  27.1774230  40.8295580
  51.6569780  29.2277620  45.3349900  52.1126730  28.4467000  45.6488520
  51.9962300  29.9384440  45.8791080  56.4046590  18.1576470  55.6674340
  55.7890860  18.6656140  55.1389800  56.0843010  17.2574800  55.6100280
  39.4072330  24.9994080  52.4940640  39.5703370  24.5299440  51.6760010
  39.8724780  24.4917640  53.1589480  44.1791100  14.1299840  47.5301210
  43.7359250  14.9109380  47.1985730  44.7376090  14.4529730  48.2372150
  48.4660910  16.9968360  53.1336530  48.0040280  17.2051380  53.9456470
  48.0639020  16.1827710  52.8307200  53.4665420  18.2177310  54.2633190
  52.6159010  17.9183060  54.5842260  53.3067210  18.4619320  53.3517010
  50.5615130  19.7179060  56.3631980  50.8868540  18.8842810  56.0234210
  51.3495460  20.2407580  56.5110310  47.2949920  13.7510540  42.4107040
  46.6704100  13.7470410  43.1360350  47.2080040  12.8841500  42.0143010
  46.2167000  14.6747170  49.3890810  46.5139330  15.5810000  49.3082830
  46.7652560  14.1865950  48.7750380  43.9705320  19.2533410  45.2582460
  43.7446240  19.0370580  46.1629080  43.1897850  19.6861870  44.9128430
  51.2003080  19.2596780  43.8573110  50.6011970  19.9832580  43.6736730
  51.7482690  19.1973560  43.0749560  46.4104530  20.1518990  55.9242730
  46.3148130  19.2113720  55.7743130  47.2536510  20.3734060  55.5290800
  49.8067950  17.8960320  45.8876390  50.1997520  18.2132520  45.0745080
  50.1684800  17.0172200  46.0020910  41.5415070  16.5632660  54.0776510
  41.1478460  17.4107870  54.2849290  40.8533470  15.9259030  54.2685150
  38.8432120  14.4861120  48.1106590  38.5545170  15.0563980  48.8231570
  39.5877880  14.0065570  48.4737820  39.0302350  18.4281240  39.3209310
  38.9477020  19.3712000  39.4624300  38.6785410  18.2856150  38.4421660
  50.3923090  20.4866070  49.9827170  49.6604210  20.9952880  50.3317270
  49.9947430  19.6696050  49.6815950  46.8300480  17.1620270  48.3879660
  46.8336540  16.7210220  47.5384200  47.7251600  17.4837600  48.4951480
  42.6802860  17.0446760  47.3473870  42.3402910  17.5221990  48.1040920
  41.9180180  16.5911880  46.9874970  46.8920630  18.1632350  41.3786420
  47.0133450  18.1218830  42.3272240  46.5069140  19.0256500  41.2233150
  50.8549000  15.9399750  49.3950110  50.8721740  16.3908400  50.2391960
  50.6064580  15.0405390  49.6083550  45.9042130  20.4733490  40.7769720
  45.3359030  20.0251740  40.1505630  46.6131130  20.8326270  40.2434870
  54.2819750  13.3531930  55.2336490  54.6065520  12.6221590  55.7594470
  54.3176260  13.0345570  54.3317480  40.9811310  24.3745510  54.6536450
  40.5966100  23.7339180  55.2519410  41.2923500  25.0781630  55.2231180
  47.1308450  21.2222050  50.1345070  47.4978580  20.7480620  50.8806410
  46.9413510  22.0963620  50.4753410  39.9948940  15.9665740  46.2638540
  39.7095860  15.6021410  47.1017160  39.9327800  15.2346200  45.6501680
  44.9207820  20.2630690  52.4529280  44.6164890  21.1422670  52.6779640
  45.8754280  20.3230480  52.4886720  43.4489610  24.4691680  43.0496130
  42.6751870  23.9289300  42.8894850  44.1784240  23.9498290  42.7113890
  54.2077590  23.4657040  48.8422520  54.9276710  23.9612330  48.4518630
  54.0059410  22.7874930  48.1976390  49.6687530  14.8595000  42.9851910
  48.8552140  14.3608170  42.9097220  49.4749480  15.6993250  42.5688260
  49.5896390  23.5366100  54.7291520  49.5233700  22.6161770  54.4749110
  48.9601530  23.6341540  55.4436160  52.3835920  19.2314650  41.2814070
  53.2715540  19.5431880  41.1065410  52.3541010  18.3586900  40.8894650
  43.4927010  24.1372060  46.6874940  44.0105680  23.3340320  46.6331830
  43.0411030  24.0751200  47.5291770  48.3796510  25.4038340  41.9602240
  48.7212210  26.1480570  41.4645560  47.5509220  25.7169460  42.3227070
  40.9771550  21.1033430  53.6000640  40.6186490  21.7687280  54.1873980
  40.6826110  20.2716980  53.9713260  44.1784670  21.5617670  56.4840190
  43.8784810  21.7074850  55.5868010  44.9495910  21.0022960  56.3913580
  49.5213120  26.3586670  54.4795320  49.5357660  25.4267630  54.2614230
  48.8138220  26.4446430  55.1185090  54.6550190  20.5426490  40.7493930
  54.5713910  20.9740710  39.8990370  55.3744380  21.0024840  41.1820750
  55.7324330  22.9994010  53.8263900  55.0072520  23.5922790  53.6293290
  56.2599790  22.9917550  53.0277270  55.6837440  27.3968750  43.4776060
  55.0413600  26.7424370  43.7519780  55.2968100  27.8023840  42.7016730
  51.2623920  24.7254180  47.3247750  51.6147740  24.1282310  46.6649120
  50.3786250  24.3998410  47.4956000  47.3487200  25.4851870  44.7318160
  48.0358330  26.0321080  45.1125750  46.5619620  26.0292600  44.7667770
  39.4879600  21.1024690  40.2235240  40.3574450  21.3849490  40.5071160
  38.9969920  21.9160560  40.1084050  46.6514410  22.4897900  44.3443520
  47.1077190  23.3003150  44.5703710  46.3002620  22.1721040  45.1762010
  48.9547020  28.0004240  51.5735820  49.5989240  28.2063620  52.2509240
  49.3176460  27.2392640  51.1206670  42.5526190  12.8335550  44.8166040
  42.4240820  12.8253450  45.7650960  41.7288210  13.1718640  44.4657050
  50.2279100  26.0036590  50.2913270  50.8701330  25.3029750  50.4045440
  50.7528450  26.7835030  50.1110160  54.0734820  26.2885210  40.0152410
  53.8472400  25.5715650  40.6077050  53.6831020  26.0397650  39.1774160
  52.0016720  26.8031490  53.4949330  52.3372960  27.3898180  54.1727250
  51.0817060  26.6724200  53.7247120  39.8550850  30.3152070  40.7896870
  40.2148490  30.9141410  40.1354140  39.7143190  30.8611960  41.5631900
  39.5520120  14.5926670  54.2772740  38.8378640  14.7923590  54.8825350
  39.9715160  13.8166240  54.6487540  53.6551070  24.2057150  41.6766570
  53.3672770  24.6669840  42.4644450  54.4503240  23.7454920  41.9450790
  39.8392710  28.5806930  55.2639270  39.9483830  27.6401670  55.1234660
  39.1873270  28.8461680  54.6153000  47.8305300  26.8522820  56.6637390
  47.5102170  26.1332060  57.2083080  47.1563660  27.5277890  56.7373450
  45.8719470  27.6983270  41.6070540  45.8629570  28.4312960  40.9915050
  44.9517830  27.4514850  41.6997500  41.4726110  22.9198160  42.3517300
  40.8654060  23.6597060  42.3612600  41.9475460  23.0097520  41.5255500
  51.0458900  17.0848980  52.0274190  51.4139720  16.2644190  52.3553760
  50.1857100  17.1450870  52.4429840  54.4120930  16.0405920  42.8361750
  53.7834090  16.1451590  42.1219980  53.9172850  16.2602700  43.6255630
  48.8579070  27.7611510  40.2695730  48.9591050  27.5575500  39.3397710
  47.9580810  27.5069790  40.4743510  46.3804960  18.3191870  44.2519630
  45.6721110  18.7878210  44.6933240  46.6649440  17.6613880  44.8864820
  48.0060890  19.7388570  52.2512160  48.5046140  20.2134390  52.9164010
  48.1483840  18.8152090  52.4582190  50.4120390  15.0442530  45.6915420
  50.2888170  15.0628660  44.7424930  51.3604950  15.0921470  45.8113820
  47.4997180  30.2797830  44.9643400  47.7538680  30.2419220  44.0422770
  46.5509660  30.1531160  44.9571650  44.5839980  16.6276950  41.6270340
  45.4330510  17.0647100  41.5610530  44.2171250  16.9397210  42.4542400
  55.2127750  15.9556530  53.0940550  54.7101350  16.6961930  53.4334360
  56.0284410  16.3440530  52.7777340  53.5049760  21.1989710  46.5401910
  52.5639900  21.2139940  46.7149600  53.8193830  20.4125670  46.9862210
  43.4831400  22.8809310  40.1005870  44.2494670  22.7690670  40.6631300
  43.5606090  22.1847280  39.4482640  42.1778160  20.3134380  40.7838760
  42.2581750  19.3661890  40.8956160  43.0697910  20.6441260  40.8899420
  55.5075340  28.3698560  48.2156170  55.6322760  29.1929730  48.6879980
  56.3740900  28.1589290  47.8680320  42.9792870  30.4629770  47.8873300
  43.7155350  29.9145230  48.1581870  43.3633790  31.3285780  47.7479290
  39.8638350  26.5303340  43.7614810  38.9378130  26.7724480  43.7520220
  40.3294780  27.3577600  43.6399560  46.0895180  29.6360080  39.7098870
  46.8823790  29.9248910  39.2580660  45.5699530  29.2052250  39.0311350
  52.2516150  29.4836000  55.6343700  53.2037900  29.3994020  55.5843940
  52.1044370  30.1477710  56.3077490  55.1425350  28.8630210  41.1335610
  54.8566860  28.4495350  40.3189790  54.9444900  29.7917920  41.0136130
  39.7048960  22.1349300  56.0194930  40.2087980  21.5556580  56.5911160
  38.9656380  22.4189530  56.5571300  46.6072580  24.8563490  39.5741220
  46.5023220  24.2415840  40.3002600  46.4396800  24.3329380  38.7904230
  46.7586900  23.5420290  55.5530450  45.9932570  24.1105290  55.4685120
  46.9402860  23.2496500  54.6598680  49.8475310  23.9183520  40.1783210
  49.2985410  24.3652820  40.8225950  50.4694570  23.4132770  40.7020880
  53.9010250  25.2725620  56.1105470  54.6419720  25.6101380  55.6072930
  53.1382930  25.4417680  55.5575240  45.5150430  22.8774440  42.0748510
  45.9366850  22.7114310  42.9179900  45.6401270  22.0674670  41.5803650
  43.6777850  18.8570990  54.8819490  43.1474310  18.3661940  54.2542830
  44.3465920  19.2855190  54.3477420  48.0278070  21.9012050  39.3225610
  48.5483730  21.1861070  38.9566760  48.6746470  22.5397920  39.6226120
  52.5755910  23.3240450  54.6460680  52.9896930  23.4785530  55.4951100
  51.6406910  23.4495670  54.8086460  53.0478080  20.6636610  56.6499830
  53.6298850  19.9088930  56.5620310  53.2239850  21.1944050  55.8731310
  44.1650150  15.8233360  54.9616780  44.0707020  15.2054110  54.2367650
  43.5847540  16.5499650  54.7346690  46.9311590  14.3806600  51.9944170
  46.4828890  14.4030860  51.1489720  46.2976790  13.9825620  52.5914470
  47.3371140  23.2760930  52.6156610  47.7559250  24.1193660  52.4432850
  46.4179770  23.4132970  52.3863390  49.6735040  21.0077110  53.9994450
  49.7931250  20.4118250  54.7389290  50.5329040  21.0446800  53.5795750
  52.0122940  21.5614300  52.5756960  51.4858160  22.0856920  51.9722100
  52.3554280  22.1941690  53.2066690  44.4109330  18.9507670  39.0206670
  44.2098390  18.0875030  39.3820010  44.2401380  18.8641030  38.0828270
  45.1878560  29.5813940  53.7314340  44.6499650  30.3060000  53.4123040
  45.4412520  29.1044280  52.9411680  46.4403810  17.5498460  55.2570270
  47.0303500  17.2414310  55.9448090  45.6224050  17.0778210  55.4130170
  51.2597240  17.1664270  55.4903290  50.5712760  16.5045810  55.4253280
  51.9803260  16.7202540  55.9351750  51.8897640  13.7615900  41.5493550
  52.1699930  12.9183800  41.9052970  51.1163370  13.9939010  42.0632300
  43.2092130  16.0508290  39.0084550  43.5118030  16.0575720  38.1003700
  43.9486720  15.7006150  39.5052210  48.0440770  30.8165150  53.9900990
  47.9699470  31.7200290  54.2973360  47.1419610  30.4977050  53.9623060
  46.4277060  14.9942910  39.9940750  46.0799060  14.3166900  39.4143200
  46.6289830  14.5332420  40.8084140  48.5926100  29.9823660  41.6127350
  49.4876890  30.3208630  41.6346110  48.6243730  29.2603070  40.9851630
  42.2322260  25.3550710  39.8414350  42.6697130  25.8980380  40.4971930
  42.7169990  24.5297660  39.8510690  39.4468060  28.1439740  47.2934610
  39.7771070  27.2760800  47.0613250  39.8759060  28.3498260  48.1239570
  44.0429980  26.4748750  44.9536580  43.7425520  26.3513720  45.8540490
  43.9367470  25.6157340  44.5452310  39.9358270  29.0110330  50.0316240
  39.4989260  29.1911130  50.8640390  40.5035950  29.7684950  49.8897960
  55.5720450  28.5127330  54.3193550  54.9722440  28.5719890  53.5757470
  55.7014350  27.5732310  54.4490400  39.7682700  21.5230560  46.3905120
  39.1131540  21.2542200  45.7464820  40.6060650  21.4135040  45.9407100
  54.2572090  25.2379310  52.4169710  53.4431930  25.6676470  52.6795500
  54.6646290  25.8497720  51.8038760  56.3197530  23.2927000  39.3169980
  56.5946370  24.2005880  39.1889200  56.1308270  23.2289530  40.2531970
  52.7173140  16.3171850  40.6123610  53.1358020  16.1302830  39.7720270
  52.4109200  15.4650900  40.9226540  56.2162870  21.2295990  44.3099410
  55.8406470  20.4623920  43.8780700  55.4865990  21.6118690  44.7974340
  40.8058630  21.9083130  50.9308460  41.1731670  21.8210530  51.8104480
  40.2369450  21.1449680  50.8315320  55.6062490  20.3767510  53.9438930
  55.3748580  20.1480260  53.0436880  55.8667040  21.2967060  53.8983820
  40.3574630  18.8192220  54.8366880  39.4630680  18.7858980  55.1760590
  40.8972180  19.0179010  55.6018130  54.0450560  15.6023940  56.7218630
  54.9220740  15.6107340  57.1052630  54.0571400  14.8654780  56.1110980
  38.9820780  18.7329490  42.3330450  38.0784860  18.9959690  42.1582110
  39.4661400  19.0040660  41.5530410  55.4913830  19.4553480  47.6106650
  56.0151310  18.9616130  46.9796820  56.0773250  19.5903840  48.3554220
  55.6703550  19.5393350  51.1326200  54.7206260  19.5056890  51.2471190
  55.8516560  20.4493460  50.8975970  41.5247990  17.7895030  40.2424830
  42.2339690  17.3678250  39.7572110  40.8087930  17.8570260  39.6108180
  41.1722150  13.8434360  39.2827480  41.8950280  14.3843300  39.6008700
  41.4446670  13.5697780  38.4069020  54.9813800  18.7126830  43.5499060
  55.4772920  18.4797700  44.3347940  54.7829870  17.8738670  43.1336700
  40.8614340  13.0940550  49.1850100  41.5090530  12.5437930  48.7445260
  41.2816180  13.3483700  50.0065910  54.7566680  13.2881910  52.5419740
  55.3938900  13.9016050  52.9078930  54.9041570  13.3242570  51.5968970
  54.3148140  29.9897910  45.9437980  54.9107210  29.6682480  45.2672400
  54.5726290  29.5169730  46.7351250  40.6146340  13.2496220  51.9275420
  40.2661160  13.7060040  52.6933600  40.2834040  12.3553350  52.0097850
  42.2210710  26.4215820  56.0928610  42.1780340  26.0508730  56.9743070
  42.3521720  27.3593390  56.2330430  45.9216740  27.9775410  51.6938330
  45.6808100  28.2449970  50.8068850  46.8619380  28.1481140  51.7489190
  48.1271160  14.4408100  55.4494840  48.0660050  15.0329930  56.1990250
  49.0671540  14.3334060  55.3045100  50.7645720  14.0978160  55.0887130
  51.3786130  14.4157450  54.4268210  51.3095280  13.6126750  55.7082990
  41.2866980  12.7772420  55.2026190  41.8349970  12.5960470  54.4392300
  41.3522290  11.9866530  55.7382500  42.0598740  29.3678070  53.2126390
  41.4659060  29.2362770  53.9516430  42.0522580  28.5316210  52.7468490
  51.5053760  12.6610300  51.4156420  50.6313600  12.9945410  51.2129350
  51.3964510  12.1883480  52.2408290  52.4125740  14.8681170  52.7998140
  52.0839100  14.0532930  52.4199870  53.3608040  14.8250980  52.6763830
  54.8660350  30.6393210  49.7735710  54.4063320  31.3909020  49.3993730
  54.2372810  29.9199680  49.7150510  41.6910970  26.7336450  52.1634430
  40.9645030  26.1141740  52.0960380  41.7520120  27.1277060  51.2932510
  45.2956070  28.9481450  48.9483840  45.8121090  28.3368810  48.4232100
  45.9453450  29.4510230  49.4394850  48.0351570  29.8389940  49.7752820
  48.3229380  29.5844240  48.8985830  48.5474790  29.2867300  50.3658390
  49.2528580  13.5780140  50.3549330  48.4700370  14.0525640  50.6346090
  48.9591510  12.6734970  50.2462510  53.8049650  14.2803240  48.3998420
  54.2457740  14.2248340  47.5520020  53.5357240  15.1961250  48.4708600
  55.6688220  13.9118480  46.4107240  55.6076620  12.9679700  46.2638260
  56.4480250  14.0198570  46.9560700  39.9740970  30.0510840  45.3731190
  39.8063010  29.4181520  46.0713080  39.1075480  30.2570240  45.0225380
  40.5968990  13.8827620  42.8763050  41.3548350  13.9956500  42.3027080
  40.1346160  14.7196820  42.8306480  47.1382800  15.9966890  45.8665360
  46.3257310  15.6223780  45.5261240  47.6424440  15.2411970  46.1686550
  51.6407780  12.6609340  47.1048430  52.2437150  13.2329550  47.5796950
  50.9000770  13.2248780  46.8822330  54.7842380  13.0630900  42.3788710
  54.9793010  13.9614350  42.6456140  53.9972250  12.8317980  42.8721660
  41.5803670  28.7444070  42.8181330  41.0551290  29.1252100  42.1143290
  41.5048250  29.3694840  43.5391040  42.9694140  14.4091670  41.4165020
  43.4986900  13.6221470  41.2872970  43.6022460  15.0882860  41.6500550
  45.1631980  14.1466810  44.4710410  44.5334720  13.4454120  44.6380540
  44.6237120  14.9070940  44.2543570  48.1023930  30.7606040  57.1421020
  49.0291240  30.5250310  57.1856980  48.0874360  31.5878040  56.6607050
  56.3368990  30.3031610  44.1395270  56.5121180  29.6169350  43.4956190
  55.6390560  30.8278660  43.7471940  45.2887540  13.4250790  56.9062900
  45.0071810  13.9284390  56.1423720  45.6707240  12.6272540  56.5405030
  44.1796640  30.6926450  41.6930580  44.9115460  30.4085730  41.1454470
  44.4390310  30.4539730  42.5829960  43.3411430  26.8091180  41.6976910
  42.7120310  27.2776280  42.2462740  43.4559260  25.9640400  42.1323100
  50.7961150  20.8596840  27.8478110  50.7155200  19.9451450  27.5769820
  50.3825570  21.3563910  27.1417820  48.9279190  22.6375860  29.7287380
  48.1521290  22.1576300  30.0185950  49.5792120  21.9581510  29.5543540
  42.9445020  22.9495670  30.6063140  42.1129900  22.6944380  31.0059650
  43.5526000  23.0206440  31.3421060  52.9486620  27.0436050  28.5086510
  52.4868150  26.2723290  28.8373680  53.7612170  27.0702120  29.0138960
  42.9246280  26.9835760  30.8021160  43.2274320  26.0933500  30.6231380
  43.6689870  27.5405980  30.5743410  41.3536970  17.9097560  24.3905530
  40.4653670  18.2513530  24.2885410  41.6378160  17.7097880  23.4986360
  39.3169980  20.5103210  30.2745230  39.8886090  19.7425410  30.2748870
  39.3171520  20.8091970  29.3651840  49.1749930  29.3294060  28.1290500
  48.5561370  29.7851560  27.5584940  50.0301710  29.4845520  27.7280200
  48.3688180  25.3133050  29.7357540  48.2996460  24.3722990  29.5746670
  49.1308040  25.4034460  30.3080110  40.5594850  15.9187570  32.0614160
  40.3797690  15.0213320  32.3416920  40.1574930  16.4659440  32.7361110
  49.3993350  18.1203430  29.9626470  49.7758170  17.2475310  29.8500140
  49.3012860  18.4562130  29.0716910  43.5298360  16.4929060  25.4243910
  43.6365110  17.3932790  25.7312670  42.6190720  16.4447030  25.1338560
  53.1817470  15.6153870  26.8954810  54.0027090  15.1250440  26.9380290
  53.2151550  16.2051530  27.6486650  41.1781520  18.4148070  30.6696500
  41.8591630  18.6786440  31.2883900  40.8629570  17.5748940  31.0034510
  45.3706090  19.4615430  29.7569090  45.8784310  19.9596400  30.3974110
  45.9019330  18.6850630  29.5808450  43.6542190  14.1013990  34.0232510
  43.6560630  14.6186380  33.2178410  42.8246500  13.6244170  34.0002440
  50.0413280  24.2133300  25.5222410  49.4230550  24.6782750  24.9585130
  50.5536530  24.9060780  25.9391920  44.9045040  23.7409170  32.2006010
  44.5714420  24.3678090  32.8427080  45.0811720  24.2671050  31.4207680
  53.4178950  17.5554250  29.6682350  52.7134520  17.8439140  30.2485460
  53.7791110  18.3654360  29.3081910  43.3357520  15.8123950  32.0302960
  43.6774330  16.6566000  31.7356830  42.3973330  15.9607690  32.1468300
  44.1164140  25.7089970  34.0155190  44.7338140  26.3841050  33.7339640
  43.2557260  26.1177950  33.9242690  39.4096480  24.8989830  22.8962040
  39.0324460  25.3876930  22.1646940  39.6669550  25.5715110  23.5268570
  55.0341730  27.1729380  31.9309830  54.3505250  27.8428490  31.9226500
  55.5736020  27.3710030  31.1654690  56.4865870  17.0009040  30.0591560
  55.5390780  17.0348020  30.1906990  56.8115860  17.8147990  30.4440920
  47.0185410  13.3006220  28.3547550  47.3260390  12.7453110  27.6383050
  46.0886110  13.4350680  28.1720540  52.5700470  29.0173510  30.6455010
  52.5827630  28.6135800  29.7777270  52.0175690  29.7920800  30.5416440
  53.8645890  25.7389730  25.7345180  53.7542220  24.7964060  25.8594600
  53.8614140  26.1005370  26.6207940  51.9685910  23.9203350  31.9737620
  52.3854700  23.7063460  31.1391080  52.6925730  24.1776140  32.5446240
  49.4066170  21.3655050  25.0907670  48.4795450  21.2992430  25.3196140
  49.5590990  22.3035180  24.9762910  49.3935250  17.6372050  22.0874830
  48.4538920  17.7986010  22.1727290  49.7118510  18.3557730  21.5410820
  55.9148010  22.3190570  32.0653860  55.0866640  22.3883660  31.5903990
  56.5098490  22.9044880  31.5969690  53.4363460  22.9275350  25.5942920
  52.8175880  22.5894900  24.9469220  53.4187910  22.2835110  26.3022110
  52.8790020  19.1059890  33.0108730  52.4661200  19.9313600  33.2648720
  52.1465970  18.5204930  32.8185090  45.0122810  21.8919790  27.8727400
  44.6079810  21.1797040  27.3773300  45.0985930  21.5473030  28.7615440
  45.4804510  25.5787350  30.0366610  45.1832800  24.9732820  29.3574390
  46.4304330  25.6164660  29.9255970  43.7251430  18.6663000  31.6526440
  44.2766020  18.7758340  30.8779690  44.2394940  19.0400600  32.3681670
  53.5690120  29.1519220  33.6989710  53.0920680  29.9591410  33.5062320
  52.8851910  28.4997550  33.8515920  44.5722940  25.3169040  36.6874410
  43.6751470  25.5409010  36.9347810  44.5975810  25.4403980  35.7385810
  51.6128160  22.1662160  22.6015670  52.0521440  21.3284590  22.4553490
  52.3256580  22.7991560  22.6879810  43.3994160  22.1882360  35.2631780
  43.2601930  23.0605160  35.6319180  42.5175520  21.8455170  35.1179720
  49.7223540  27.1058230  26.5696910  50.1619450  27.8482560  26.1552300
  49.6610430  27.3484800  27.4935870  45.1974510  28.1304060  37.4716930
  45.1689940  28.5347010  36.6045360  45.0339480  27.2014420  37.3088530
  55.1945300  13.4204970  20.9156710  54.8817960  13.5131800  21.8155780
  55.9557770  13.9986000  20.8654140  41.7127440  20.7864770  25.3734050
  41.5925040  21.5126860  24.7615320  41.4028330  20.0167680  24.8961960
  39.3512810  23.9579910  31.1802690  39.4293230  24.0928680  30.2358410
  39.9654490  23.2495800  31.3730810  40.5960440  25.6580100  27.5908870
  40.1888520  25.7994690  26.7362470  41.4873450  25.3740260  27.3880080
  56.5522580  26.1044010  35.9281110  56.6785640  25.8655890  35.0098290
  56.5943960  25.2728550  36.4003190  50.4139320  29.8072010  34.4975920
  50.9283990  29.7180020  35.2998350  49.5708400  30.1531710  34.7903830
  52.3893720  30.0927350  23.9259920  52.2294860  29.8030290  24.8241750
  52.2240430  29.3167480  23.3905150  44.8682100  29.8725880  25.7031540
  44.6924580  28.9561420  25.4899340  44.0137840  30.2313170  25.9429340
  52.0919850  27.6014910  22.4857920  51.3985010  27.5992200  21.8260200
  52.8342710  27.1774230  22.0552090  51.6569780  29.2277620  26.5606410
  52.1126730  28.4467000  26.8745030  51.9962300  29.9384440  27.1047590
  56.4046590  18.1576470  36.8930850  55.7890860  18.6656140  36.3646310
  56.0843010  17.2574800  36.8356790  39.4072330  24.9994080  33.7197150
  39.5703370  24.5299440  32.9016520  39.8724780  24.4917640  34.3845990
  44.1791100  14.1299840  28.7557720  43.7359250  14.9109380  28.4242240
  44.7376090  14.4529730  29.4628660  48.4660910  16.9968360  34.3593040
  48.0040280  17.2051380  35.1712980  48.0639020  16.1827710  34.0563710
  53.4665420  18.2177310  35.4889700  52.6159010  17.9183060  35.8098770
  53.3067210  18.4619320  34.5773520  50.5615130  19.7179060  37.5888490
  50.8868540  18.8842810  37.2490720  51.3495460  20.2407580  37.7366820
  47.2949920  13.7510540  23.6363550  46.6704100  13.7470410  24.3616860
  47.2080040  12.8841500  23.2399520  46.2167000  14.6747170  30.6147320
  46.5139330  15.5810000  30.5339340  46.7652560  14.1865950  30.0006890
  43.9705320  19.2533410  26.4838970  43.7446240  19.0370580  27.3885590
  43.1897850  19.6861870  26.1384940  51.2003080  19.2596780  25.0829620
  50.6011970  19.9832580  24.8993240  51.7482690  19.1973560  24.3006070
  46.4104530  20.1518990  37.1499240  46.3148130  19.2113720  36.9999640
  47.2536510  20.3734060  36.7547310  49.8067950  17.8960320  27.1132900
  50.1997520  18.2132520  26.3001590  50.1684800  17.0172200  27.2277420
  41.5415070  16.5632660  35.3033020  41.1478460  17.4107870  35.5105800
  40.8533470  15.9259030  35.4941660  48.1160120  16.6467630  38.3729760
  47.4258440  16.4539830  39.0075850  48.8592420  16.9302270  38.9054060
  38.8432120  14.4861120  29.3363100  38.5545170  15.0563980  30.0488080
  39.5877880  14.0065570  29.6994330  39.0302350  18.4281240  20.5465820
  38.9477020  19.3712000  20.6880810  38.6785410  18.2856150  19.6678170
  50.3923090  20.4866070  31.2083680  49.6604210  20.9952880  31.5573780
  49.9947430  19.6696050  30.9072460  46.8300480  17.1620270  29.6136170
  46.8336540  16.7210220  28.7640710  47.7251600  17.4837600  29.7207990
  42.6802860  17.0446760  28.5730380  42.3402910  17.5221990  29.3297430
  41.9180180  16.5911880  28.2131480  46.8920630  18.1632350  22.6042930
  47.0133450  18.1218830  23.5528750  46.5069140  19.0256500  22.4489660
  50.8549000  15.9399750  30.6206620  50.8721740  16.3908400  31.4648470
  50.6064580  15.0405390  30.8340060  45.9042130  20.4733490  22.0026230
  45.3359030  20.0251740  21.3762140  46.6131130  20.8326270  21.4691380
  54.2819750  13.3531930  36.4593000  54.6065520  12.6221590  36.9850980
  54.3176260  13.0345570  35.5573990  40.9811310  24.3745510  35.8792960
  40.5966100  23.7339180  36.4775920  41.2923500  25.0781630  36.4487690
  47.1308450  21.2222050  31.3601580  47.4978580  20.7480620  32.1062920
  46.9413510  22.0963620  31.7009920  39.9948940  15.9665740  27.4895050
  39.7095860  15.6021410  28.3273670  39.9327800  15.2346200  26.8758190
  44.9207820  20.2630690  33.6785790  44.6164890  21.1422670  33.9036150
  45.8754280  20.3230480  33.7143230  43.4489610  24.4691680  24.2752640
  42.6751870  23.9289300  24.1151360  44.1784240  23.9498290  23.9370400
  54.2077590  23.4657040  30.0679030  54.9276710  23.9612330  29.6775140
  54.0059410  22.7874930  29.4232900  49.6687530  14.8595000  24.2108420
  48.8552140  14.3608170  24.1353730  49.4749480  15.6993250  23.7944770
  49.5896390  23.5366100  35.9548030  49.5233700  22.6161770  35.7005620
  48.9601530  23.6341540  36.6692670  52.3835920  19.2314650  22.5070580
  53.2715540  19.5431880  22.3321920  52.3541010  18.3586900  22.1151160
  43.4927010  24.1372060  27.9131450  44.0105680  23.3340320  27.8588340
  43.0411030  24.0751200  28.7548280  48.3796510  25.4038340  23.1858750
  48.7212210  26.1480570  22.6902070  47.5509220  25.7169460  23.5483580
  40.9771550  21.1033430  34.8257150  40.6186490  21.7687280  35.4130490
  40.6826110  20.2716980  35.1969770  44.1784670  21.5617670  37.7096700
  43.8784810  21.7074850  36.8124520  44.9495910  21.0022960  37.6170090
  49.5213120  26.3586670  35.7051830  49.5357660  25.4267630  35.4870740
  48.8138220  26.4446430  36.3441600  54.6550190  20.5426490  21.9750440
  54.5713910  20.9740710  21.1246880  55.3744380  21.0024840  22.4077260
  55.7324330  22.9994010  35.0520410  55.0072520  23.5922790  34.8549800
  56.2599790  22.9917550  34.2533780  55.6837440  27.3968750  24.7032570
  55.0413600  26.7424370  24.9776290  55.2968100  27.8023840  23.9273240
  51.2623920  24.7254180  28.5504260  51.6147740  24.1282310  27.8905630
  50.3786250  24.3998410  28.7212510  47.3487200  25.4851870  25.9574670
  48.0358330  26.0321080  26.3382260  46.5619620  26.0292600  25.9924280
  39.4879600  21.1024690  21.4491750  40.3574450  21.3849490  21.7327670
  38.9969920  21.9160560  21.3340560  46.6514410  22.4897900  25.5700030
  47.1077190  23.3003150  25.7960220  46.3002620  22.1721040  26.4018520
  48.9547020  28.0004240  32.7992330  49.5989240  28.2063620  33.4765750
  49.3176460  27.2392640  32.3463180  42.5526190  12.8335550  26.0422550
  42.4240820  12.8253450  26.9907470  41.7288210  13.1718640  25.6913560
  50.2279100  26.0036590  31.5169780  50.8701330  25.3029750  31.6301950
  50.7528450  26.7835030  31.3366670  54.0734820  26.2885210  21.2408920
  53.8472400  25.5715650  21.8333560  53.6831020  26.0397650  20.4030670
  52.0016720  26.8031490  34.7205840  52.3372960  27.3898180  35.3983760
  51.0817060  26.6724200  34.9503630  39.8550850  30.3152070  22.0153380
  40.2148490  30.9141410  21.3610650  39.7143190  30.8611960  22.7888410
  39.5520120  14.5926670  35.5029250  38.8378640  14.7923590  36.1081860
  39.9715160  13.8166240  35.8744050  53.6551070  24.2057150  22.9023080
  53.3672770  24.6669840  23.6900960  54.4503240  23.7454920  23.1707300
  39.8392710  28.5806930  36.4895780  39.9483830  27.6401670  36.3491170
  39.1873270  28.8461680  35.8409510  47.8305300  26.8522820  37.8893900
  47.5102170  26.1332060  38.4339590  47.1563660  27.5277890  37.9629960
  45.8719470  27.6983270  22.8327050  45.8629570  28.4312960  22.2171560
  44.9517830  27.4514850  22.9254010  41.4726110  22.9198160  23.5773810
  40.8654060  23.6597060  23.5869110  41.9475460  23.0097520  22.7512010
  51.0458900  17.0848980  33.2530700  51.4139720  16.2644190  33.5810270
  50.1857100  17.1450870  33.6686350  54.4120930  16.0405920  24.0618260
  53.7834090  16.1451590  23.3476490  53.9172850  16.2602700  24.8512140
  48.8579070  27.7611510  21.4952240  48.9591050  27.5575500  20.5654220
  47.9580810  27.5069790  21.7000020  46.3804960  18.3191870  25.4776140
  45.6721110  18.7878210  25.9189750  46.6649440  17.6613880  26.1121330
  48.0060890  19.7388570  33.4768670  48.5046140  20.2134390  34.1420520
  48.1483840  18.8152090  33.6838700  50.4120390  15.0442530  26.9171930
  50.2888170  15.0628660  25.9681440  51.3604950  15.0921470  27.0370330
  47.4997180  30.2797830  26.1899910  47.7538680  30.2419220  25.2679280
  46.5509660  30.1531160  26.1828160  44.5839980  16.6276950  22.8526850
  45.4330510  17.0647100  22.7867040  44.2171250  16.9397210  23.6798910
  55.2127750  15.9556530  34.3197060  54.7101350  16.6961930  34.6590870
  56.0284410  16.3440530  34.0033850  53.5049760  21.1989710  27.7658420
  52.5639900  21.2139940  27.9406110  53.8193830  20.4125670  28.2118720
  43.4831400  22.8809310  21.3262380  44.2494670  22.7690670  21.8887810
  43.5606090  22.1847280  20.6739150  42.1778160  20.3134380  22.0095270
  42.2581750  19.3661890  22.1212670  43.0697910  20.6441260  22.1155930
  55.5075340  28.3698560  29.4412680  55.6322760  29.1929730  29.9136490
  56.3740900  28.1589290  29.0936830  42.9792870  30.4629770  29.1129810
  43.7155350  29.9145230  29.3838380  43.3633790  31.3285780  28.9735800
  39.8638350  26.5303340  24.9871320  38.9378130  26.7724480  24.9776730
  40.3294780  27.3577600  24.8656070  41.9851150  29.6475840  38.3015390
  42.7863880  29.9687890  38.7150790  41.4702970  29.2871420  39.0235300
  46.0895180  29.6360080  20.9355380  46.8823790  29.9248910  20.4837170
  45.5699530  29.2052250  20.2567860  50.8215780  25.7555710  38.2490800
  50.2153940  25.7787310  37.5086550  50.5169890  25.0238750  38.7858050
  52.2516150  29.4836000  36.8600210  53.2037900  29.3994020  36.8100450
  52.1044370  30.1477710  37.5334000  55.1425350  28.8630210  22.3592120
  54.8566860  28.4495350  21.5446300  54.9444900  29.7917920  22.2392640
  39.7048960  22.1349300  37.2451440  40.2087980  21.5556580  37.8167670
  38.9656380  22.4189530  37.7827810  46.6072580  24.8563490  20.7997730
  46.5023220  24.2415840  21.5259110  46.4396800  24.3329380  20.0160740
  46.7586900  23.5420290  36.7786960  45.9932570  24.1105290  36.6941630
  46.9402860  23.2496500  35.8855190  49.8475310  23.9183520  21.4039720
  49.2985410  24.3652820  22.0482460  50.4694570  23.4132770  21.9277390
  53.9010250  25.2725620  37.3361980  54.6419720  25.6101380  36.8329440
  53.1382930  25.4417680  36.7831750  41.7372040  20.2778890  38.1401510
  41.7777380  19.9792760  39.0486740  42.5917540  20.6786500  37.9809030
  45.5150430  22.8774440  23.3005020  45.9366850  22.7114310  24.1436410
  45.6401270  22.0674670  22.8060160  43.6777850  18.8570990  36.1076000
  43.1474310  18.3661940  35.4799340  44.3465920  19.2855190  35.5733930
  48.0278070  21.9012050  20.5482120  48.5483730  21.1861070  20.1823270
  48.6746470  22.5397920  20.8482630  52.5755910  23.3240450  35.8717190
  52.9896930  23.4785530  36.7207610  51.6406910  23.4495670  36.0342970
  53.0478080  20.6636610  37.8756340  53.6298850  19.9088930  37.7876820
  53.2239850  21.1944050  37.0987820  44.1650150  15.8233360  36.1873290
  44.0707020  15.2054110  35.4624160  43.5847540  16.5499650  35.9603200
  46.9311590  14.3806600  33.2200680  46.4828890  14.4030860  32.3746230
  46.2976790  13.9825620  33.8170980  47.3371140  23.2760930  33.8413120
  47.7559250  24.1193660  33.6689360  46.4179770  23.4132970  33.6119900
  49.6735040  21.0077110  35.2250960  49.7931250  20.4118250  35.9645800
  50.5329040  21.0446800  34.8052260  52.0122940  21.5614300  33.8013470
  51.4858160  22.0856920  33.1978610  52.3554280  22.1941690  34.4323200
  44.4109330  18.9507670  20.2463180  44.2098390  18.0875030  20.6076520
  44.2401380  18.8641030  19.3084780  45.1878560  29.5813940  34.9570850
  44.6499650  30.3060000  34.6379550  45.4412520  29.1044280  34.1668190
  46.4403810  17.5498460  36.4826780  47.0303500  17.2414310  37.1704600
  45.6224050  17.0778210  36.6386680  51.2597240  17.1664270  36.7159800
  50.5712760  16.5045810  36.6509790  51.9803260  16.7202540  37.1608260
  51.8897640  13.7615900  22.7750060  52.1699930  12.9183800  23.1309480
  51.1163370  13.9939010  23.2888810  43.2092130  16.0508290  20.2341060
  43.5118030  16.0575720  19.3260210  43.9486720  15.7006150  20.7308720
  48.0440770  30.8165150  35.2157500  47.9699470  31.7200290  35.5229870
  47.1419610  30.4977050  35.1879570  46.4277060  14.9942910  21.2197260
  46.0799060  14.3166900  20.6399710  46.6289830  14.5332420  22.0340650
  48.5926100  29.9823660  22.8383860  49.4876890  30.3208630  22.8602620
  48.6243730  29.2603070  22.2108140  42.2322260  25.3550710  21.0670860
  42.6697130  25.8980380  21.7228440  42.7169990  24.5297660  21.0767200
  44.0429980  26.4748750  26.1793090  43.7425520  26.3513720  27.0797000
  43.9367470  25.6157340  25.7708820  55.5720450  28.5127330  35.5450060
  54.9722440  28.5719890  34.8013980  55.7014350  27.5732310  35.6746910
  39.7682700  21.5230560  27.6161630  39.1131540  21.2542200  26.9721330
  40.6060650  21.4135040  27.1663610  54.2572090  25.2379310  33.6426220
  53.4431930  25.6676470  33.9052010  54.6646290  25.8497720  33.0295270
  56.3197530  23.2927000  20.5426490  56.5946370  24.2005880  20.4145710
  56.1308270  23.2289530  21.4788480  52.7173140  16.3171850  21.8380120
  53.1358020  16.1302830  20.9976780  52.4109200  15.4650900  22.1483050
  56.2162870  21.2295990  25.5355920  55.8406470  20.4623920  25.1037210
  55.4865990  21.6118690  26.0230850  40.8058630  21.9083130  32.1564970
  41.1731670  21.8210530  33.0360990  40.2369450  21.1449680  32.0571830
  55.6062490  20.3767510  35.1695440  55.3748580  20.1480260  34.2693390
  55.8667040  21.2967060  35.1240330  40.3574630  18.8192220  36.0623390
  39.4630680  18.7858980  36.4017100  40.8972180  19.0179010  36.8274640
  54.0450560  15.6023940  37.9475140  54.9220740  15.6107340  38.3309140
  54.0571400  14.8654780  37.3367490  38.9820780  18.7329490  23.5586960
  38.0784860  18.9959690  23.3838620  39.4661400  19.0040660  22.7786920
  55.4913830  19.4553480  28.8363160  56.0151310  18.9616130  28.2053330
  56.0773250  19.5903840  29.5810730  55.6703550  19.5393350  32.3582710
  54.7206260  19.5056890  32.4727700  55.8516560  20.4493460  32.1232480
  41.5247990  17.7895030  21.4681340  42.2339690  17.3678250  20.9828620
  40.8087930  17.8570260  20.8364690  41.1722150  13.8434360  20.5083990
  41.8950280  14.3843300  20.8265210  41.4446670  13.5697780  19.6325530
  54.9813800  18.7126830  24.7755570  55.4772920  18.4797700  25.5604450
  54.7829870  17.8738670  24.3593210  40.8614340  13.0940550  30.4106610
  41.5090530  12.5437930  29.9701770  41.2816180  13.3483700  31.2322420
  54.7566680  13.2881910  33.7676250  55.3938900  13.9016050  34.1335440
  54.9041570  13.3242570  32.8225480  54.3148140  29.9897910  27.1694490
  54.9107210  29.6682480  26.4928910  54.5726290  29.5169730  27.9607760
  40.6146340  13.2496220  33.1531930  40.2661160  13.7060040  33.9190110
  40.2834040  12.3553350  33.2354360  42.2210710  26.4215820  37.3185120
  42.1780340  26.0508730  38.1999580  42.3521720  27.3593390  37.4586940
  45.9216740  27.9775410  32.9194840  45.6808100  28.2449970  32.0325360
  46.8619380  28.1481140  32.9745700  48.1271160  14.4408100  36.6751350
  48.0660050  15.0329930  37.4246760  49.0671540  14.3334060  36.5301610
  50.7645720  14.0978160  36.3143640  51.3786130  14.4157450  35.6524720
  51.3095280  13.6126750  36.9339500  41.2866980  12.7772420  36.4282700
  41.8349970  12.5960470  35.6648810  41.3522290  11.9866530  36.9639010
  51.5053760  12.6610300  32.6412930  50.6313600  12.9945410  32.4385860
  51.3964510  12.1883480  33.4664800  52.4125740  14.8681170  34.0254650
  52.0839100  14.0532930  33.6456380  53.3608040  14.8250980  33.9020340
  54.8660350  30.6393210  30.9992220  54.4063320  31.3909020  30.6250240
  54.2372810  29.9199680  30.9407020  41.6910970  26.7336450  33.3890940
  40.9645030  26.1141740  33.3216890  41.7520120  27.1277060  32.5189020
  45.2956070  28.9481450  30.1740350  45.8121090  28.3368810  29.6488610
  45.9453450  29.4510230  30.6651360  48.0351570  29.8389940  31.0009330
  48.3229380  29.5844240  30.1242340  48.5474790  29.2867300  31.5914900
  49.2528580  13.5780140  31.5805840  48.4700370  14.0525640  31.8602600
  48.9591510  12.6734970  31.4719020  53.8049650  14.2803240  29.6254930
  54.2457740  14.2248340  28.7776530  53.5357240  15.1961250  29.6965110
  55.6688220  13.9118480  27.6363750  55.6076620  12.9679700  27.4894770
  56.4480250  14.0198570  28.1817210  39.9740970  30.0510840  26.5987700
  39.8063010  29.4181520  27.2969590  39.1075480  30.2570240  26.2481890
  40.5968990  13.8827620  24.1019560  41.3548350  13.9956500  23.5283590
  40.1346160  14.7196820  24.0562990  47.1382800  15.9966890  27.0921870
  46.3257310  15.6223780  26.7517750  47.6424440  15.2411970  27.3943060
  51.6407780  12.6609340  28.3304940  52.2437150  13.2329550  28.8053460
  50.9000770  13.2248780  28.1078840  54.7842380  13.0630900  23.6045220
  54.9793010  13.9614350  23.8712650  53.9972250  12.8317980  24.0978170
  41.5803670  28.7444070  24.0437840  41.0551290  29.1252100  23.3399800
  41.5048250  29.3694840  24.7647550  42.9694140  14.4091670  22.6421530
  43.4986900  13.6221470  22.5129480  43.6022460  15.0882860  22.8757060
  45.1631980  14.1466810  25.6966920  44.5334720  13.4454120  25.8637050
  44.6237120  14.9070940  25.4800080  48.1023930  30.7606040  38.3677530
  49.0291240  30.5250310  38.4113490  48.0874360  31.5878040  37.8863560
  56.3368990  30.3031610  25.3651780  56.5121180  29.6169350  24.7212700
  55.6390560  30.8278660  24.9728450  45.2887540  13.4250790  38.1319410
  45.0071810  13.9284390  37.3680230  45.6707240  12.6272540  37.7661540
  44.1796640  30.6926450  22.9187090  44.9115460  30.4085730  22.3710980
  44.4390310  30.4539730  23.8086470  43.3411430  26.8091180  22.9233420
  42.7120310  27.2776280  23.4719250  43.4559260  25.9640400  23.3579610
  51.8903000  12.8404370  38.7099880  51.7768450  13.1598980  39.6051400
  52.7072740  13.2416880  38.4137160  54.6701490  29.9875900  38.1918570
  55.4626810  29.4925130  37.9844530  54.9634640  30.6666040  38.7994180
  50.7961150  20.8596840   9.0734620  50.7155200  19.9451450   8.8026330
  50.3825570  21.3563910   8.3674330  48.9279190  22.6375860  10.9543890
  48.1521290  22.1576300  11.2442460  49.5792120  21.9581510  10.7800050
  42.9445020  22.9495670  11.8319650  42.1129900  22.6944380  12.2316160
  43.5526000  23.0206440  12.5677570  52.9486620  27.0436050   9.7343020
  52.4868150  26.2723290  10.0630190  53.7612170  27.0702120  10.2395470
  42.9246280  26.9835760  12.0277670  43.2274320  26.0933500  11.8487890
  43.6689870  27.5405980  11.7999920  41.3536970  17.9097560   5.6162040
  40.4653670  18.2513530   5.5141920  41.6378160  17.7097880   4.7242870
  39.3169980  20.5103210  11.5001740  39.8886090  19.7425410  11.5005380
  39.3171520  20.8091970  10.5908350  49.1749930  29.3294060   9.3547010
  48.5561370  29.7851560   8.7841450  50.0301710  29.4845520   8.9536710
  48.3688180  25.3133050  10.9614050  48.2996460  24.3722990  10.8003180
  49.1308040  25.4034460  11.5336620  40.5594850  15.9187570  13.2870670
  40.3797690  15.0213320  13.5673430  40.1574930  16.4659440  13.9617620
  49.3993350  18.1203430  11.1882980  49.7758170  17.2475310  11.0756650
  49.3012860  18.4562130  10.2973420  43.5298360  16.4929060   6.6500420
  43.6365110  17.3932790   6.9569180  42.6190720  16.4447030   6.3595070
  53.1817470  15.6153870   8.1211320  54.0027090  15.1250440   8.1636800
  53.2151550  16.2051530   8.8743160  41.1781520  18.4148070  11.8953010
  41.8591630  18.6786440  12.5140410  40.8629570  17.5748940  12.2291020
  45.3706090  19.4615430  10.9825600  45.8784310  19.9596400  11.6230620
  45.9019330  18.6850630  10.8064960  43.6542190  14.1013990  15.2489020
  43.6560630  14.6186380  14.4434920  42.8246500  13.6244170  15.2258950
  50.0413280  24.2133300   6.7478920  49.4230550  24.6782750   6.1841640
  50.5536530  24.9060780   7.1648430  44.9045040  23.7409170  13.4262520
  44.5714420  24.3678090  14.0683590  45.0811720  24.2671050  12.6464190
  53.4178950  17.5554250  10.8938860  52.7134520  17.8439140  11.4741970
  53.7791110  18.3654360  10.5338420  43.3357520  15.8123950  13.2559470
  43.6774330  16.6566000  12.9613340  42.3973330  15.9607690  13.3724810
  44.1164140  25.7089970  15.2411700  44.7338140  26.3841050  14.9596150
  43.2557260  26.1177950  15.1499200  39.4096480  24.8989830   4.1218550
  39.0324460  25.3876930   3.3903450  39.6669550  25.5715110   4.7525080
  55.0341730  27.1729380  13.1566340  54.3505250  27.8428490  13.1483010
  55.5736020  27.3710030  12.3911200  56.4865870  17.0009040  11.2848070
  55.5390780  17.0348020  11.4163500  56.8115860  17.8147990  11.6697430
  47.0185410  13.3006220   9.5804060  47.3260390  12.7453110   8.8639560
  46.0886110  13.4350680   9.3977050  52.5700470  29.0173510  11.8711520
  52.5827630  28.6135800  11.0033780  52.0175690  29.7920800  11.7672950
  53.8645890  25.7389730   6.9601690  53.7542220  24.7964060   7.0851110
  53.8614140  26.1005370   7.8464450  51.9685910  23.9203350  13.1994130
  52.3854700  23.7063460  12.3647590  52.6925730  24.1776140  13.7702750
  49.4066170  21.3655050   6.3164180  48.4795450  21.2992430   6.5452650
  49.5590990  22.3035180   6.2019420  49.3935250  17.6372050   3.3131340
  48.4538920  17.7986010   3.3983800  49.7118510  18.3557730   2.7667330
  55.9148010  22.3190570  13.2910370  55.0866640  22.3883660  12.8160500
  56.5098490  22.9044880  12.8226200  53.4363460  22.9275350   6.8199430
  52.8175880  22.5894900   6.1725730  53.4187910  22.2835110   7.5278620
  52.8790020  19.1059890  14.2365240  52.4661200  19.9313600  14.4905230
  52.1465970  18.5204930  14.0441600  45.0122810  21.8919790   9.0983910
  44.6079810  21.1797040   8.6029810  45.0985930  21.5473030   9.9871950
  45.4804510  25.5787350  11.2623120  45.1832800  24.9732820  10.5830900
  46.4304330  25.6164660  11.1512480  43.7251430  18.6663000  12.8782950
  44.2766020  18.7758340  12.1036200  44.2394940  19.0400600  13.5938180
  53.5690120  29.1519220  14.9246220  53.0920680  29.9591410  14.7318830
  52.8851910  28.4997550  15.0772430  44.5722940  25.3169040  17.9130920
  43.6751470  25.5409010  18.1604320  44.5975810  25.4403980  16.9642320
  51.6128160  22.1662160   3.8272180  52.0521440  21.3284590   3.6810000
  52.3256580  22.7991560   3.9136320  43.3994160  22.1882360  16.4888290
  43.2601930  23.0605160  16.8575690  42.5175520  21.8455170  16.3436230
  49.7223540  27.1058230   7.7953420  50.1619450  27.8482560   7.3808810
  49.6610430  27.3484800   8.7192380  45.1974510  28.1304060  18.6973440
  45.1689940  28.5347010  17.8301870  45.0339480  27.2014420  18.5345040
  55.1945300  13.4204970   2.1413220  54.8817960  13.5131800   3.0412290
  55.9557770  13.9986000   2.0910650  41.7127440  20.7864770   6.5990560
  41.5925040  21.5126860   5.9871830  41.4028330  20.0167680   6.1218470
  39.3512810  23.9579910  12.4059200  39.4293230  24.0928680  11.4614920
  39.9654490  23.2495800  12.5987320  40.5960440  25.6580100   8.8165380
  40.1888520  25.7994690   7.9618980  41.4873450  25.3740260   8.6136590
  56.5522580  26.1044010  17.1537620  56.6785640  25.8655890  16.2354800
  56.5943960  25.2728550  17.6259700  50.4139320  29.8072010  15.7232430
  50.9283990  29.7180020  16.5254860  49.5708400  30.1531710  16.0160340
  52.3893720  30.0927350   5.1516430  52.2294860  29.8030290   6.0498260
  52.2240430  29.3167480   4.6161660  44.8682100  29.8725880   6.9288050
  44.6924580  28.9561420   6.7155850  44.0137840  30.2313170   7.1685850
  52.0919850  27.6014910   3.7114430  51.3985010  27.5992200   3.0516710
  52.8342710  27.1774230   3.2808600  51.6569780  29.2277620   7.7862920
  52.1126730  28.4467000   8.1001540  51.9962300  29.9384440   8.3304100
  56.4046590  18.1576470  18.1187360  55.7890860  18.6656140  17.5902820
  56.0843010  17.2574800  18.0613300  39.4072330  24.9994080  14.9453660
  39.5703370  24.5299440  14.1273030  39.8724780  24.4917640  15.6102500
  44.1791100  14.1299840   9.9814230  43.7359250  14.9109380   9.6498750
  44.7376090  14.4529730  10.6885170  48.4660910  16.9968360  15.5849550
  48.0040280  17.2051380  16.3969490  48.0639020  16.1827710  15.2820220
  53.4665420  18.2177310  16.7146210  52.6159010  17.9183060  17.0355280
  53.3067210  18.4619320  15.8030030  50.5615130  19.7179060  18.8145000
  50.8868540  18.8842810  18.4747230  51.3495460  20.2407580  18.9623330
  47.2949920  13.7510540   4.8620060  46.6704100  13.7470410   5.5873370
  47.2080040  12.8841500   4.4656030  46.2167000  14.6747170  11.8403830
  46.5139330  15.5810000  11.7595850  46.7652560  14.1865950  11.2263400
  43.9705320  19.2533410   7.7095480  43.7446240  19.0370580   8.6142100
  43.1897850  19.6861870   7.3641450  51.2003080  19.2596780   6.3086130
  50.6011970  19.9832580   6.1249750  51.7482690  19.1973560   5.5262580
  46.4104530  20.1518990  18.3755750  46.3148130  19.2113720  18.2256150
  47.2536510  20.3734060  17.9803820  49.8067950  17.8960320   8.3389410
  50.1997520  18.2132520   7.5258100  50.1684800  17.0172200   8.4533930
  41.5415070  16.5632660  16.5289530  41.1478460  17.4107870  16.7362310
  40.8533470  15.9259030  16.7198170  48.1160120  16.6467630  19.5986270
  47.4258440  16.4539830  20.2332360  48.8592420  16.9302270  20.1310570
  38.8432120  14.4861120  10.5619610  38.5545170  15.0563980  11.2744590
  39.5877880  14.0065570  10.9250840  50.3923090  20.4866070  12.4340190
  49.6604210  20.9952880  12.7830290  49.9947430  19.6696050  12.1328970
  46.8300480  17.1620270  10.8392680  46.8336540  16.7210220   9.9897220
  47.7251600  17.4837600  10.9464500  42.6802860  17.0446760   9.7986890
  42.3402910  17.5221990  10.5553940  41.9180180  16.5911880   9.4387990
  46.8920630  18.1632350   3.8299440  47.0133450  18.1218830   4.7785260
  46.5069140  19.0256500   3.6746170  50.8549000  15.9399750  11.8463130
  50.8721740  16.3908400  12.6904980  50.6064580  15.0405390  12.0596570
  45.9042130  20.4733490   3.2282740  45.3359030  20.0251740   2.6018650
  46.6131130  20.8326270   2.6947890  54.2819750  13.3531930  17.6849510
  54.6065520  12.6221590  18.2107490  54.3176260  13.0345570  16.7830500
  40.9811310  24.3745510  17.1049470  40.5966100  23.7339180  17.7032430
  41.2923500  25.0781630  17.6744200  47.1308450  21.2222050  12.5858090
  47.4978580  20.7480620  13.3319430  46.9413510  22.0963620  12.9266430
  39.9948940  15.9665740   8.7151560  39.7095860  15.6021410   9.5530180
  39.9327800  15.2346200   8.1014700  44.9207820  20.2630690  14.9042300
  44.6164890  21.1422670  15.1292660  45.8754280  20.3230480  14.9399740
  43.4489610  24.4691680   5.5009150  42.6751870  23.9289300   5.3407870
  44.1784240  23.9498290   5.1626910  54.2077590  23.4657040  11.2935540
  54.9276710  23.9612330  10.9031650  54.0059410  22.7874930  10.6489410
  49.6687530  14.8595000   5.4364930  48.8552140  14.3608170   5.3610240
  49.4749480  15.6993250   5.0201280  49.5896390  23.5366100  17.1804540
  49.5233700  22.6161770  16.9262130  48.9601530  23.6341540  17.8949180
  52.3835920  19.2314650   3.7327090  53.2715540  19.5431880   3.5578430
  52.3541010  18.3586900   3.3407670  43.4927010  24.1372060   9.1387960
  44.0105680  23.3340320   9.0844850  43.0411030  24.0751200   9.9804790
  48.3796510  25.4038340   4.4115260  48.7212210  26.1480570   3.9158580
  47.5509220  25.7169460   4.7740090  40.9771550  21.1033430  16.0513660
  40.6186490  21.7687280  16.6387000  40.6826110  20.2716980  16.4226280
  44.1784670  21.5617670  18.9353210  43.8784810  21.7074850  18.0381030
  44.9495910  21.0022960  18.8426600  49.5213120  26.3586670  16.9308340
  49.5357660  25.4267630  16.7127250  48.8138220  26.4446430  17.5698110
  54.6550190  20.5426490   3.2006950  54.5713910  20.9740710   2.3503390
  55.3744380  21.0024840   3.6333770  55.7324330  22.9994010  16.2776920
  55.0072520  23.5922790  16.0806310  56.2599790  22.9917550  15.4790290
  55.6837440  27.3968750   5.9289080  55.0413600  26.7424370   6.2032800
  55.2968100  27.8023840   5.1529750  51.2623920  24.7254180   9.7760770
  51.6147740  24.1282310   9.1162140  50.3786250  24.3998410   9.9469020
  47.3487200  25.4851870   7.1831180  48.0358330  26.0321080   7.5638770
  46.5619620  26.0292600   7.2180790  39.4879600  21.1024690   2.6748260
  40.3574450  21.3849490   2.9584180  38.9969920  21.9160560   2.5597070
  46.6514410  22.4897900   6.7956540  47.1077190  23.3003150   7.0216730
  46.3002620  22.1721040   7.6275030  48.9547020  28.0004240  14.0248840
  49.5989240  28.2063620  14.7022260  49.3176460  27.2392640  13.5719690
  42.5526190  12.8335550   7.2679060  42.4240820  12.8253450   8.2163980
  41.7288210  13.1718640   6.9170070  50.2279100  26.0036590  12.7426290
  50.8701330  25.3029750  12.8558460  50.7528450  26.7835030  12.5623180
  54.0734820  26.2885210   2.4665430  53.8472400  25.5715650   3.0590070
  53.6831020  26.0397650   1.6287180  52.0016720  26.8031490  15.9462350
  52.3372960  27.3898180  16.6240270  51.0817060  26.6724200  16.1760140
  39.8550850  30.3152070   3.2409890  40.2148490  30.9141410   2.5867160
  39.7143190  30.8611960   4.0144920  39.5520120  14.5926670  16.7285760
  38.8378640  14.7923590  17.3338370  39.9715160  13.8166240  17.1000560
  53.6551070  24.2057150   4.1279590  53.3672770  24.6669840   4.9157470
  54.4503240  23.7454920   4.3963810  39.8392710  28.5806930  17.7152290
  39.9483830  27.6401670  17.5747680  39.1873270  28.8461680  17.0666020
  47.8305300  26.8522820  19.1150410  47.5102170  26.1332060  19.6596100
  47.1563660  27.5277890  19.1886470  45.8719470  27.6983270   4.0583560
  45.8629570  28.4312960   3.4428070  44.9517830  27.4514850   4.1510520
  41.4726110  22.9198160   4.8030320  40.8654060  23.6597060   4.8125620
  41.9475460  23.0097520   3.9768520  51.0458900  17.0848980  14.4787210
  51.4139720  16.2644190  14.8066780  50.1857100  17.1450870  14.8942860
  54.4120930  16.0405920   5.2874770  53.7834090  16.1451590   4.5733000
  53.9172850  16.2602700   6.0768650  48.8579070  27.7611510   2.7208750
  48.9591050  27.5575500   1.7910730  47.9580810  27.5069790   2.9256530
  46.3804960  18.3191870   6.7032650  45.6721110  18.7878210   7.1446260
  46.6649440  17.6613880   7.3377840  48.0060890  19.7388570  14.7025180
  48.5046140  20.2134390  15.3677030  48.1483840  18.8152090  14.9095210
  50.4120390  15.0442530   8.1428440  50.2888170  15.0628660   7.1937950
  51.3604950  15.0921470   8.2626840  47.4997180  30.2797830   7.4156420
  47.7538680  30.2419220   6.4935790  46.5509660  30.1531160   7.4084670
  44.5839980  16.6276950   4.0783360  45.4330510  17.0647100   4.0123550
  44.2171250  16.9397210   4.9055420  55.2127750  15.9556530  15.5453570
  54.7101350  16.6961930  15.8847380  56.0284410  16.3440530  15.2290360
  53.5049760  21.1989710   8.9914930  52.5639900  21.2139940   9.1662620
  53.8193830  20.4125670   9.4375230  43.4831400  22.8809310   2.5518890
  44.2494670  22.7690670   3.1144320  43.5606090  22.1847280   1.8995660
  42.1778160  20.3134380   3.2351780  42.2581750  19.3661890   3.3469180
  43.0697910  20.6441260   3.3412440  55.5075340  28.3698560  10.6669190
  55.6322760  29.1929730  11.1393000  56.3740900  28.1589290  10.3193340
  42.9792870  30.4629770  10.3386320  43.7155350  29.9145230  10.6094890
  43.3633790  31.3285780  10.1992310  39.8638350  26.5303340   6.2127830
  38.9378130  26.7724480   6.2033240  40.3294780  27.3577600   6.0912580
  41.9851150  29.6475840  19.5271900  42.7863880  29.9687890  19.9407300
  41.4702970  29.2871420  20.2491810  46.0895180  29.6360080   2.1611890
  46.8823790  29.9248910   1.7093680  45.5699530  29.2052250   1.4824370
  50.8215780  25.7555710  19.4747310  50.2153940  25.7787310  18.7343060
  50.5169890  25.0238750  20.0114560  52.2516150  29.4836000  18.0856720
  53.2037900  29.3994020  18.0356960  52.1044370  30.1477710  18.7590510
  55.1425350  28.8630210   3.5848630  54.8566860  28.4495350   2.7702810
  54.9444900  29.7917920   3.4649150  39.7048960  22.1349300  18.4707950
  40.2087980  21.5556580  19.0424180  38.9656380  22.4189530  19.0084320
  46.7586900  23.5420290  18.0043470  45.9932570  24.1105290  17.9198140
  46.9402860  23.2496500  17.1111700  49.8475310  23.9183520   2.6296230
  49.2985410  24.3652820   3.2738970  50.4694570  23.4132770   3.1533900
  53.9010250  25.2725620  18.5618490  54.6419720  25.6101380  18.0585950
  53.1382930  25.4417680  18.0088260  41.7372040  20.2778890  19.3658020
  41.7777380  19.9792760  20.2743250  42.5917540  20.6786500  19.2065540
  45.5150430  22.8774440   4.5261530  45.9366850  22.7114310   5.3692920
  45.6401270  22.0674670   4.0316670  43.6777850  18.8570990  17.3332510
  43.1474310  18.3661940  16.7055850  44.3465920  19.2855190  16.7990440
  52.5755910  23.3240450  17.0973700  52.9896930  23.4785530  17.9464120
  51.6406910  23.4495670  17.2599480  53.0478080  20.6636610  19.1012850
  53.6298850  19.9088930  19.0133330  53.2239850  21.1944050  18.3244330
  44.1650150  15.8233360  17.4129800  44.0707020  15.2054110  16.6880670
  43.5847540  16.5499650  17.1859710  46.9311590  14.3806600  14.4457190
  46.4828890  14.4030860  13.6002740  46.2976790  13.9825620  15.0427490
  47.3371140  23.2760930  15.0669630  47.7559250  24.1193660  14.8945870
  46.4179770  23.4132970  14.8376410  49.6735040  21.0077110  16.4507470
  49.7931250  20.4118250  17.1902310  50.5329040  21.0446800  16.0308770
  52.0122940  21.5614300  15.0269980  51.4858160  22.0856920  14.4235120
  52.3554280  22.1941690  15.6579710  45.1878560  29.5813940  16.1827360
  44.6499650  30.3060000  15.8636060  45.4412520  29.1044280  15.3924700
  46.4403810  17.5498460  17.7083290  47.0303500  17.2414310  18.3961110
  45.6224050  17.0778210  17.8643190  51.2597240  17.1664270  17.9416310
  50.5712760  16.5045810  17.8766300  51.9803260  16.7202540  18.3864770
  51.8897640  13.7615900   4.0006570  52.1699930  12.9183800   4.3565990
  51.1163370  13.9939010   4.5145320  48.0440770  30.8165150  16.4414010
  47.9699470  31.7200290  16.7486380  47.1419610  30.4977050  16.4136080
  46.4277060  14.9942910   2.4453770  46.0799060  14.3166900   1.8656220
  46.6289830  14.5332420   3.2597160  48.5926100  29.9823660   4.0640370
  49.4876890  30.3208630   4.0859130  48.6243730  29.2603070   3.4364650
  42.2322260  25.3550710   2.2927370  42.6697130  25.8980380   2.9484950
  42.7169990  24.5297660   2.3023710  39.4468060  28.1439740   9.7447630
  39.7771070  27.2760800   9.5126270  39.8759060  28.3498260  10.5752590
  44.0429980  26.4748750   7.4049600  43.7425520  26.3513720   8.3053510
  43.9367470  25.6157340   6.9965330  39.9358270  29.0110330  12.4829260
  39.4989260  29.1911130  13.3153410  40.5035950  29.7684950  12.3410980
  55.5720450  28.5127330  16.7706570  54.9722440  28.5719890  16.0270490
  55.7014350  27.5732310  16.9003420  39.7682700  21.5230560   8.8418140
  39.1131540  21.2542200   8.1977840  40.6060650  21.4135040   8.3920120
  54.2572090  25.2379310  14.8682730  53.4431930  25.6676470  15.1308520
  54.6646290  25.8497720  14.2551780  56.3197530  23.2927000   1.7683000
  56.5946370  24.2005880   1.6402220  56.1308270  23.2289530   2.7044990
  52.7173140  16.3171850   3.0636630  53.1358020  16.1302830   2.2233290
  52.4109200  15.4650900   3.3739560  56.2162870  21.2295990   6.7612430
  55.8406470  20.4623920   6.3293720  55.4865990  21.6118690   7.2487360
  40.8058630  21.9083130  13.3821480  41.1731670  21.8210530  14.2617500
  40.2369450  21.1449680  13.2828340  55.6062490  20.3767510  16.3951950
  55.3748580  20.1480260  15.4949900  55.8667040  21.2967060  16.3496840
  40.3574630  18.8192220  17.2879900  39.4630680  18.7858980  17.6273610
  40.8972180  19.0179010  18.0531150  54.0450560  15.6023940  19.1731650
  54.9220740  15.6107340  19.5565650  54.0571400  14.8654780  18.5624000
  38.9820780  18.7329490   4.7843470  38.0784860  18.9959690   4.6095130
  39.4661400  19.0040660   4.0043430  55.4913830  19.4553480  10.0619670
  56.0151310  18.9616130   9.4309840  56.0773250  19.5903840  10.8067240
  55.6703550  19.5393350  13.5839220  54.7206260  19.5056890  13.6984210
  55.8516560  20.4493460  13.3488990  41.5247990  17.7895030   2.6937850
  42.2339690  17.3678250   2.2085130  40.8087930  17.8570260   2.0621200
  54.9813800  18.7126830   6.0012080  55.4772920  18.4797700   6.7860960
  54.7829870  17.8738670   5.5849720  40.8614340  13.0940550  11.6363120
  41.5090530  12.5437930  11.1958280  41.2816180  13.3483700  12.4578930
  54.7566680  13.2881910  14.9932760  55.3938900  13.9016050  15.3591950
  54.9041570  13.3242570  14.0481990  54.3148140  29.9897910   8.3951000
  54.9107210  29.6682480   7.7185420  54.5726290  29.5169730   9.1864270
  40.6146340  13.2496220  14.3788440  40.2661160  13.7060040  15.1446620
  40.2834040  12.3553350  14.4610870  42.2210710  26.4215820  18.5441630
  42.1780340  26.0508730  19.4256090  42.3521720  27.3593390  18.6843450
  45.9216740  27.9775410  14.1451350  45.6808100  28.2449970  13.2581870
  46.8619380  28.1481140  14.2002210  48.1271160  14.4408100  17.9007860
  48.0660050  15.0329930  18.6503270  49.0671540  14.3334060  17.7558120
  50.7645720  14.0978160  17.5400150  51.3786130  14.4157450  16.8781230
  51.3095280  13.6126750  18.1596010  41.2866980  12.7772420  17.6539210
  41.8349970  12.5960470  16.8905320  41.3522290  11.9866530  18.1895520
  42.0598740  29.3678070  15.6639410  41.4659060  29.2362770  16.4029450
  42.0522580  28.5316210  15.1981510  51.5053760  12.6610300  13.8669440
  50.6313600  12.9945410  13.6642370  51.3964510  12.1883480  14.6921310
  52.4125740  14.8681170  15.2511160  52.0839100  14.0532930  14.8712890
  53.3608040  14.8250980  15.1276850  54.8660350  30.6393210  12.2248730
  54.4063320  31.3909020  11.8506750  54.2372810  29.9199680  12.1663530
  41.6910970  26.7336450  14.6147450  40.9645030  26.1141740  14.5473400
  41.7520120  27.1277060  13.7445530  45.2956070  28.9481450  11.3996860
  45.8121090  28.3368810  10.8745120  45.9453450  29.4510230  11.8907870
  48.0351570  29.8389940  12.2265840  48.3229380  29.5844240  11.3498850
  48.5474790  29.2867300  12.8171410  49.2528580  13.5780140  12.8062350
  48.4700370  14.0525640  13.0859110  48.9591510  12.6734970  12.6975530
  53.8049650  14.2803240  10.8511440  54.2457740  14.2248340  10.0033040
  53.5357240  15.1961250  10.9221620  55.6688220  13.9118480   8.8620260
  55.6076620  12.9679700   8.7151280  56.4480250  14.0198570   9.4073720
  39.9740970  30.0510840   7.8244210  39.8063010  29.4181520   8.5226100
  39.1075480  30.2570240   7.4738400  40.5968990  13.8827620   5.3276070
  41.3548350  13.9956500   4.7540100  40.1346160  14.7196820   5.2819500
  47.1382800  15.9966890   8.3178380  46.3257310  15.6223780   7.9774260
  47.6424440  15.2411970   8.6199570  51.6407780  12.6609340   9.5561450
  52.2437150  13.2329550  10.0309970  50.9000770  13.2248780   9.3335350
  54.7842380  13.0630900   4.8301730  54.9793010  13.9614350   5.0969160
  53.9972250  12.8317980   5.3234680  41.5803670  28.7444070   5.2694350
  41.0551290  29.1252100   4.5656310  41.5048250  29.3694840   5.9904060
  42.9694140  14.4091670   3.8678040  43.4986900  13.6221470   3.7385990
  43.6022460  15.0882860   4.1013570  45.1631980  14.1466810   6.9223430
  44.5334720  13.4454120   7.0893560  44.6237120  14.9070940   6.7056590
  48.1023930  30.7606040  19.5934040  49.0291240  30.5250310  19.6370000
  48.0874360  31.5878040  19.1120070  56.3368990  30.3031610   6.5908290
  56.5121180  29.6169350   5.9469210  55.6390560  30.8278660   6.1984960
  45.2887540  13.4250790  19.3575920  45.0071810  13.9284390  18.5936740
  45.6707240  12.6272540  18.9918050  44.1796640  30.6926450   4.1443600
  44.9115460  30.4085730   3.5967490  44.4390310  30.4539730   5.0342980
  43.3411430  26.8091180   4.1489930  42.7120310  27.2776280   4.6975760
  43.4559260  25.9640400   4.5836120  51.8903000  12.8404370  19.9356390
  51.7768450  13.1598980  20.8307910  52.7072740  13.2416880  19.6393670
  54.6701490  29.9875900  19.4175080  55.4626810  29.4925130  19.2101040
  54.9634640  30.6666040  20.0250690  48.9279190   3.8632370  48.5030870
  48.1521290   3.3832810  48.7929440  49.5792120   3.1838020  48.3287030
  42.9445020   4.1752180  49.3806630  42.1129900   3.9200890  49.7803140
  43.5526000   4.2462950  50.1164550  52.9486620   8.2692560  47.2830000
  52.4868150   7.4979800  47.6117170  53.7612170   8.2958630  47.7882450
  42.9246280   8.2092270  49.5764650  43.2274320   7.3190010  49.3974870
  43.6689870   8.7662490  49.3486900  49.1749930  10.5550570  46.9033990
  48.5561370  11.0108070  46.3328430  50.0301710  10.7102030  46.5023690
  48.3688180   6.5389560  48.5101030  48.2996460   5.5979500  48.3490160
  49.1308040   6.6290970  49.0823600  50.0413280   5.4389810  44.2965900
  49.4230550   5.9039260  43.7328620  50.5536530   6.1317290  44.7135410
  44.9045040   4.9665680  50.9749500  44.5714420   5.5934600  51.6170570
  45.0811720   5.4927560  50.1951170  44.1164140   6.9346480  52.7898680
  44.7338140   7.6097560  52.5083130  43.2557260   7.3434460  52.6986180
  39.4096480   6.1246340  41.6705530  39.0324460   6.6133440  40.9390430
  39.6669550   6.7971620  42.3012060  55.0341730   8.3985890  50.7053320
  54.3505250   9.0685000  50.6969990  55.5736020   8.5966540  49.9398180
  52.5700470  10.2430020  49.4198500  52.5827630   9.8392310  48.5520760
  52.0175690  11.0177310  49.3159930  53.8645890   6.9646240  44.5088670
  53.7542220   6.0220570  44.6338090  53.8614140   7.3261880  45.3951430
  51.9685910   5.1459860  50.7481110  52.3854700   4.9319970  49.9134570
  52.6925730   5.4032650  51.3189730  49.4066170   2.5911560  43.8651160
  48.4795450   2.5248940  44.0939630  49.5590990   3.5291690  43.7506400
  55.9148010   3.5447080  50.8397350  55.0866640   3.6140170  50.3647480
  56.5098490   4.1301390  50.3713180  53.4363460   4.1531860  44.3686410
  52.8175880   3.8151410  43.7212710  53.4187910   3.5091620  45.0765600
  45.0122810   3.1176300  46.6470890  44.6079810   2.4053550  46.1516790
  45.0985930   2.7729540  47.5358930  45.4804510   6.8043860  48.8110100
  45.1832800   6.1989330  48.1317880  46.4304330   6.8421170  48.6999460
  53.5690120  10.3775730  52.4733200  53.0920680  11.1847920  52.2805810
  52.8851910   9.7254060  52.6259410  44.5722940   6.5425550  55.4617900
  43.6751470   6.7665520  55.7091300  44.5975810   6.6660490  54.5129300
  51.6128160   3.3918670  41.3759160  52.0521440   2.5541100  41.2296980
  52.3256580   4.0248070  41.4623300  43.3994160   3.4138870  54.0375270
  43.2601930   4.2861670  54.4062670  42.5175520   3.0711680  53.8923210
  49.7223540   8.3314740  45.3440400  50.1619450   9.0739070  44.9295790
  49.6610430   8.5741310  46.2679360  45.1974510   9.3560570  56.2460420
  45.1689940   9.7603520  55.3788850  45.0339480   8.4270930  56.0832020
  39.3512810   5.1836420  49.9546180  39.4293230   5.3185190  49.0101900
  39.9654490   4.4752310  50.1474300  40.5960440   6.8836610  46.3652360
  40.1888520   7.0251200  45.5105960  41.4873450   6.5996770  46.1623570
  56.5522580   7.3300520  54.7024600  56.6785640   7.0912400  53.7841780
  56.5943960   6.4985060  55.1746680  50.4139320  11.0328520  53.2719410
  50.9283990  10.9436530  54.0741840  49.5708400  11.3788220  53.5647320
  52.3893720  11.3183860  42.7003410  52.2294860  11.0286800  43.5985240
  52.2240430  10.5423990  42.1648640  44.8682100  11.0982390  44.4775030
  44.6924580  10.1817930  44.2642830  44.0137840  11.4569680  44.7172830
  52.0919850   8.8271420  41.2601410  51.3985010   8.8248710  40.6003690
  52.8342710   8.4030740  40.8295580  51.6569780  10.4534130  45.3349900
  52.1126730   9.6723510  45.6488520  51.9962300  11.1640950  45.8791080
  39.4072330   6.2250590  52.4940640  39.5703370   5.7555950  51.6760010
  39.8724780   5.7174150  53.1589480  40.9811310   5.6002020  54.6536450
  40.5966100   4.9595690  55.2519410  41.2923500   6.3038140  55.2231180
  47.1308450   2.4478560  50.1345070  47.4978580   1.9737130  50.8806410
  46.9413510   3.3220130  50.4753410  43.4489610   5.6948190  43.0496130
  42.6751870   5.1545810  42.8894850  44.1784240   5.1754800  42.7113890
  54.2077590   4.6913550  48.8422520  54.9276710   5.1868840  48.4518630
  54.0059410   4.0131440  48.1976390  49.5896390   4.7622610  54.7291520
  49.5233700   3.8418280  54.4749110  48.9601530   4.8598050  55.4436160
  43.4927010   5.3628570  46.6874940  44.0105680   4.5596830  46.6331830
  43.0411030   5.3007710  47.5291770  48.3796510   6.6294850  41.9602240
  48.7212210   7.3737080  41.4645560  47.5509220   6.9425970  42.3227070
  44.1784670   2.7874180  56.4840190  43.8784810   2.9331360  55.5868010
  44.9495910   2.2279470  56.3913580  49.5213120   7.5843180  54.4795320
  49.5357660   6.6524140  54.2614230  48.8138220   7.6702940  55.1185090
  54.6550190   1.7683000  40.7493930  54.5713910   2.1997220  39.8990370
  55.3744380   2.2281350  41.1820750  55.7324330   4.2250520  53.8263900
  55.0072520   4.8179300  53.6293290  56.2599790   4.2174060  53.0277270
  55.6837440   8.6225260  43.4776060  55.0413600   7.9680880  43.7519780
  55.2968100   9.0280350  42.7016730  51.2623920   5.9510690  47.3247750
  51.6147740   5.3538820  46.6649120  50.3786250   5.6254920  47.4956000
  47.3487200   6.7108380  44.7318160  48.0358330   7.2577590  45.1125750
  46.5619620   7.2549110  44.7667770  39.4879600   2.3281200  40.2235240
  40.3574450   2.6106000  40.5071160  38.9969920   3.1417070  40.1084050
  46.6514410   3.7154410  44.3443520  47.1077190   4.5259660  44.5703710
  46.3002620   3.3977550  45.1762010  48.9547020   9.2260750  51.5735820
  49.5989240   9.4320130  52.2509240  49.3176460   8.4649150  51.1206670
  50.2279100   7.2293100  50.2913270  50.8701330   6.5286260  50.4045440
  50.7528450   8.0091540  50.1110160  54.0734820   7.5141720  40.0152410
  53.8472400   6.7972160  40.6077050  53.6831020   7.2654160  39.1774160
  52.0016720   8.0288000  53.4949330  52.3372960   8.6154690  54.1727250
  51.0817060   7.8980710  53.7247120  39.8550850  11.5408580  40.7896870
  40.2148490  12.1397920  40.1354140  39.7143190  12.0868470  41.5631900
  53.6551070   5.4313660  41.6766570  53.3672770   5.8926350  42.4644450
  54.4503240   4.9711430  41.9450790  39.8392710   9.8063440  55.2639270
  39.9483830   8.8658180  55.1234660  39.1873270  10.0718190  54.6153000
  47.8305300   8.0779330  56.6637390  47.5102170   7.3588570  57.2083080
  47.1563660   8.7534400  56.7373450  45.8719470   8.9239780  41.6070540
  45.8629570   9.6569470  40.9915050  44.9517830   8.6771360  41.6997500
  41.4726110   4.1454670  42.3517300  40.8654060   4.8853570  42.3612600
  41.9475460   4.2354030  41.5255500  48.8579070   8.9868020  40.2695730
  48.9591050   8.7832010  39.3397710  47.9580810   8.7326300  40.4743510
  47.4997180  11.5054340  44.9643400  47.7538680  11.4675730  44.0422770
  46.5509660  11.3787670  44.9571650  43.4831400   4.1065820  40.1005870
  44.2494670   3.9947180  40.6631300  43.5606090   3.4103790  39.4482640
  55.5075340   9.5955070  48.2156170  55.6322760  10.4186240  48.6879980
  56.3740900   9.3845800  47.8680320  42.9792870  11.6886280  47.8873300
  43.7155350  11.1401740  48.1581870  43.3633790  12.5542290  47.7479290
  39.8638350   7.7559850  43.7614810  38.9378130   7.9980990  43.7520220
  40.3294780   8.5834110  43.6399560  46.0895180  10.8616590  39.7098870
  46.8823790  11.1505420  39.2580660  45.5699530  10.4308760  39.0311350
  52.2516150  10.7092510  55.6343700  53.2037900  10.6250530  55.5843940
  52.1044370  11.3734220  56.3077490  55.1425350  10.0886720  41.1335610
  54.8566860   9.6751860  40.3189790  54.9444900  11.0174430  41.0136130
  39.7048960   3.3605810  56.0194930  40.2087980   2.7813090  56.5911160
  38.9656380   3.6446040  56.5571300  46.6072580   6.0820000  39.5741220
  46.5023220   5.4672350  40.3002600  46.4396800   5.5585890  38.7904230
  46.7586900   4.7676800  55.5530450  45.9932570   5.3361800  55.4685120
  46.9402860   4.4753010  54.6598680  49.8475310   5.1440030  40.1783210
  49.2985410   5.5909330  40.8225950  50.4694570   4.6389280  40.7020880
  53.9010250   6.4982130  56.1105470  54.6419720   6.8357890  55.6072930
  53.1382930   6.6674190  55.5575240  45.5150430   4.1030950  42.0748510
  45.9366850   3.9370820  42.9179900  45.6401270   3.2931180  41.5803650
  48.0278070   3.1268560  39.3225610  48.5483730   2.4117580  38.9566760
  48.6746470   3.7654430  39.6226120  52.5755910   4.5496960  54.6460680
  52.9896930   4.7042040  55.4951100  51.6406910   4.6752180  54.8086460
  47.3371140   4.5017440  52.6156610  47.7559250   5.3450170  52.4432850
  46.4179770   4.6389480  52.3863390  52.0122940   2.7870810  52.5756960
  51.4858160   3.3113430  51.9722100  52.3554280   3.4198200  53.2066690
  45.1878560  10.8070450  53.7314340  44.6499650  11.5316510  53.4123040
  45.4412520  10.3300790  52.9411680  48.0440770  12.0421660  53.9900990
  47.9699470  12.9456800  54.2973360  47.1419610  11.7233560  53.9623060
  48.5926100  11.2080170  41.6127350  49.4876890  11.5465140  41.6346110
  48.6243730  10.4859580  40.9851630  42.2322260   6.5807220  39.8414350
  42.6697130   7.1236890  40.4971930  42.7169990   5.7554170  39.8510690
  39.4468060   9.3696250  47.2934610  39.7771070   8.5017310  47.0613250
  39.8759060   9.5754770  48.1239570  44.0429980   7.7005260  44.9536580
  43.7425520   7.5770230  45.8540490  43.9367470   6.8413850  44.5452310
  39.9358270  10.2366840  50.0316240  39.4989260  10.4167640  50.8640390
  40.5035950  10.9941460  49.8897960  55.5720450   9.7383840  54.3193550
  54.9722440   9.7976400  53.5757470  55.7014350   8.7988820  54.4490400
  39.7682700   2.7487070  46.3905120  39.1131540   2.4798710  45.7464820
  40.6060650   2.6391550  45.9407100  54.2572090   6.4635820  52.4169710
  53.4431930   6.8932980  52.6795500  54.6646290   7.0754230  51.8038760
  56.3197530   4.5183510  39.3169980  56.5946370   5.4262390  39.1889200
  56.1308270   4.4546040  40.2531970  56.2162870   2.4552500  44.3099410
  55.8406470   1.6880430  43.8780700  55.4865990   2.8375200  44.7974340
  40.8058630   3.1339640  50.9308460  41.1731670   3.0467040  51.8104480
  40.2369450   2.3706190  50.8315320  54.3148140  11.2154420  45.9437980
  54.9107210  10.8938990  45.2672400  54.5726290  10.7426240  46.7351250
  42.2210710   7.6472330  56.0928610  42.1780340   7.2765240  56.9743070
  42.3521720   8.5849900  56.2330430  45.9216740   9.2031920  51.6938330
  45.6808100   9.4706480  50.8068850  46.8619380   9.3737650  51.7489190
  42.0598740  10.5934580  53.2126390  41.4659060  10.4619280  53.9516430
  42.0522580   9.7572720  52.7468490  54.8660350  11.8649720  49.7735710
  54.4063320  12.6165530  49.3993730  54.2372810  11.1456190  49.7150510
  41.6910970   7.9592960  52.1634430  40.9645030   7.3398250  52.0960380
  41.7520120   8.3533570  51.2932510  45.2956070  10.1737960  48.9483840
  45.8121090   9.5625320  48.4232100  45.9453450  10.6766740  49.4394850
  48.0351570  11.0646450  49.7752820  48.3229380  10.8100750  48.8985830
  48.5474790  10.5123810  50.3658390  39.9740970  11.2767350  45.3731190
  39.8063010  10.6438030  46.0713080  39.1075480  11.4826750  45.0225380
  41.5803670   9.9700580  42.8181330  41.0551290  10.3508610  42.1143290
  41.5048250  10.5951350  43.5391040  48.1023930  11.9862550  57.1421020
  49.0291240  11.7506820  57.1856980  48.0874360  12.8134550  56.6607050
  56.3368990  11.5288120  44.1395270  56.5121180  10.8425860  43.4956190
  55.6390560  12.0535170  43.7471940  44.1796640  11.9182960  41.6930580
  44.9115460  11.6342240  41.1454470  44.4390310  11.6796240  42.5829960
  43.3411430   8.0347690  41.6976910  42.7120310   8.5032790  42.2462740
  43.4559260   7.1896910  42.1323100  48.9279190   3.8632370  29.7287380
  48.1521290   3.3832810  30.0185950  49.5792120   3.1838020  29.5543540
  42.9445020   4.1752180  30.6063140  42.1129900   3.9200890  31.0059650
  43.5526000   4.2462950  31.3421060  52.9486620   8.2692560  28.5086510
  52.4868150   7.4979800  28.8373680  53.7612170   8.2958630  29.0138960
  42.9246280   8.2092270  30.8021160  43.2274320   7.3190010  30.6231380
  43.6689870   8.7662490  30.5743410  49.1749930  10.5550570  28.1290500
  48.5561370  11.0108070  27.5584940  50.0301710  10.7102030  27.7280200
  48.3688180   6.5389560  29.7357540  48.2996460   5.5979500  29.5746670
  49.1308040   6.6290970  30.3080110  50.0413280   5.4389810  25.5222410
  49.4230550   5.9039260  24.9585130  50.5536530   6.1317290  25.9391920
  44.9045040   4.9665680  32.2006010  44.5714420   5.5934600  32.8427080
  45.0811720   5.4927560  31.4207680  44.1164140   6.9346480  34.0155190
  44.7338140   7.6097560  33.7339640  43.2557260   7.3434460  33.9242690
  39.4096480   6.1246340  22.8962040  39.0324460   6.6133440  22.1646940
  39.6669550   6.7971620  23.5268570  55.0341730   8.3985890  31.9309830
  54.3505250   9.0685000  31.9226500  55.5736020   8.5966540  31.1654690
  52.5700470  10.2430020  30.6455010  52.5827630   9.8392310  29.7777270
  52.0175690  11.0177310  30.5416440  53.8645890   6.9646240  25.7345180
  53.7542220   6.0220570  25.8594600  53.8614140   7.3261880  26.6207940
  51.9685910   5.1459860  31.9737620  52.3854700   4.9319970  31.1391080
  52.6925730   5.4032650  32.5446240  49.4066170   2.5911560  25.0907670
  48.4795450   2.5248940  25.3196140  49.5590990   3.5291690  24.9762910
  55.9148010   3.5447080  32.0653860  55.0866640   3.6140170  31.5903990
  56.5098490   4.1301390  31.5969690  53.4363460   4.1531860  25.5942920
  52.8175880   3.8151410  24.9469220  53.4187910   3.5091620  26.3022110
  45.0122810   3.1176300  27.8727400  44.6079810   2.4053550  27.3773300
  45.0985930   2.7729540  28.7615440  45.4804510   6.8043860  30.0366610
  45.1832800   6.1989330  29.3574390  46.4304330   6.8421170  29.9255970
  53.5690120  10.3775730  33.6989710  53.0920680  11.1847920  33.5062320
  52.8851910   9.7254060  33.8515920  44.5722940   6.5425550  36.6874410
  43.6751470   6.7665520  36.9347810  44.5975810   6.6660490  35.7385810
  51.6128160   3.3918670  22.6015670  52.0521440   2.5541100  22.4553490
  52.3256580   4.0248070  22.6879810  43.3994160   3.4138870  35.2631780
  43.2601930   4.2861670  35.6319180  42.5175520   3.0711680  35.1179720
  49.7223540   8.3314740  26.5696910  50.1619450   9.0739070  26.1552300
  49.6610430   8.5741310  27.4935870  45.1974510   9.3560570  37.4716930
  45.1689940   9.7603520  36.6045360  45.0339480   8.4270930  37.3088530
  39.3512810   5.1836420  31.1802690  39.4293230   5.3185190  30.2358410
  39.9654490   4.4752310  31.3730810  40.5960440   6.8836610  27.5908870
  40.1888520   7.0251200  26.7362470  41.4873450   6.5996770  27.3880080
  56.5522580   7.3300520  35.9281110  56.6785640   7.0912400  35.0098290
  56.5943960   6.4985060  36.4003190  50.4139320  11.0328520  34.4975920
  50.9283990  10.9436530  35.2998350  49.5708400  11.3788220  34.7903830
  52.3893720  11.3183860  23.9259920  52.2294860  11.0286800  24.8241750
  52.2240430  10.5423990  23.3905150  44.8682100  11.0982390  25.7031540
  44.6924580  10.1817930  25.4899340  44.0137840  11.4569680  25.9429340
  52.0919850   8.8271420  22.4857920  51.3985010   8.8248710  21.8260200
  52.8342710   8.4030740  22.0552090  51.6569780  10.4534130  26.5606410
  52.1126730   9.6723510  26.8745030  51.9962300  11.1640950  27.1047590
  39.4072330   6.2250590  33.7197150  39.5703370   5.7555950  32.9016520
  39.8724780   5.7174150  34.3845990  40.9811310   5.6002020  35.8792960
  40.5966100   4.9595690  36.4775920  41.2923500   6.3038140  36.4487690
  47.1308450   2.4478560  31.3601580  47.4978580   1.9737130  32.1062920
  46.9413510   3.3220130  31.7009920  43.4489610   5.6948190  24.2752640
  42.6751870   5.1545810  24.1151360  44.1784240   5.1754800  23.9370400
  54.2077590   4.6913550  30.0679030  54.9276710   5.1868840  29.6775140
  54.0059410   4.0131440  29.4232900  49.5896390   4.7622610  35.9548030
  49.5233700   3.8418280  35.7005620  48.9601530   4.8598050  36.6692670
  43.4927010   5.3628570  27.9131450  44.0105680   4.5596830  27.8588340
  43.0411030   5.3007710  28.7548280  48.3796510   6.6294850  23.1858750
  48.7212210   7.3737080  22.6902070  47.5509220   6.9425970  23.5483580
  44.1784670   2.7874180  37.7096700  43.8784810   2.9331360  36.8124520
  44.9495910   2.2279470  37.6170090  49.5213120   7.5843180  35.7051830
  49.5357660   6.6524140  35.4870740  48.8138220   7.6702940  36.3441600
  54.6550190   1.7683000  21.9750440  54.5713910   2.1997220  21.1246880
  55.3744380   2.2281350  22.4077260  55.7324330   4.2250520  35.0520410
  55.0072520   4.8179300  34.8549800  56.2599790   4.2174060  34.2533780
  55.6837440   8.6225260  24.7032570  55.0413600   7.9680880  24.9776290
  55.2968100   9.0280350  23.9273240  51.2623920   5.9510690  28.5504260
  51.6147740   5.3538820  27.8905630  50.3786250   5.6254920  28.7212510
  47.3487200   6.7108380  25.9574670  48.0358330   7.2577590  26.3382260
  46.5619620   7.2549110  25.9924280  39.4879600   2.3281200  21.4491750
  40.3574450   2.6106000  21.7327670  38.9969920   3.1417070  21.3340560
  46.6514410   3.7154410  25.5700030  47.1077190   4.5259660  25.7960220
  46.3002620   3.3977550  26.4018520  48.9547020   9.2260750  32.7992330
  49.5989240   9.4320130  33.4765750  49.3176460   8.4649150  32.3463180
  50.2279100   7.2293100  31.5169780  50.8701330   6.5286260  31.6301950
  50.7528450   8.0091540  31.3366670  54.0734820   7.5141720  21.2408920
  53.8472400   6.7972160  21.8333560  53.6831020   7.2654160  20.4030670
  52.0016720   8.0288000  34.7205840  52.3372960   8.6154690  35.3983760
  51.0817060   7.8980710  34.9503630  39.8550850  11.5408580  22.0153380
  40.2148490  12.1397920  21.3610650  39.7143190  12.0868470  22.7888410
  53.6551070   5.4313660  22.9023080  53.3672770   5.8926350  23.6900960
  54.4503240   4.9711430  23.1707300  39.8392710   9.8063440  36.4895780
  39.9483830   8.8658180  36.3491170  39.1873270  10.0718190  35.8409510
  47.8305300   8.0779330  37.8893900  47.5102170   7.3588570  38.4339590
  47.1563660   8.7534400  37.9629960  45.8719470   8.9239780  22.8327050
  45.8629570   9.6569470  22.2171560  44.9517830   8.6771360  22.9254010
  41.4726110   4.1454670  23.5773810  40.8654060   4.8853570  23.5869110
  41.9475460   4.2354030  22.7512010  48.8579070   8.9868020  21.4952240
  48.9591050   8.7832010  20.5654220  47.9580810   8.7326300  21.7000020
  47.4997180  11.5054340  26.1899910  47.7538680  11.4675730  25.2679280
  46.5509660  11.3787670  26.1828160  43.4831400   4.1065820  21.3262380
  44.2494670   3.9947180  21.8887810  43.5606090   3.4103790  20.6739150
  55.5075340   9.5955070  29.4412680  55.6322760  10.4186240  29.9136490
  56.3740900   9.3845800  29.0936830  42.9792870  11.6886280  29.1129810
  43.7155350  11.1401740  29.3838380  43.3633790  12.5542290  28.9735800
  39.8638350   7.7559850  24.9871320  38.9378130   7.9980990  24.9776730
  40.3294780   8.5834110  24.8656070  41.9851150  10.8732350  38.3015390
  42.7863880  11.1944400  38.7150790  41.4702970  10.5127930  39.0235300
  46.0895180  10.8616590  20.9355380  46.8823790  11.1505420  20.4837170
  45.5699530  10.4308760  20.2567860  50.8215780   6.9812220  38.2490800
  50.2153940   7.0043820  37.5086550  50.5169890   6.2495260  38.7858050
  52.2516150  10.7092510  36.8600210  53.2037900  10.6250530  36.8100450
  52.1044370  11.3734220  37.5334000  55.1425350  10.0886720  22.3592120
  54.8566860   9.6751860  21.5446300  54.9444900  11.0174430  22.2392640
  39.7048960   3.3605810  37.2451440  40.2087980   2.7813090  37.8167670
  38.9656380   3.6446040  37.7827810  46.6072580   6.0820000  20.7997730
  46.5023220   5.4672350  21.5259110  46.4396800   5.5585890  20.0160740
  46.7586900   4.7676800  36.7786960  45.9932570   5.3361800  36.6941630
  46.9402860   4.4753010  35.8855190  49.8475310   5.1440030  21.4039720
  49.2985410   5.5909330  22.0482460  50.4694570   4.6389280  21.9277390
  53.9010250   6.4982130  37.3361980  54.6419720   6.8357890  36.8329440
  53.1382930   6.6674190  36.7831750  45.5150430   4.1030950  23.3005020
  45.9366850   3.9370820  24.1436410  45.6401270   3.2931180  22.8060160
  48.0278070   3.1268560  20.5482120  48.5483730   2.4117580  20.1823270
  48.6746470   3.7654430  20.8482630  52.5755910   4.5496960  35.8717190
  52.9896930   4.7042040  36.7207610  51.6406910   4.6752180  36.0342970
  47.3371140   4.5017440  33.8413120  47.7559250   5.3450170  33.6689360
  46.4179770   4.6389480  33.6119900  52.0122940   2.7870810  33.8013470
  51.4858160   3.3113430  33.1978610  52.3554280   3.4198200  34.4323200
  45.1878560  10.8070450  34.9570850  44.6499650  11.5316510  34.6379550
  45.4412520  10.3300790  34.1668190  48.0440770  12.0421660  35.2157500
  47.9699470  12.9456800  35.5229870  47.1419610  11.7233560  35.1879570
  48.5926100  11.2080170  22.8383860  49.4876890  11.5465140  22.8602620
  48.6243730  10.4859580  22.2108140  42.2322260   6.5807220  21.0670860
  42.6697130   7.1236890  21.7228440  42.7169990   5.7554170  21.0767200
  39.4468060   9.3696250  28.5191120  39.7771070   8.5017310  28.2869760
  39.8759060   9.5754770  29.3496080  44.0429980   7.7005260  26.1793090
  43.7425520   7.5770230  27.0797000  43.9367470   6.8413850  25.7708820
  39.9358270  10.2366840  31.2572750  39.4989260  10.4167640  32.0896900
  40.5035950  10.9941460  31.1154470  55.5720450   9.7383840  35.5450060
  54.9722440   9.7976400  34.8013980  55.7014350   8.7988820  35.6746910
  39.7682700   2.7487070  27.6161630  39.1131540   2.4798710  26.9721330
  40.6060650   2.6391550  27.1663610  54.2572090   6.4635820  33.6426220
  53.4431930   6.8932980  33.9052010  54.6646290   7.0754230  33.0295270
  56.3197530   4.5183510  20.5426490  56.5946370   5.4262390  20.4145710
  56.1308270   4.4546040  21.4788480  56.2162870   2.4552500  25.5355920
  55.8406470   1.6880430  25.1037210  55.4865990   2.8375200  26.0230850
  40.8058630   3.1339640  32.1564970  41.1731670   3.0467040  33.0360990
  40.2369450   2.3706190  32.0571830  54.3148140  11.2154420  27.1694490
  54.9107210  10.8938990  26.4928910  54.5726290  10.7426240  27.9607760
  42.2210710   7.6472330  37.3185120  42.1780340   7.2765240  38.1999580
  42.3521720   8.5849900  37.4586940  45.9216740   9.2031920  32.9194840
  45.6808100   9.4706480  32.0325360  46.8619380   9.3737650  32.9745700
  42.0598740  10.5934580  34.4382900  41.4659060  10.4619280  35.1772940
  42.0522580   9.7572720  33.9725000  54.8660350  11.8649720  30.9992220
  54.4063320  12.6165530  30.6250240  54.2372810  11.1456190  30.9407020
  41.6910970   7.9592960  33.3890940  40.9645030   7.3398250  33.3216890
  41.7520120   8.3533570  32.5189020  45.2956070  10.1737960  30.1740350
  45.8121090   9.5625320  29.6488610  45.9453450  10.6766740  30.6651360
  48.0351570  11.0646450  31.0009330  48.3229380  10.8100750  30.1242340
  48.5474790  10.5123810  31.5914900  39.9740970  11.2767350  26.5987700
  39.8063010  10.6438030  27.2969590  39.1075480  11.4826750  26.2481890
  41.5803670   9.9700580  24.0437840  41.0551290  10.3508610  23.3399800
  41.5048250  10.5951350  24.7647550  48.1023930  11.9862550  38.3677530
  49.0291240  11.7506820  38.4113490  48.0874360  12.8134550  37.8863560
  56.3368990  11.5288120  25.3651780  56.5121180  10.8425860  24.7212700
  55.6390560  12.0535170  24.9728450  44.1796640  11.9182960  22.9187090
  44.9115460  11.6342240  22.3710980  44.4390310  11.6796240  23.8086470
  43.3411430   8.0347690  22.9233420  42.7120310   8.5032790  23.4719250
  43.4559260   7.1896910  23.3579610  54.6701490  11.2132410  38.1918570
  55.4626810  10.7181640  37.9844530  54.9634640  11.8922550  38.7994180
  48.9279190   3.8632370  10.9543890  48.1521290   3.3832810  11.2442460
  49.5792120   3.1838020  10.7800050  42.9445020   4.1752180  11.8319650
  42.1129900   3.9200890  12.2316160  43.5526000   4.2462950  12.5677570
  52.9486620   8.2692560   9.7343020  52.4868150   7.4979800  10.0630190
  53.7612170   8.2958630  10.2395470  42.9246280   8.2092270  12.0277670
  43.2274320   7.3190010  11.8487890  43.6689870   8.7662490  11.7999920
  49.1749930  10.5550570   9.3547010  48.5561370  11.0108070   8.7841450
  50.0301710  10.7102030   8.9536710  48.3688180   6.5389560  10.9614050
  48.2996460   5.5979500  10.8003180  49.1308040   6.6290970  11.5336620
  50.0413280   5.4389810   6.7478920  49.4230550   5.9039260   6.1841640
  50.5536530   6.1317290   7.1648430  44.9045040   4.9665680  13.4262520
  44.5714420   5.5934600  14.0683590  45.0811720   5.4927560  12.6464190
  44.1164140   6.9346480  15.2411700  44.7338140   7.6097560  14.9596150
  43.2557260   7.3434460  15.1499200  39.4096480   6.1246340   4.1218550
  39.0324460   6.6133440   3.3903450  39.6669550   6.7971620   4.7525080
  55.0341730   8.3985890  13.1566340  54.3505250   9.0685000  13.1483010
  55.5736020   8.5966540  12.3911200  52.5700470  10.2430020  11.8711520
  52.5827630   9.8392310  11.0033780  52.0175690  11.0177310  11.7672950
  53.8645890   6.9646240   6.9601690  53.7542220   6.0220570   7.0851110
  53.8614140   7.3261880   7.8464450  51.9685910   5.1459860  13.1994130
  52.3854700   4.9319970  12.3647590  52.6925730   5.4032650  13.7702750
  49.4066170   2.5911560   6.3164180  48.4795450   2.5248940   6.5452650
  49.5590990   3.5291690   6.2019420  55.9148010   3.5447080  13.2910370
  55.0866640   3.6140170  12.8160500  56.5098490   4.1301390  12.8226200
  53.4363460   4.1531860   6.8199430  52.8175880   3.8151410   6.1725730
  53.4187910   3.5091620   7.5278620  45.0122810   3.1176300   9.0983910
  44.6079810   2.4053550   8.6029810  45.0985930   2.7729540   9.9871950
  45.4804510   6.8043860  11.2623120  45.1832800   6.1989330  10.5830900
  46.4304330   6.8421170  11.1512480  53.5690120  10.3775730  14.9246220
  53.0920680  11.1847920  14.7318830  52.8851910   9.7254060  15.0772430
  44.5722940   6.5425550  17.9130920  43.6751470   6.7665520  18.1604320
  44.5975810   6.6660490  16.9642320  51.6128160   3.3918670   3.8272180
  52.0521440   2.5541100   3.6810000  52.3256580   4.0248070   3.9136320
  43.3994160   3.4138870  16.4888290  43.2601930   4.2861670  16.8575690
  42.5175520   3.0711680  16.3436230  49.7223540   8.3314740   7.7953420
  50.1619450   9.0739070   7.3808810  49.6610430   8.5741310   8.7192380
  45.1974510   9.3560570  18.6973440  45.1689940   9.7603520  17.8301870
  45.0339480   8.4270930  18.5345040  39.3512810   5.1836420  12.4059200
  39.4293230   5.3185190  11.4614920  39.9654490   4.4752310  12.5987320
  40.5960440   6.8836610   8.8165380  40.1888520   7.0251200   7.9618980
  41.4873450   6.5996770   8.6136590  56.5522580   7.3300520  17.1537620
  56.6785640   7.0912400  16.2354800  56.5943960   6.4985060  17.6259700
  50.4139320  11.0328520  15.7232430  50.9283990  10.9436530  16.5254860
  49.5708400  11.3788220  16.0160340  52.3893720  11.3183860   5.1516430
  52.2294860  11.0286800   6.0498260  52.2240430  10.5423990   4.6161660
  44.8682100  11.0982390   6.9288050  44.6924580  10.1817930   6.7155850
  44.0137840  11.4569680   7.1685850  52.0919850   8.8271420   3.7114430
  51.3985010   8.8248710   3.0516710  52.8342710   8.4030740   3.2808600
  51.6569780  10.4534130   7.7862920  52.1126730   9.6723510   8.1001540
  51.9962300  11.1640950   8.3304100  39.4072330   6.2250590  14.9453660
  39.5703370   5.7555950  14.1273030  39.8724780   5.7174150  15.6102500
  40.9811310   5.6002020  17.1049470  40.5966100   4.9595690  17.7032430
  41.2923500   6.3038140  17.6744200  47.1308450   2.4478560  12.5858090
  47.4978580   1.9737130  13.3319430  46.9413510   3.3220130  12.9266430
  43.4489610   5.6948190   5.5009150  42.6751870   5.1545810   5.3407870
  44.1784240   5.1754800   5.1626910  54.2077590   4.6913550  11.2935540
  54.9276710   5.1868840  10.9031650  54.0059410   4.0131440  10.6489410
  49.5896390   4.7622610  17.1804540  49.5233700   3.8418280  16.9262130
  48.9601530   4.8598050  17.8949180  43.4927010   5.3628570   9.1387960
  44.0105680   4.5596830   9.0844850  43.0411030   5.3007710   9.9804790
  48.3796510   6.6294850   4.4115260  48.7212210   7.3737080   3.9158580
  47.5509220   6.9425970   4.7740090  44.1784670   2.7874180  18.9353210
  43.8784810   2.9331360  18.0381030  44.9495910   2.2279470  18.8426600
  49.5213120   7.5843180  16.9308340  49.5357660   6.6524140  16.7127250
  48.8138220   7.6702940  17.5698110  54.6550190   1.7683000   3.2006950
  54.5713910   2.1997220   2.3503390  55.3744380   2.2281350   3.6333770
  55.7324330   4.2250520  16.2776920  55.0072520   4.8179300  16.0806310
  56.2599790   4.2174060  15.4790290  55.6837440   8.6225260   5.9289080
  55.0413600   7.9680880   6.2032800  55.2968100   9.0280350   5.1529750
  51.2623920   5.9510690   9.7760770  51.6147740   5.3538820   9.1162140
  50.3786250   5.6254920   9.9469020  47.3487200   6.7108380   7.1831180
  48.0358330   7.2577590   7.5638770  46.5619620   7.2549110   7.2180790
  39.4879600   2.3281200   2.6748260  40.3574450   2.6106000   2.9584180
  38.9969920   3.1417070   2.5597070  46.6514410   3.7154410   6.7956540
  47.1077190   4.5259660   7.0216730  46.3002620   3.3977550   7.6275030
  48.9547020   9.2260750  14.0248840  49.5989240   9.4320130  14.7022260
  49.3176460   8.4649150  13.5719690  50.2279100   7.2293100  12.7426290
  50.8701330   6.5286260  12.8558460  50.7528450   8.0091540  12.5623180
  54.0734820   7.5141720   2.4665430  53.8472400   6.7972160   3.0590070
  53.6831020   7.2654160   1.6287180  52.0016720   8.0288000  15.9462350
  52.3372960   8.6154690  16.6240270  51.0817060   7.8980710  16.1760140
  39.8550850  11.5408580   3.2409890  40.2148490  12.1397920   2.5867160
  39.7143190  12.0868470   4.0144920  53.6551070   5.4313660   4.1279590
  53.3672770   5.8926350   4.9157470  54.4503240   4.9711430   4.3963810
  39.8392710   9.8063440  17.7152290  39.9483830   8.8658180  17.5747680
  39.1873270  10.0718190  17.0666020  47.8305300   8.0779330  19.1150410
  47.5102170   7.3588570  19.6596100  47.1563660   8.7534400  19.1886470
  45.8719470   8.9239780   4.0583560  45.8629570   9.6569470   3.4428070
  44.9517830   8.6771360   4.1510520  41.4726110   4.1454670   4.8030320
  40.8654060   4.8853570   4.8125620  41.9475460   4.2354030   3.9768520
  48.8579070   8.9868020   2.7208750  48.9591050   8.7832010   1.7910730
  47.9580810   8.7326300   2.9256530  47.4997180  11.5054340   7.4156420
  47.7538680  11.4675730   6.4935790  46.5509660  11.3787670   7.4084670
  43.4831400   4.1065820   2.5518890  44.2494670   3.9947180   3.1144320
  43.5606090   3.4103790   1.8995660  55.5075340   9.5955070  10.6669190
  55.6322760  10.4186240  11.1393000  56.3740900   9.3845800  10.3193340
  42.9792870  11.6886280  10.3386320  43.7155350  11.1401740  10.6094890
  43.3633790  12.5542290  10.1992310  39.8638350   7.7559850   6.2127830
  38.9378130   7.9980990   6.2033240  40.3294780   8.5834110   6.0912580
  41.9851150  10.8732350  19.5271900  42.7863880  11.1944400  19.9407300
  41.4702970  10.5127930  20.2491810  46.0895180  10.8616590   2.1611890
  46.8823790  11.1505420   1.7093680  45.5699530  10.4308760   1.4824370
  50.8215780   6.9812220  19.4747310  50.2153940   7.0043820  18.7343060
  50.5169890   6.2495260  20.0114560  52.2516150  10.7092510  18.0856720
  53.2037900  10.6250530  18.0356960  52.1044370  11.3734220  18.7590510
  55.1425350  10.0886720   3.5848630  54.8566860   9.6751860   2.7702810
  54.9444900  11.0174430   3.4649150  39.7048960   3.3605810  18.4707950
  40.2087980   2.7813090  19.0424180  38.9656380   3.6446040  19.0084320
  46.7586900   4.7676800  18.0043470  45.9932570   5.3361800  17.9198140
  46.9402860   4.4753010  17.1111700  49.8475310   5.1440030   2.6296230
  49.2985410   5.5909330   3.2738970  50.4694570   4.6389280   3.1533900
  53.9010250   6.4982130  18.5618490  54.6419720   6.8357890  18.0585950
  53.1382930   6.6674190  18.0088260  45.5150430   4.1030950   4.5261530
  45.9366850   3.9370820   5.3692920  45.6401270   3.2931180   4.0316670
  52.5755910   4.5496960  17.0973700  52.9896930   4.7042040  17.9464120
  51.6406910   4.6752180  17.2599480  47.3371140   4.5017440  15.0669630
  47.7559250   5.3450170  14.8945870  46.4179770   4.6389480  14.8376410
  52.0122940   2.7870810  15.0269980  51.4858160   3.3113430  14.4235120
  52.3554280   3.4198200  15.6579710  45.1878560  10.8070450  16.1827360
  44.6499650  11.5316510  15.8636060  45.4412520  10.3300790  15.3924700
  48.0440770  12.0421660  16.4414010  47.9699470  12.9456800  16.7486380
  47.1419610  11.7233560  16.4136080  48.5926100  11.2080170   4.0640370
  49.4876890  11.5465140   4.0859130  48.6243730  10.4859580   3.4364650
  42.2322260   6.5807220   2.2927370  42.6697130   7.1236890   2.9484950
  42.7169990   5.7554170   2.3023710  39.4468060   9.3696250   9.7447630
  39.7771070   8.5017310   9.5126270  39.8759060   9.5754770  10.5752590
  44.0429980   7.7005260   7.4049600  43.7425520   7.5770230   8.3053510
  43.9367470   6.8413850   6.9965330  39.9358270  10.2366840  12.4829260
  39.4989260  10.4167640  13.3153410  40.5035950  10.9941460  12.3410980
  55.5720450   9.7383840  16.7706570  54.9722440   9.7976400  16.0270490
  55.7014350   8.7988820  16.9003420  39.7682700   2.7487070   8.8418140
  39.1131540   2.4798710   8.1977840  40.6060650   2.6391550   8.3920120
  54.2572090   6.4635820  14.8682730  53.4431930   6.8932980  15.1308520
  54.6646290   7.0754230  14.2551780  56.3197530   4.5183510   1.7683000
  56.5946370   5.4262390   1.6402220  56.1308270   4.4546040   2.7044990
  56.2162870   2.4552500   6.7612430  55.8406470   1.6880430   6.3293720
  55.4865990   2.8375200   7.2487360  40.8058630   3.1339640  13.3821480
  41.1731670   3.0467040  14.2617500  40.2369450   2.3706190  13.2828340
  54.3148140  11.2154420   8.3951000  54.9107210  10.8938990   7.7185420
  54.5726290  10.7426240   9.1864270  42.2210710   7.6472330  18.5441630
  42.1780340   7.2765240  19.4256090  42.3521720   8.5849900  18.6843450
  45.9216740   9.2031920  14.1451350  45.6808100   9.4706480  13.2581870
  46.8619380   9.3737650  14.2002210  42.0598740  10.5934580  15.6639410
  41.4659060  10.4619280  16.4029450  42.0522580   9.7572720  15.1981510
  54.8660350  11.8649720  12.2248730  54.4063320  12.6165530  11.8506750
  54.2372810  11.1456190  12.1663530  41.6910970   7.9592960  14.6147450
  40.9645030   7.3398250  14.5473400  41.7520120   8.3533570  13.7445530
  45.2956070  10.1737960  11.3996860  45.8121090   9.5625320  10.8745120
  45.9453450  10.6766740  11.8907870  48.0351570  11.0646450  12.2265840
  48.3229380  10.8100750  11.3498850  48.5474790  10.5123810  12.8171410
  39.9740970  11.2767350   7.8244210  39.8063010  10.6438030   8.5226100
  39.1075480  11.4826750   7.4738400  41.5803670   9.9700580   5.2694350
  41.0551290  10.3508610   4.5656310  41.5048250  10.5951350   5.9904060
  48.1023930  11.9862550  19.5934040  49.0291240  11.7506820  19.6370000
  48.0874360  12.8134550  19.1120070  56.3368990  11.5288120   6.5908290
  56.5121180  10.8425860   5.9469210  55.6390560  12.0535170   6.1984960
  44.1796640  11.9182960   4.1443600  44.9115460  11.6342240   3.5967490
  44.4390310  11.6796240   5.0342980  43.3411430   8.0347690   4.1489930
  42.7120310   8.5032790   4.6975760  43.4559260   7.1896910   4.5836120
  54.6701490  11.2132410  19.4175080  55.4626810  10.7181640  19.2101040
  54.9634640  11.8922550  20.0250690  32.0217660  77.1827310  46.6221600
  31.9411710  76.2681920  46.3513310  31.6082080  77.6794380  45.9161310
  30.1535700  78.9606330  48.5030870  29.3777800  78.4806770  48.7929440
  30.8048630  78.2811980  48.3287030  22.5793480  74.2328030  43.1649020
  21.6910180  74.5744000  43.0628900  22.8634670  74.0328350  42.2729850
  20.5426490  76.8333680  49.0488720  21.1142600  76.0655880  49.0492360
  20.5428030  77.1322440  48.1395330  21.7851360  72.2418040  50.8357650
  21.6054200  71.3443790  51.1160410  21.3831440  72.7889910  51.5104600
  30.6249860  74.4433900  48.7369960  31.0014680  73.5705780  48.6243630
  30.5269370  74.7792600  47.8460400  24.7554870  72.8159530  44.1987400
  24.8621620  73.7163260  44.5056160  23.8447230  72.7677500  43.9082050
  34.4073980  71.9384340  45.6698300  35.2283600  71.4480910  45.7123780
  34.4408060  72.5282000  46.4230140  22.4038030  74.7378540  49.4439990
  23.0848140  75.0016910  50.0627390  22.0886080  73.8979410  49.7778000
  26.5962600  75.7845900  48.5312580  27.1040820  76.2826870  49.1717600
  27.1275840  75.0081100  48.3551940  38.6973530  73.9551090  52.2341930
  37.9925700  74.3432800  51.7157040  38.9631450  74.6501380  52.8362860
  24.8798700  70.4244460  52.7976000  24.8817140  70.9416850  51.9921900
  24.0503010  69.9474640  52.7745930  34.6435460  73.8784720  48.4425840
  33.9391030  74.1669610  49.0228950  35.0047620  74.6884830  48.0825400
  24.5614030  72.1354420  50.8046450  24.9030840  72.9796470  50.5100320
  23.6229840  72.2838160  50.9211790  37.7122380  73.3239510  48.8335050
  36.7647290  73.3578490  48.9650480  38.0372370  74.1378460  49.2184410
  28.2441920  69.6236690  47.1291040  28.5516900  69.0683580  46.4126540
  27.3142620  69.7581150  46.9464030  30.6322680  77.6885520  43.8651160
  29.7051960  77.6222900  44.0939630  30.7847500  78.6265650  43.7506400
  30.6191760  73.9602520  40.8618320  29.6795430  74.1216480  40.9470780
  30.9375020  74.6788200  40.3154310  34.1046530  75.4290360  51.7852220
  33.6917710  76.2544070  52.0392210  33.3722480  74.8435400  51.5928580
  26.2379320  78.2150260  46.6470890  25.8336320  77.5027510  46.1516790
  26.3242440  77.8703500  47.5358930  24.9507940  74.9893470  50.4269930
  25.5022530  75.0988810  49.6523180  25.4651450  75.3631070  51.1425160
  32.8384670  78.4892630  41.3759160  33.2777950  77.6515060  41.2296980
  33.5513090  79.1222030  41.4623300  36.4201810  69.7435440  39.6900200
  36.1074470  69.8362270  40.5899270  37.1814280  70.3216470  39.6397630
  22.9383950  77.1095240  44.1477540  22.8181550  77.8357330  43.5358810
  22.6284840  76.3398150  43.6705450  37.6303100  74.4806940  55.6674340
  37.0147370  74.9886610  55.1389800  37.3099520  73.5805270  55.6100280
  25.4047610  70.4530310  47.5301210  24.9615760  71.2339850  47.1985730
  25.9632600  70.7760200  48.2372150  29.6917420  73.3198830  53.1336530
  29.2296790  73.5281850  53.9456470  29.2895530  72.5058180  52.8307200
  34.6921930  74.5407780  54.2633190  33.8415520  74.2413530  54.5842260
  34.5323720  74.7849790  53.3517010  31.7871640  76.0409530  56.3631980
  32.1125050  75.2073280  56.0234210  32.5751970  76.5638050  56.5110310
  28.5206430  70.0741010  42.4107040  27.8960610  70.0700880  43.1360350
  28.4336550  69.2071970  42.0143010  27.4423510  70.9977640  49.3890810
  27.7395840  71.9040470  49.3082830  27.9909070  70.5096420  48.7750380
  25.1961830  75.5763880  45.2582460  24.9702750  75.3601050  46.1629080
  24.4154360  76.0092340  44.9128430  32.4259590  75.5827250  43.8573110
  31.8268480  76.3063050  43.6736730  32.9739200  75.5204030  43.0749560
  27.6361040  76.4749460  55.9242730  27.5404640  75.5344190  55.7743130
  28.4793020  76.6964530  55.5290800  31.0324460  74.2190790  45.8876390
  31.4254030  74.5362990  45.0745080  31.3941310  73.3402670  46.0020910
  22.7671580  72.8863130  54.0776510  22.3734970  73.7338340  54.2849290
  22.0789980  72.2489500  54.2685150  20.0688630  70.8091590  48.1106590
  19.7801680  71.3794450  48.8231570  20.8134390  70.3296040  48.4737820
  20.2558860  74.7511710  39.3209310  20.1733530  75.6942470  39.4624300
  19.9041920  74.6086620  38.4421660  31.6179600  76.8096540  49.9827170
  30.8860720  77.3183350  50.3317270  31.2203940  75.9926520  49.6815950
  28.0556990  73.4850740  48.3879660  28.0593050  73.0440690  47.5384200
  28.9508110  73.8068070  48.4951480  23.9059370  73.3677230  47.3473870
  23.5659420  73.8452460  48.1040920  23.1436690  72.9142350  46.9874970
  28.1177140  74.4862820  41.3786420  28.2389960  74.4449300  42.3272240
  27.7325650  75.3486970  41.2233150  32.0805510  72.2630220  49.3950110
  32.0978250  72.7138870  50.2391960  31.8321090  71.3635860  49.6083550
  27.1298640  76.7963960  40.7769720  26.5615540  76.3482210  40.1505630
  27.8387640  77.1556740  40.2434870  35.5076260  69.6762400  55.2336490
  35.8322030  68.9452060  55.7594470  35.5432770  69.3576040  54.3317480
  28.3564960  77.5452520  50.1345070  28.7235090  77.0711090  50.8806410
  28.1670020  78.4194090  50.4753410  21.2205450  72.2896210  46.2638540
  20.9352370  71.9251880  47.1017160  21.1584310  71.5576670  45.6501680
  26.1464330  76.5861160  52.4529280  25.8421400  77.4653140  52.6779640
  27.1010790  76.6460950  52.4886720  30.8944040  71.1825470  42.9851910
  30.0808650  70.6838640  42.9097220  30.7005990  72.0223720  42.5688260
  33.6092430  75.5545120  41.2814070  34.4972050  75.8662350  41.1065410
  33.5797520  74.6817370  40.8894650  22.2028060  77.4263900  53.6000640
  21.8443000  78.0917750  54.1873980  21.9082620  76.5947450  53.9713260
  25.4041180  77.8848140  56.4840190  25.1041320  78.0305320  55.5868010
  26.1752420  77.3253430  56.3913580  35.8806700  76.8656960  40.7493930
  35.7970420  77.2971180  39.8990370  36.6000890  77.3255310  41.1820750
  20.7136110  77.4255160  40.2235240  21.5830960  77.7079960  40.5071160
  20.2226430  78.2391030  40.1084050  23.7782700  69.1566020  44.8166040
  23.6497330  69.1483920  45.7650960  22.9544720  69.4949110  44.4657050
  20.7776630  70.9157140  54.2772740  20.0635150  71.1154060  54.8825350
  21.1971670  70.1396710  54.6487540  32.2715410  73.4079450  52.0274190
  32.6396230  72.5874660  52.3553760  31.4113610  73.4681340  52.4429840
  35.6377440  72.3636390  42.8361750  35.0090600  72.4682060  42.1219980
  35.1429360  72.5833170  43.6255630  27.6061470  74.6422340  44.2519630
  26.8977620  75.1108680  44.6933240  27.8905950  73.9844350  44.8864820
  29.2317400  76.0619040  52.2512160  29.7302650  76.5364860  52.9164010
  29.3740350  75.1382560  52.4582190  31.6376900  71.3673000  45.6915420
  31.5144680  71.3859130  44.7424930  32.5861460  71.4151940  45.8113820
  25.8096490  72.9507420  41.6270340  26.6587020  73.3877570  41.5610530
  25.4427760  73.2627680  42.4542400  36.4384260  72.2787000  53.0940550
  35.9357860  73.0192400  53.4334360  37.2540920  72.6671000  52.7777340
  34.7306270  77.5220180  46.5401910  33.7896410  77.5370410  46.7149600
  35.0450340  76.7356140  46.9862210  23.4034670  76.6364850  40.7838760
  23.4838260  75.6892360  40.8956160  24.2954420  76.9671730  40.8899420
  20.9305470  78.4579770  56.0194930  21.4344490  77.8787050  56.5911160
  20.1912890  78.7420000  56.5571300  24.9034360  75.1801460  54.8819490
  24.3730820  74.6892410  54.2542830  25.5722430  75.6085660  54.3477420
  29.2534580  78.2242520  39.3225610  29.7740240  77.5091540  38.9566760
  29.9002980  78.8628390  39.6226120  34.2734590  76.9867080  56.6499830
  34.8555360  76.2319400  56.5620310  34.4496360  77.5174520  55.8731310
  25.3906660  72.1463830  54.9616780  25.2963530  71.5284580  54.2367650
  24.8104050  72.8730120  54.7346690  28.1568100  70.7037070  51.9944170
  27.7085400  70.7261330  51.1489720  27.5233300  70.3056090  52.5914470
  30.8991550  77.3307580  53.9994450  31.0187760  76.7348720  54.7389290
  31.7585550  77.3677270  53.5795750  33.2379450  77.8844770  52.5756960
  32.7114670  78.4087390  51.9722100  33.5810790  78.5172160  53.2066690
  25.6365840  75.2738140  39.0206670  25.4354900  74.4105500  39.3820010
  25.4657890  75.1871500  38.0828270  27.6660320  73.8728930  55.2570270
  28.2560010  73.5644780  55.9448090  26.8480560  73.4008680  55.4130170
  32.4853750  73.4894740  55.4903290  31.7969270  72.8276280  55.4253280
  33.2059770  73.0433010  55.9351750  33.1154150  70.0846370  41.5493550
  33.3956440  69.2414270  41.9052970  32.3419880  70.3169480  42.0632300
  24.4348640  72.3738760  39.0084550  24.7374540  72.3806190  38.1003700
  25.1743230  72.0236620  39.5052210  27.6533570  71.3173380  39.9940750
  27.3055570  70.6397370  39.4143200  27.8546340  70.8562890  40.8084140
  20.9939210  77.8461030  46.3905120  20.3388050  77.5772670  45.7464820
  21.8317160  77.7365510  45.9407100  33.9429650  72.6402320  40.6123610
  34.3614530  72.4533300  39.7720270  33.6365710  71.7881370  40.9226540
  37.4419380  77.5526460  44.3099410  37.0662980  76.7854390  43.8780700
  36.7122500  77.9349160  44.7974340  22.0315140  78.2313600  50.9308460
  22.3988180  78.1441000  51.8104480  21.4625960  77.4680150  50.8315320
  36.8319000  76.6997980  53.9438930  36.6005090  76.4710730  53.0436880
  37.0923550  77.6197530  53.8983820  21.5831140  75.1422690  54.8366880
  20.6887190  75.1089450  55.1760590  22.1228690  75.3409480  55.6018130
  35.2707070  71.9254410  56.7218630  36.1477250  71.9337810  57.1052630
  35.2827910  71.1885250  56.1110980  20.2077290  75.0559960  42.3330450
  19.3041370  75.3190160  42.1582110  20.6917910  75.3271130  41.5530410
  36.7170340  75.7783950  47.6106650  37.2407820  75.2846600  46.9796820
  37.3029760  75.9134310  48.3554220  36.8960060  75.8623820  51.1326200
  35.9462770  75.8287360  51.2471190  37.0773070  76.7723930  50.8975970
  22.7504500  74.1125500  40.2424830  23.4596200  73.6908720  39.7572110
  22.0344440  74.1800730  39.6108180  22.3978660  70.1664830  39.2827480
  23.1206790  70.7073770  39.6008700  22.6703180  69.8928250  38.4069020
  36.2070310  75.0357300  43.5499060  36.7029430  74.8028170  44.3347940
  36.0086380  74.1969140  43.1336700  22.0870850  69.4171020  49.1850100
  22.7347040  68.8668400  48.7445260  22.5072690  69.6714170  50.0065910
  37.6357470  73.6718250  46.0836740  37.5256750  73.5174290  47.0219010
  38.3965060  73.1439190  45.8412150  35.9823190  69.6112380  52.5419740
  36.6195410  70.2246520  52.9078930  36.1298080  69.6473040  51.5968970
  38.5247740  71.5026170  39.3242880  39.4497050  71.3707350  39.1161170
  38.5023530  71.5818990  40.2779330  38.5986230  72.2736830  41.9499590
  37.8037730  72.2081950  42.4792500  38.8029510  73.2087470  41.9384940
  21.8402850  69.5726690  51.9275420  21.4917670  70.0290510  52.6933600
  21.5090550  68.6783820  52.0097850  29.3527670  70.7638570  55.4494840
  29.2916560  71.3560400  56.1990250  30.2928050  70.6564530  55.3045100
  31.9902230  70.4208630  55.0887130  32.6042640  70.7387920  54.4268210
  32.5351790  69.9357220  55.7082990  22.5123490  69.1002890  55.2026190
  23.0606480  68.9190940  54.4392300  22.5778800  68.3097000  55.7382500
  32.7310270  68.9840770  51.4156420  31.8570110  69.3175880  51.2129350
  32.6221020  68.5113950  52.2408290  33.6382250  71.1911640  52.7998140
  33.3095610  70.3763400  52.4199870  34.5864550  71.1481450  52.6763830
  30.4785090  69.9010610  50.3549330  29.6956880  70.3756110  50.6346090
  30.1848020  68.9965440  50.2462510  35.0306160  70.6033710  48.3998420
  35.4714250  70.5478810  47.5520020  34.7613750  71.5191720  48.4708600
  36.8944730  70.2348950  46.4107240  36.8333130  69.2910170  46.2638260
  37.6736760  70.3429040  46.9560700  21.8225500  70.2058090  42.8763050
  22.5804860  70.3186970  42.3027080  21.3602670  71.0427290  42.8306480
  28.3639310  72.3197360  45.8665360  27.5513820  71.9454250  45.5261240
  28.8680950  71.5642440  46.1686550  32.8664290  68.9839810  47.1048430
  33.4693660  69.5560020  47.5796950  32.1257280  69.5479250  46.8822330
  36.0098890  69.3861370  42.3788710  36.2049520  70.2844820  42.6456140
  35.2228760  69.1548450  42.8721660  24.1950650  70.7322140  41.4165020
  24.7243410  69.9451940  41.2872970  24.8278970  71.4113330  41.6500550
  26.3888490  70.4697280  44.4710410  25.7591230  69.7684590  44.6380540
  25.8493630  71.2301410  44.2543570  26.5144050  69.7481260  56.9062900
  26.2328320  70.2514860  56.1423720  26.8963750  68.9503010  56.5405030
  32.0217660  77.1827310  27.8478110  31.9411710  76.2681920  27.5769820
  31.6082080  77.6794380  27.1417820  30.1535700  78.9606330  29.7287380
  29.3777800  78.4806770  30.0185950  30.8048630  78.2811980  29.5543540
  22.5793480  74.2328030  24.3905530  21.6910180  74.5744000  24.2885410
  22.8634670  74.0328350  23.4986360  20.5426490  76.8333680  30.2745230
  21.1142600  76.0655880  30.2748870  20.5428030  77.1322440  29.3651840
  21.7851360  72.2418040  32.0614160  21.6054200  71.3443790  32.3416920
  21.3831440  72.7889910  32.7361110  30.6249860  74.4433900  29.9626470
  31.0014680  73.5705780  29.8500140  30.5269370  74.7792600  29.0716910
  24.7554870  72.8159530  25.4243910  24.8621620  73.7163260  25.7312670
  23.8447230  72.7677500  25.1338560  34.4073980  71.9384340  26.8954810
  35.2283600  71.4480910  26.9380290  34.4408060  72.5282000  27.6486650
  22.4038030  74.7378540  30.6696500  23.0848140  75.0016910  31.2883900
  22.0886080  73.8979410  31.0034510  26.5962600  75.7845900  29.7569090
  27.1040820  76.2826870  30.3974110  27.1275840  75.0081100  29.5808450
  38.6973530  73.9551090  33.4598440  37.9925700  74.3432800  32.9413550
  38.9631450  74.6501380  34.0619370  24.8798700  70.4244460  34.0232510
  24.8817140  70.9416850  33.2178410  24.0503010  69.9474640  34.0002440
  34.6435460  73.8784720  29.6682350  33.9391030  74.1669610  30.2485460
  35.0047620  74.6884830  29.3081910  24.5614030  72.1354420  32.0302960
  24.9030840  72.9796470  31.7356830  23.6229840  72.2838160  32.1468300
  37.7122380  73.3239510  30.0591560  36.7647290  73.3578490  30.1906990
  38.0372370  74.1378460  30.4440920  28.2441920  69.6236690  28.3547550
  28.5516900  69.0683580  27.6383050  27.3142620  69.7581150  28.1720540
  30.6322680  77.6885520  25.0907670  29.7051960  77.6222900  25.3196140
  30.7847500  78.6265650  24.9762910  30.6191760  73.9602520  22.0874830
  29.6795430  74.1216480  22.1727290  30.9375020  74.6788200  21.5410820
  34.1046530  75.4290360  33.0108730  33.6917710  76.2544070  33.2648720
  33.3722480  74.8435400  32.8185090  26.2379320  78.2150260  27.8727400
  25.8336320  77.5027510  27.3773300  26.3242440  77.8703500  28.7615440
  24.9507940  74.9893470  31.6526440  25.5022530  75.0988810  30.8779690
  25.4651450  75.3631070  32.3681670  32.8384670  78.4892630  22.6015670
  33.2777950  77.6515060  22.4553490  33.5513090  79.1222030  22.6879810
  36.4201810  69.7435440  20.9156710  36.1074470  69.8362270  21.8155780
  37.1814280  70.3216470  20.8654140  22.9383950  77.1095240  25.3734050
  22.8181550  77.8357330  24.7615320  22.6284840  76.3398150  24.8961960
  37.6303100  74.4806940  36.8930850  37.0147370  74.9886610  36.3646310
  37.3099520  73.5805270  36.8356790  25.4047610  70.4530310  28.7557720
  24.9615760  71.2339850  28.4242240  25.9632600  70.7760200  29.4628660
  29.6917420  73.3198830  34.3593040  29.2296790  73.5281850  35.1712980
  29.2895530  72.5058180  34.0563710  34.6921930  74.5407780  35.4889700
  33.8415520  74.2413530  35.8098770  34.5323720  74.7849790  34.5773520
  31.7871640  76.0409530  37.5888490  32.1125050  75.2073280  37.2490720
  32.5751970  76.5638050  37.7366820  28.5206430  70.0741010  23.6363550
  27.8960610  70.0700880  24.3616860  28.4336550  69.2071970  23.2399520
  27.4423510  70.9977640  30.6147320  27.7395840  71.9040470  30.5339340
  27.9909070  70.5096420  30.0006890  25.1961830  75.5763880  26.4838970
  24.9702750  75.3601050  27.3885590  24.4154360  76.0092340  26.1384940
  32.4259590  75.5827250  25.0829620  31.8268480  76.3063050  24.8993240
  32.9739200  75.5204030  24.3006070  27.6361040  76.4749460  37.1499240
  27.5404640  75.5344190  36.9999640  28.4793020  76.6964530  36.7547310
  31.0324460  74.2190790  27.1132900  31.4254030  74.5362990  26.3001590
  31.3941310  73.3402670  27.2277420  22.7671580  72.8863130  35.3033020
  22.3734970  73.7338340  35.5105800  22.0789980  72.2489500  35.4941660
  29.3416630  72.9698100  38.3729760  28.6514950  72.7770300  39.0075850
  30.0848930  73.2532740  38.9054060  20.0688630  70.8091590  29.3363100
  19.7801680  71.3794450  30.0488080  20.8134390  70.3296040  29.6994330
  20.2558860  74.7511710  20.5465820  20.1733530  75.6942470  20.6880810
  19.9041920  74.6086620  19.6678170  31.6179600  76.8096540  31.2083680
  30.8860720  77.3183350  31.5573780  31.2203940  75.9926520  30.9072460
  28.0556990  73.4850740  29.6136170  28.0593050  73.0440690  28.7640710
  28.9508110  73.8068070  29.7207990  23.9059370  73.3677230  28.5730380
  23.5659420  73.8452460  29.3297430  23.1436690  72.9142350  28.2131480
  28.1177140  74.4862820  22.6042930  28.2389960  74.4449300  23.5528750
  27.7325650  75.3486970  22.4489660  32.0805510  72.2630220  30.6206620
  32.0978250  72.7138870  31.4648470  31.8321090  71.3635860  30.8340060
  27.1298640  76.7963960  22.0026230  26.5615540  76.3482210  21.3762140
  27.8387640  77.1556740  21.4691380  35.5076260  69.6762400  36.4593000
  35.8322030  68.9452060  36.9850980  35.5432770  69.3576040  35.5573990
  28.3564960  77.5452520  31.3601580  28.7235090  77.0711090  32.1062920
  28.1670020  78.4194090  31.7009920  21.2205450  72.2896210  27.4895050
  20.9352370  71.9251880  28.3273670  21.1584310  71.5576670  26.8758190
  26.1464330  76.5861160  33.6785790  25.8421400  77.4653140  33.9036150
  27.1010790  76.6460950  33.7143230  30.8944040  71.1825470  24.2108420
  30.0808650  70.6838640  24.1353730  30.7005990  72.0223720  23.7944770
  33.6092430  75.5545120  22.5070580  34.4972050  75.8662350  22.3321920
  33.5797520  74.6817370  22.1151160  22.2028060  77.4263900  34.8257150
  21.8443000  78.0917750  35.4130490  21.9082620  76.5947450  35.1969770
  25.4041180  77.8848140  37.7096700  25.1041320  78.0305320  36.8124520
  26.1752420  77.3253430  37.6170090  35.8806700  76.8656960  21.9750440
  35.7970420  77.2971180  21.1246880  36.6000890  77.3255310  22.4077260
  20.7136110  77.4255160  21.4491750  21.5830960  77.7079960  21.7327670
  20.2226430  78.2391030  21.3340560  23.7782700  69.1566020  26.0422550
  23.6497330  69.1483920  26.9907470  22.9544720  69.4949110  25.6913560
  20.7776630  70.9157140  35.5029250  20.0635150  71.1154060  36.1081860
  21.1971670  70.1396710  35.8744050  32.2715410  73.4079450  33.2530700
  32.6396230  72.5874660  33.5810270  31.4113610  73.4681340  33.6686350
  35.6377440  72.3636390  24.0618260  35.0090600  72.4682060  23.3476490
  35.1429360  72.5833170  24.8512140  27.6061470  74.6422340  25.4776140
  26.8977620  75.1108680  25.9189750  27.8905950  73.9844350  26.1121330
  29.2317400  76.0619040  33.4768670  29.7302650  76.5364860  34.1420520
  29.3740350  75.1382560  33.6838700  31.6376900  71.3673000  26.9171930
  31.5144680  71.3859130  25.9681440  32.5861460  71.4151940  27.0370330
  25.8096490  72.9507420  22.8526850  26.6587020  73.3877570  22.7867040
  25.4427760  73.2627680  23.6798910  36.4384260  72.2787000  34.3197060
  35.9357860  73.0192400  34.6590870  37.2540920  72.6671000  34.0033850
  34.7306270  77.5220180  27.7658420  33.7896410  77.5370410  27.9406110
  35.0450340  76.7356140  28.2118720  23.4034670  76.6364850  22.0095270
  23.4838260  75.6892360  22.1212670  24.2954420  76.9671730  22.1155930
  20.9305470  78.4579770  37.2451440  21.4344490  77.8787050  37.8167670
  20.1912890  78.7420000  37.7827810  22.9628550  76.6009360  38.1401510
  23.0033890  76.3023230  39.0486740  23.8174050  77.0016970  37.9809030
  24.9034360  75.1801460  36.1076000  24.3730820  74.6892410  35.4799340
  25.5722430  75.6085660  35.5733930  29.2534580  78.2242520  20.5482120
  29.7740240  77.5091540  20.1823270  29.9002980  78.8628390  20.8482630
  34.2734590  76.9867080  37.8756340  34.8555360  76.2319400  37.7876820
  34.4496360  77.5174520  37.0987820  25.3906660  72.1463830  36.1873290
  25.2963530  71.5284580  35.4624160  24.8104050  72.8730120  35.9603200
  28.1568100  70.7037070  33.2200680  27.7085400  70.7261330  32.3746230
  27.5233300  70.3056090  33.8170980  30.8991550  77.3307580  35.2250960
  31.0187760  76.7348720  35.9645800  31.7585550  77.3677270  34.8052260
  33.2379450  77.8844770  33.8013470  32.7114670  78.4087390  33.1978610
  33.5810790  78.5172160  34.4323200  25.6365840  75.2738140  20.2463180
  25.4354900  74.4105500  20.6076520  25.4657890  75.1871500  19.3084780
  27.6660320  73.8728930  36.4826780  28.2560010  73.5644780  37.1704600
  26.8480560  73.4008680  36.6386680  32.4853750  73.4894740  36.7159800
  31.7969270  72.8276280  36.6509790  33.2059770  73.0433010  37.1608260
  33.1154150  70.0846370  22.7750060  33.3956440  69.2414270  23.1309480
  32.3419880  70.3169480  23.2888810  24.4348640  72.3738760  20.2341060
  24.7374540  72.3806190  19.3260210  25.1743230  72.0236620  20.7308720
  27.6533570  71.3173380  21.2197260  27.3055570  70.6397370  20.6399710
  27.8546340  70.8562890  22.0340650  20.9939210  77.8461030  27.6161630
  20.3388050  77.5772670  26.9721330  21.8317160  77.7365510  27.1663610
  33.9429650  72.6402320  21.8380120  34.3614530  72.4533300  20.9976780
  33.6365710  71.7881370  22.1483050  37.4419380  77.5526460  25.5355920
  37.0662980  76.7854390  25.1037210  36.7122500  77.9349160  26.0230850
  22.0315140  78.2313600  32.1564970  22.3988180  78.1441000  33.0360990
  21.4625960  77.4680150  32.0571830  36.8319000  76.6997980  35.1695440
  36.6005090  76.4710730  34.2693390  37.0923550  77.6197530  35.1240330
  21.5831140  75.1422690  36.0623390  20.6887190  75.1089450  36.4017100
  22.1228690  75.3409480  36.8274640  35.2707070  71.9254410  37.9475140
  36.1477250  71.9337810  38.3309140  35.2827910  71.1885250  37.3367490
  20.2077290  75.0559960  23.5586960  19.3041370  75.3190160  23.3838620
  20.6917910  75.3271130  22.7786920  36.7170340  75.7783950  28.8363160
  37.2407820  75.2846600  28.2053330  37.3029760  75.9134310  29.5810730
  36.8960060  75.8623820  32.3582710  35.9462770  75.8287360  32.4727700
  37.0773070  76.7723930  32.1232480  22.7504500  74.1125500  21.4681340
  23.4596200  73.6908720  20.9828620  22.0344440  74.1800730  20.8364690
  22.3978660  70.1664830  20.5083990  23.1206790  70.7073770  20.8265210
  22.6703180  69.8928250  19.6325530  36.2070310  75.0357300  24.7755570
  36.7029430  74.8028170  25.5604450  36.0086380  74.1969140  24.3593210
  22.0870850  69.4171020  30.4106610  22.7347040  68.8668400  29.9701770
  22.5072690  69.6714170  31.2322420  37.6357470  73.6718250  27.3093250
  37.5256750  73.5174290  28.2475520  38.3965060  73.1439190  27.0668660
  35.9823190  69.6112380  33.7676250  36.6195410  70.2246520  34.1335440
  36.1298080  69.6473040  32.8225480  38.5247740  71.5026170  20.5499390
  39.4497050  71.3707350  20.3417680  38.5023530  71.5818990  21.5035840
  38.5986230  72.2736830  23.1756100  37.8037730  72.2081950  23.7049010
  38.8029510  73.2087470  23.1641450  21.8402850  69.5726690  33.1531930
  21.4917670  70.0290510  33.9190110  21.5090550  68.6783820  33.2354360
  29.3527670  70.7638570  36.6751350  29.2916560  71.3560400  37.4246760
  30.2928050  70.6564530  36.5301610  31.9902230  70.4208630  36.3143640
  32.6042640  70.7387920  35.6524720  32.5351790  69.9357220  36.9339500
  22.5123490  69.1002890  36.4282700  23.0606480  68.9190940  35.6648810
  22.5778800  68.3097000  36.9639010  32.7310270  68.9840770  32.6412930
  31.8570110  69.3175880  32.4385860  32.6221020  68.5113950  33.4664800
  33.6382250  71.1911640  34.0254650  33.3095610  70.3763400  33.6456380
  34.5864550  71.1481450  33.9020340  30.4785090  69.9010610  31.5805840
  29.6956880  70.3756110  31.8602600  30.1848020  68.9965440  31.4719020
  35.0306160  70.6033710  29.6254930  35.4714250  70.5478810  28.7776530
  34.7613750  71.5191720  29.6965110  36.8944730  70.2348950  27.6363750
  36.8333130  69.2910170  27.4894770  37.6736760  70.3429040  28.1817210
  21.8225500  70.2058090  24.1019560  22.5804860  70.3186970  23.5283590
  21.3602670  71.0427290  24.0562990  28.3639310  72.3197360  27.0921870
  27.5513820  71.9454250  26.7517750  28.8680950  71.5642440  27.3943060
  32.8664290  68.9839810  28.3304940  33.4693660  69.5560020  28.8053460
  32.1257280  69.5479250  28.1078840  36.0098890  69.3861370  23.6045220
  36.2049520  70.2844820  23.8712650  35.2228760  69.1548450  24.0978170
  24.1950650  70.7322140  22.6421530  24.7243410  69.9451940  22.5129480
  24.8278970  71.4113330  22.8757060  26.3888490  70.4697280  25.6966920
  25.7591230  69.7684590  25.8637050  25.8493630  71.2301410  25.4800080
  26.5144050  69.7481260  38.1319410  26.2328320  70.2514860  37.3680230
  26.8963750  68.9503010  37.7661540  33.1159510  69.1634840  38.7099880
  33.0024960  69.4829450  39.6051400  33.9329250  69.5647350  38.4137160
  32.0217660  77.1827310   9.0734620  31.9411710  76.2681920   8.8026330
  31.6082080  77.6794380   8.3674330  30.1535700  78.9606330  10.9543890
  29.3777800  78.4806770  11.2442460  30.8048630  78.2811980  10.7800050
  22.5793480  74.2328030   5.6162040  21.6910180  74.5744000   5.5141920
  22.8634670  74.0328350   4.7242870  20.5426490  76.8333680  11.5001740
  21.1142600  76.0655880  11.5005380  20.5428030  77.1322440  10.5908350
  21.7851360  72.2418040  13.2870670  21.6054200  71.3443790  13.5673430
  21.3831440  72.7889910  13.9617620  30.6249860  74.4433900  11.1882980
  31.0014680  73.5705780  11.0756650  30.5269370  74.7792600  10.2973420
  24.7554870  72.8159530   6.6500420  24.8621620  73.7163260   6.9569180
  23.8447230  72.7677500   6.3595070  34.4073980  71.9384340   8.1211320
  35.2283600  71.4480910   8.1636800  34.4408060  72.5282000   8.8743160
  22.4038030  74.7378540  11.8953010  23.0848140  75.0016910  12.5140410
  22.0886080  73.8979410  12.2291020  26.5962600  75.7845900  10.9825600
  27.1040820  76.2826870  11.6230620  27.1275840  75.0081100  10.8064960
  38.6973530  73.9551090  14.6854950  37.9925700  74.3432800  14.1670060
  38.9631450  74.6501380  15.2875880  24.8798700  70.4244460  15.2489020
  24.8817140  70.9416850  14.4434920  24.0503010  69.9474640  15.2258950
  34.6435460  73.8784720  10.8938860  33.9391030  74.1669610  11.4741970
  35.0047620  74.6884830  10.5338420  24.5614030  72.1354420  13.2559470
  24.9030840  72.9796470  12.9613340  23.6229840  72.2838160  13.3724810
  37.7122380  73.3239510  11.2848070  36.7647290  73.3578490  11.4163500
  38.0372370  74.1378460  11.6697430  28.2441920  69.6236690   9.5804060
  28.5516900  69.0683580   8.8639560  27.3142620  69.7581150   9.3977050
  30.6322680  77.6885520   6.3164180  29.7051960  77.6222900   6.5452650
  30.7847500  78.6265650   6.2019420  30.6191760  73.9602520   3.3131340
  29.6795430  74.1216480   3.3983800  30.9375020  74.6788200   2.7667330
  34.1046530  75.4290360  14.2365240  33.6917710  76.2544070  14.4905230
  33.3722480  74.8435400  14.0441600  26.2379320  78.2150260   9.0983910
  25.8336320  77.5027510   8.6029810  26.3242440  77.8703500   9.9871950
  24.9507940  74.9893470  12.8782950  25.5022530  75.0988810  12.1036200
  25.4651450  75.3631070  13.5938180  32.8384670  78.4892630   3.8272180
  33.2777950  77.6515060   3.6810000  33.5513090  79.1222030   3.9136320
  36.4201810  69.7435440   2.1413220  36.1074470  69.8362270   3.0412290
  37.1814280  70.3216470   2.0910650  22.9383950  77.1095240   6.5990560
  22.8181550  77.8357330   5.9871830  22.6284840  76.3398150   6.1218470
  37.6303100  74.4806940  18.1187360  37.0147370  74.9886610  17.5902820
  37.3099520  73.5805270  18.0613300  25.4047610  70.4530310   9.9814230
  24.9615760  71.2339850   9.6498750  25.9632600  70.7760200  10.6885170
  29.6917420  73.3198830  15.5849550  29.2296790  73.5281850  16.3969490
  29.2895530  72.5058180  15.2820220  34.6921930  74.5407780  16.7146210
  33.8415520  74.2413530  17.0355280  34.5323720  74.7849790  15.8030030
  31.7871640  76.0409530  18.8145000  32.1125050  75.2073280  18.4747230
  32.5751970  76.5638050  18.9623330  28.5206430  70.0741010   4.8620060
  27.8960610  70.0700880   5.5873370  28.4336550  69.2071970   4.4656030
  27.4423510  70.9977640  11.8403830  27.7395840  71.9040470  11.7595850
  27.9909070  70.5096420  11.2263400  25.1961830  75.5763880   7.7095480
  24.9702750  75.3601050   8.6142100  24.4154360  76.0092340   7.3641450
  32.4259590  75.5827250   6.3086130  31.8268480  76.3063050   6.1249750
  32.9739200  75.5204030   5.5262580  27.6361040  76.4749460  18.3755750
  27.5404640  75.5344190  18.2256150  28.4793020  76.6964530  17.9803820
  31.0324460  74.2190790   8.3389410  31.4254030  74.5362990   7.5258100
  31.3941310  73.3402670   8.4533930  22.7671580  72.8863130  16.5289530
  22.3734970  73.7338340  16.7362310  22.0789980  72.2489500  16.7198170
  29.3416630  72.9698100  19.5986270  28.6514950  72.7770300  20.2332360
  30.0848930  73.2532740  20.1310570  20.0688630  70.8091590  10.5619610
  19.7801680  71.3794450  11.2744590  20.8134390  70.3296040  10.9250840
  31.6179600  76.8096540  12.4340190  30.8860720  77.3183350  12.7830290
  31.2203940  75.9926520  12.1328970  28.0556990  73.4850740  10.8392680
  28.0593050  73.0440690   9.9897220  28.9508110  73.8068070  10.9464500
  23.9059370  73.3677230   9.7986890  23.5659420  73.8452460  10.5553940
  23.1436690  72.9142350   9.4387990  28.1177140  74.4862820   3.8299440
  28.2389960  74.4449300   4.7785260  27.7325650  75.3486970   3.6746170
  32.0805510  72.2630220  11.8463130  32.0978250  72.7138870  12.6904980
  31.8321090  71.3635860  12.0596570  27.1298640  76.7963960   3.2282740
  26.5615540  76.3482210   2.6018650  27.8387640  77.1556740   2.6947890
  35.5076260  69.6762400  17.6849510  35.8322030  68.9452060  18.2107490
  35.5432770  69.3576040  16.7830500  28.3564960  77.5452520  12.5858090
  28.7235090  77.0711090  13.3319430  28.1670020  78.4194090  12.9266430
  21.2205450  72.2896210   8.7151560  20.9352370  71.9251880   9.5530180
  21.1584310  71.5576670   8.1014700  26.1464330  76.5861160  14.9042300
  25.8421400  77.4653140  15.1292660  27.1010790  76.6460950  14.9399740
  30.8944040  71.1825470   5.4364930  30.0808650  70.6838640   5.3610240
  30.7005990  72.0223720   5.0201280  33.6092430  75.5545120   3.7327090
  34.4972050  75.8662350   3.5578430  33.5797520  74.6817370   3.3407670
  22.2028060  77.4263900  16.0513660  21.8443000  78.0917750  16.6387000
  21.9082620  76.5947450  16.4226280  25.4041180  77.8848140  18.9353210
  25.1041320  78.0305320  18.0381030  26.1752420  77.3253430  18.8426600
  35.8806700  76.8656960   3.2006950  35.7970420  77.2971180   2.3503390
  36.6000890  77.3255310   3.6333770  20.7136110  77.4255160   2.6748260
  21.5830960  77.7079960   2.9584180  20.2226430  78.2391030   2.5597070
  23.7782700  69.1566020   7.2679060  23.6497330  69.1483920   8.2163980
  22.9544720  69.4949110   6.9170070  20.7776630  70.9157140  16.7285760
  20.0635150  71.1154060  17.3338370  21.1971670  70.1396710  17.1000560
  32.2715410  73.4079450  14.4787210  32.6396230  72.5874660  14.8066780
  31.4113610  73.4681340  14.8942860  35.6377440  72.3636390   5.2874770
  35.0090600  72.4682060   4.5733000  35.1429360  72.5833170   6.0768650
  27.6061470  74.6422340   6.7032650  26.8977620  75.1108680   7.1446260
  27.8905950  73.9844350   7.3377840  29.2317400  76.0619040  14.7025180
  29.7302650  76.5364860  15.3677030  29.3740350  75.1382560  14.9095210
  31.6376900  71.3673000   8.1428440  31.5144680  71.3859130   7.1937950
  32.5861460  71.4151940   8.2626840  25.8096490  72.9507420   4.0783360
  26.6587020  73.3877570   4.0123550  25.4427760  73.2627680   4.9055420
  36.4384260  72.2787000  15.5453570  35.9357860  73.0192400  15.8847380
  37.2540920  72.6671000  15.2290360  34.7306270  77.5220180   8.9914930
  33.7896410  77.5370410   9.1662620  35.0450340  76.7356140   9.4375230
  23.4034670  76.6364850   3.2351780  23.4838260  75.6892360   3.3469180
  24.2954420  76.9671730   3.3412440  20.9305470  78.4579770  18.4707950
  21.4344490  77.8787050  19.0424180  20.1912890  78.7420000  19.0084320
  22.9628550  76.6009360  19.3658020  23.0033890  76.3023230  20.2743250
  23.8174050  77.0016970  19.2065540  24.9034360  75.1801460  17.3332510
  24.3730820  74.6892410  16.7055850  25.5722430  75.6085660  16.7990440
  34.2734590  76.9867080  19.1012850  34.8555360  76.2319400  19.0133330
  34.4496360  77.5174520  18.3244330  25.3906660  72.1463830  17.4129800
  25.2963530  71.5284580  16.6880670  24.8104050  72.8730120  17.1859710
  28.1568100  70.7037070  14.4457190  27.7085400  70.7261330  13.6002740
  27.5233300  70.3056090  15.0427490  30.8991550  77.3307580  16.4507470
  31.0187760  76.7348720  17.1902310  31.7585550  77.3677270  16.0308770
  33.2379450  77.8844770  15.0269980  32.7114670  78.4087390  14.4235120
  33.5810790  78.5172160  15.6579710  27.6660320  73.8728930  17.7083290
  28.2560010  73.5644780  18.3961110  26.8480560  73.4008680  17.8643190
  32.4853750  73.4894740  17.9416310  31.7969270  72.8276280  17.8766300
  33.2059770  73.0433010  18.3864770  33.1154150  70.0846370   4.0006570
  33.3956440  69.2414270   4.3565990  32.3419880  70.3169480   4.5145320
  27.6533570  71.3173380   2.4453770  27.3055570  70.6397370   1.8656220
  27.8546340  70.8562890   3.2597160  20.9939210  77.8461030   8.8418140
  20.3388050  77.5772670   8.1977840  21.8317160  77.7365510   8.3920120
  33.9429650  72.6402320   3.0636630  34.3614530  72.4533300   2.2233290
  33.6365710  71.7881370   3.3739560  37.4419380  77.5526460   6.7612430
  37.0662980  76.7854390   6.3293720  36.7122500  77.9349160   7.2487360
  22.0315140  78.2313600  13.3821480  22.3988180  78.1441000  14.2617500
  21.4625960  77.4680150  13.2828340  36.8319000  76.6997980  16.3951950
  36.6005090  76.4710730  15.4949900  37.0923550  77.6197530  16.3496840
  21.5831140  75.1422690  17.2879900  20.6887190  75.1089450  17.6273610
  22.1228690  75.3409480  18.0531150  35.2707070  71.9254410  19.1731650
  36.1477250  71.9337810  19.5565650  35.2827910  71.1885250  18.5624000
  20.2077290  75.0559960   4.7843470  19.3041370  75.3190160   4.6095130
  20.6917910  75.3271130   4.0043430  36.7170340  75.7783950  10.0619670
  37.2407820  75.2846600   9.4309840  37.3029760  75.9134310  10.8067240
  36.8960060  75.8623820  13.5839220  35.9462770  75.8287360  13.6984210
  37.0773070  76.7723930  13.3488990  22.7504500  74.1125500   2.6937850
  23.4596200  73.6908720   2.2085130  22.0344440  74.1800730   2.0621200
  36.2070310  75.0357300   6.0012080  36.7029430  74.8028170   6.7860960
  36.0086380  74.1969140   5.5849720  22.0870850  69.4171020  11.6363120
  22.7347040  68.8668400  11.1958280  22.5072690  69.6714170  12.4578930
  37.6357470  73.6718250   8.5349760  37.5256750  73.5174290   9.4732030
  38.3965060  73.1439190   8.2925170  35.9823190  69.6112380  14.9932760
  36.6195410  70.2246520  15.3591950  36.1298080  69.6473040  14.0481990
  38.5247740  71.5026170   1.7755900  39.4497050  71.3707350   1.5674190
  38.5023530  71.5818990   2.7292350  38.5986230  72.2736830   4.4012610
  37.8037730  72.2081950   4.9305520  38.8029510  73.2087470   4.3897960
  21.8402850  69.5726690  14.3788440  21.4917670  70.0290510  15.1446620
  21.5090550  68.6783820  14.4610870  29.3527670  70.7638570  17.9007860
  29.2916560  71.3560400  18.6503270  30.2928050  70.6564530  17.7558120
  31.9902230  70.4208630  17.5400150  32.6042640  70.7387920  16.8781230
  32.5351790  69.9357220  18.1596010  22.5123490  69.1002890  17.6539210
  23.0606480  68.9190940  16.8905320  22.5778800  68.3097000  18.1895520
  32.7310270  68.9840770  13.8669440  31.8570110  69.3175880  13.6642370
  32.6221020  68.5113950  14.6921310  33.6382250  71.1911640  15.2511160
  33.3095610  70.3763400  14.8712890  34.5864550  71.1481450  15.1276850
  30.4785090  69.9010610  12.8062350  29.6956880  70.3756110  13.0859110
  30.1848020  68.9965440  12.6975530  35.0306160  70.6033710  10.8511440
  35.4714250  70.5478810  10.0033040  34.7613750  71.5191720  10.9221620
  36.8944730  70.2348950   8.8620260  36.8333130  69.2910170   8.7151280
  37.6736760  70.3429040   9.4073720  21.8225500  70.2058090   5.3276070
  22.5804860  70.3186970   4.7540100  21.3602670  71.0427290   5.2819500
  28.3639310  72.3197360   8.3178380  27.5513820  71.9454250   7.9774260
  28.8680950  71.5642440   8.6199570  32.8664290  68.9839810   9.5561450
  33.4693660  69.5560020  10.0309970  32.1257280  69.5479250   9.3335350
  36.0098890  69.3861370   4.8301730  36.2049520  70.2844820   5.0969160
  35.2228760  69.1548450   5.3234680  24.1950650  70.7322140   3.8678040
  24.7243410  69.9451940   3.7385990  24.8278970  71.4113330   4.1013570
  26.3888490  70.4697280   6.9223430  25.7591230  69.7684590   7.0893560
  25.8493630  71.2301410   6.7056590  26.5144050  69.7481260  19.3575920
  26.2328320  70.2514860  18.5936740  26.8963750  68.9503010  18.9918050
  33.1159510  69.1634840  19.9356390  33.0024960  69.4829450  20.8307910
  33.9329250  69.5647350  19.6393670  32.0217660  58.4083820  46.6221600
  31.9411710  57.4938430  46.3513310  31.6082080  58.9050890  45.9161310
  30.1535700  60.1862840  48.5030870  29.3777800  59.7063280  48.7929440
  30.8048630  59.5068490  48.3287030  24.1701530  60.4982650  49.3806630
  23.3386410  60.2431360  49.7803140  24.7782510  60.5693420  50.1164550
  34.1743130  64.5923030  47.2830000  33.7124660  63.8210270  47.6117170
  34.9868680  64.6189100  47.7882450  24.1502790  64.5322740  49.5764650
  24.4530830  63.6420480  49.3974870  24.8946380  65.0892960  49.3486900
  22.5793480  55.4584540  43.1649020  21.6910180  55.8000510  43.0628900
  22.8634670  55.2584860  42.2729850  20.5426490  58.0590190  49.0488720
  21.1142600  57.2912390  49.0492360  20.5428030  58.3578950  48.1395330
  30.4006440  66.8781040  46.9033990  29.7817880  67.3338540  46.3328430
  31.2558220  67.0332500  46.5023690  29.5944690  62.8620030  48.5101030
  29.5252970  61.9209970  48.3490160  30.3564550  62.9521440  49.0823600
  21.7851360  53.4674550  50.8357650  21.6054200  52.5700300  51.1160410
  21.3831440  54.0146420  51.5104600  30.6249860  55.6690410  48.7369960
  31.0014680  54.7962290  48.6243630  30.5269370  56.0049110  47.8460400
  24.7554870  54.0416040  44.1987400  24.8621620  54.9419770  44.5056160
  23.8447230  53.9934010  43.9082050  34.4073980  53.1640850  45.6698300
  35.2283600  52.6737420  45.7123780  34.4408060  53.7538510  46.4230140
  22.4038030  55.9635050  49.4439990  23.0848140  56.2273420  50.0627390
  22.0886080  55.1235920  49.7778000  26.5962600  57.0102410  48.5312580
  27.1040820  57.5083380  49.1717600  27.1275840  56.2337610  48.3551940
  38.6973530  55.1807600  52.2341930  37.9925700  55.5689310  51.7157040
  38.9631450  55.8757890  52.8362860  24.8798700  51.6500970  52.7976000
  24.8817140  52.1673360  51.9921900  24.0503010  51.1731150  52.7745930
  31.2669790  61.7620280  44.2965900  30.6487060  62.2269730  43.7328620
  31.7793040  62.4547760  44.7135410  26.1301550  61.2896150  50.9749500
  25.7970930  61.9165070  51.6170570  26.3068230  61.8158030  50.1951170
  34.6435460  55.1041230  48.4425840  33.9391030  55.3926120  49.0228950
  35.0047620  55.9141340  48.0825400  24.5614030  53.3610930  50.8046450
  24.9030840  54.2052980  50.5100320  23.6229840  53.5094670  50.9211790
  25.3420650  63.2576950  52.7898680  25.9594650  63.9328030  52.5083130
  24.4813770  63.6664930  52.6986180  20.6352990  62.4476810  41.6705530
  20.2580970  62.9363910  40.9390430  20.8926060  63.1202090  42.3012060
  36.2598240  64.7216360  50.7053320  35.5761760  65.3915470  50.6969990
  36.7992530  64.9197010  49.9398180  37.7122380  54.5496020  48.8335050
  36.7647290  54.5835000  48.9650480  38.0372370  55.3634970  49.2184410
  28.2441920  50.8493200  47.1291040  28.5516900  50.2940090  46.4126540
  27.3142620  50.9837660  46.9464030  33.7956980  66.5660490  49.4198500
  33.8084140  66.1622780  48.5520760  33.2432200  67.3407780  49.3159930
  35.0902400  63.2876710  44.5088670  34.9798730  62.3451040  44.6338090
  35.0870650  63.6492350  45.3951430  33.1942420  61.4690330  50.7481110
  33.6111210  61.2550440  49.9134570  33.9182240  61.7263120  51.3189730
  30.6322680  58.9142030  43.8651160  29.7051960  58.8479410  44.0939630
  30.7847500  59.8522160  43.7506400  30.6191760  55.1859030  40.8618320
  29.6795430  55.3472990  40.9470780  30.9375020  55.9044710  40.3154310
  37.1404520  59.8677550  50.8397350  36.3123150  59.9370640  50.3647480
  37.7355000  60.4531860  50.3713180  34.6619970  60.4762330  44.3686410
  34.0432390  60.1381880  43.7212710  34.6444420  59.8322090  45.0765600
  34.1046530  56.6546870  51.7852220  33.6917710  57.4800580  52.0392210
  33.3722480  56.0691910  51.5928580  26.2379320  59.4406770  46.6470890
  25.8336320  58.7284020  46.1516790  26.3242440  59.0960010  47.5358930
  26.7061020  63.1274330  48.8110100  26.4089310  62.5219800  48.1317880
  27.6560840  63.1651640  48.6999460  24.9507940  56.2149980  50.4269930
  25.5022530  56.3245320  49.6523180  25.4651450  56.5887580  51.1425160
  34.7946630  66.7006200  52.4733200  34.3177190  67.5078390  52.2805810
  34.1108420  66.0484530  52.6259410  25.7979450  62.8656020  55.4617900
  24.9007980  63.0895990  55.7091300  25.8232320  62.9890960  54.5129300
  32.8384670  59.7149140  41.3759160  33.2777950  58.8771570  41.2296980
  33.5513090  60.3478540  41.4623300  24.6250670  59.7369340  54.0375270
  24.4858440  60.6092140  54.4062670  23.7432030  59.3942150  53.8923210
  30.9480050  64.6545210  45.3440400  31.3875960  65.3969540  44.9295790
  30.8866940  64.8971780  46.2679360  26.4231020  65.6791040  56.2460420
  26.3946450  66.0833990  55.3788850  26.2595990  64.7501400  56.0832020
  36.4201810  50.9691950  39.6900200  36.1074470  51.0618780  40.5899270
  37.1814280  51.5472980  39.6397630  22.9383950  58.3351750  44.1477540
  22.8181550  59.0613840  43.5358810  22.6284840  57.5654660  43.6705450
  20.5769320  61.5066890  49.9546180  20.6549740  61.6415660  49.0101900
  21.1911000  60.7982780  50.1474300  21.8216950  63.2067080  46.3652360
  21.4145030  63.3481670  45.5105960  22.7129960  62.9227240  46.1623570
  37.7779090  63.6530990  54.7024600  37.9042150  63.4142870  53.7841780
  37.8200470  62.8215530  55.1746680  31.6395830  67.3558990  53.2719410
  32.1540500  67.2667000  54.0741840  30.7964910  67.7018690  53.5647320
  33.6150230  67.6414330  42.7003410  33.4551370  67.3517270  43.5985240
  33.4496940  66.8654460  42.1648640  26.0938610  67.4212860  44.4775030
  25.9181090  66.5048400  44.2642830  25.2394350  67.7800150  44.7172830
  33.3176360  65.1501890  41.2601410  32.6241520  65.1479180  40.6003690
  34.0599220  64.7261210  40.8295580  32.8826290  66.7764600  45.3349900
  33.3383240  65.9953980  45.6488520  33.2218810  67.4871420  45.8791080
  37.6303100  55.7063450  55.6674340  37.0147370  56.2143120  55.1389800
  37.3099520  54.8061780  55.6100280  20.6328840  62.5481060  52.4940640
  20.7959880  62.0786420  51.6760010  21.0981290  62.0404620  53.1589480
  25.4047610  51.6786820  47.5301210  24.9615760  52.4596360  47.1985730
  25.9632600  52.0016710  48.2372150  29.6917420  54.5455340  53.1336530
  29.2296790  54.7538360  53.9456470  29.2895530  53.7314690  52.8307200
  34.6921930  55.7664290  54.2633190  33.8415520  55.4670040  54.5842260
  34.5323720  56.0106300  53.3517010  31.7871640  57.2666040  56.3631980
  32.1125050  56.4329790  56.0234210  32.5751970  57.7894560  56.5110310
  28.5206430  51.2997520  42.4107040  27.8960610  51.2957390  43.1360350
  28.4336550  50.4328480  42.0143010  27.4423510  52.2234150  49.3890810
  27.7395840  53.1296980  49.3082830  27.9909070  51.7352930  48.7750380
  25.1961830  56.8020390  45.2582460  24.9702750  56.5857560  46.1629080
  24.4154360  57.2348850  44.9128430  32.4259590  56.8083760  43.8573110
  31.8268480  57.5319560  43.6736730  32.9739200  56.7460540  43.0749560
  27.6361040  57.7005970  55.9242730  27.5404640  56.7600700  55.7743130
  28.4793020  57.9221040  55.5290800  31.0324460  55.4447300  45.8876390
  31.4254030  55.7619500  45.0745080  31.3941310  54.5659180  46.0020910
  22.7671580  54.1119640  54.0776510  22.3734970  54.9594850  54.2849290
  22.0789980  53.4746010  54.2685150  20.0688630  52.0348100  48.1106590
  19.7801680  52.6050960  48.8231570  20.8134390  51.5552550  48.4737820
  20.2558860  55.9768220  39.3209310  20.1733530  56.9198980  39.4624300
  19.9041920  55.8343130  38.4421660  31.6179600  58.0353050  49.9827170
  30.8860720  58.5439860  50.3317270  31.2203940  57.2183030  49.6815950
  28.0556990  54.7107250  48.3879660  28.0593050  54.2697200  47.5384200
  28.9508110  55.0324580  48.4951480  23.9059370  54.5933740  47.3473870
  23.5659420  55.0708970  48.1040920  23.1436690  54.1398860  46.9874970
  28.1177140  55.7119330  41.3786420  28.2389960  55.6705810  42.3272240
  27.7325650  56.5743480  41.2233150  32.0805510  53.4886730  49.3950110
  32.0978250  53.9395380  50.2391960  31.8321090  52.5892370  49.6083550
  27.1298640  58.0220470  40.7769720  26.5615540  57.5738720  40.1505630
  27.8387640  58.3813250  40.2434870  35.5076260  50.9018910  55.2336490
  35.8322030  50.1708570  55.7594470  35.5432770  50.5832550  54.3317480
  22.2067820  61.9232490  54.6536450  21.8222610  61.2826160  55.2519410
  22.5180010  62.6268610  55.2231180  28.3564960  58.7709030  50.1345070
  28.7235090  58.2967600  50.8806410  28.1670020  59.6450600  50.4753410
  21.2205450  53.5152720  46.2638540  20.9352370  53.1508390  47.1017160
  21.1584310  52.7833180  45.6501680  26.1464330  57.8117670  52.4529280
  25.8421400  58.6909650  52.6779640  27.1010790  57.8717460  52.4886720
  24.6746120  62.0178660  43.0496130  23.9008380  61.4776280  42.8894850
  25.4040750  61.4985270  42.7113890  35.4334100  61.0144020  48.8422520
  36.1533220  61.5099310  48.4518630  35.2315920  60.3361910  48.1976390
  30.8944040  52.4081980  42.9851910  30.0808650  51.9095150  42.9097220
  30.7005990  53.2480230  42.5688260  30.8152900  61.0853080  54.7291520
  30.7490210  60.1648750  54.4749110  30.1858040  61.1828520  55.4436160
  33.6092430  56.7801630  41.2814070  34.4972050  57.0918860  41.1065410
  33.5797520  55.9073880  40.8894650  24.7183520  61.6859040  46.6874940
  25.2362190  60.8827300  46.6331830  24.2667540  61.6238180  47.5291770
  29.6053020  62.9525320  41.9602240  29.9468720  63.6967550  41.4645560
  28.7765730  63.2656440  42.3227070  22.2028060  58.6520410  53.6000640
  21.8443000  59.3174260  54.1873980  21.9082620  57.8203960  53.9713260
  25.4041180  59.1104650  56.4840190  25.1041320  59.2561830  55.5868010
  26.1752420  58.5509940  56.3913580  30.7469630  63.9073650  54.4795320
  30.7614170  62.9754610  54.2614230  30.0394730  63.9933410  55.1185090
  35.8806700  58.0913470  40.7493930  35.7970420  58.5227690  39.8990370
  36.6000890  58.5511820  41.1820750  36.9580840  60.5480990  53.8263900
  36.2329030  61.1409770  53.6293290  37.4856300  60.5404530  53.0277270
  36.9093950  64.9455730  43.4776060  36.2670110  64.2911350  43.7519780
  36.5224610  65.3510820  42.7016730  32.4880430  62.2741160  47.3247750
  32.8404250  61.6769290  46.6649120  31.6042760  61.9485390  47.4956000
  28.5743710  63.0338850  44.7318160  29.2614840  63.5808060  45.1125750
  27.7876130  63.5779580  44.7667770  20.7136110  58.6511670  40.2235240
  21.5830960  58.9336470  40.5071160  20.2226430  59.4647540  40.1084050
  27.8770920  60.0384880  44.3443520  28.3333700  60.8490130  44.5703710
  27.5259130  59.7208020  45.1762010  30.1803530  65.5491220  51.5735820
  30.8245750  65.7550600  52.2509240  30.5432970  64.7879620  51.1206670
  23.7782700  50.3822530  44.8166040  23.6497330  50.3740430  45.7650960
  22.9544720  50.7205620  44.4657050  31.4535610  63.5523570  50.2913270
  32.0957840  62.8516730  50.4045440  31.9784960  64.3322010  50.1110160
  35.2991330  63.8372190  40.0152410  35.0728910  63.1202630  40.6077050
  34.9087530  63.5884630  39.1774160  33.2273230  64.3518470  53.4949330
  33.5629470  64.9385160  54.1727250  32.3073570  64.2211180  53.7247120
  21.0807360  67.8639050  40.7896870  21.4405000  68.4628390  40.1354140
  20.9399700  68.4098940  41.5631900  20.7776630  52.1413650  54.2772740
  20.0635150  52.3410570  54.8825350  21.1971670  51.3653220  54.6487540
  34.8807580  61.7544130  41.6766570  34.5929280  62.2156820  42.4644450
  35.6759750  61.2941900  41.9450790  21.0649220  66.1293910  55.2639270
  21.1740340  65.1888650  55.1234660  20.4129780  66.3948660  54.6153000
  29.0561810  64.4009800  56.6637390  28.7358680  63.6819040  57.2083080
  28.3820170  65.0764870  56.7373450  27.0975980  65.2470250  41.6070540
  27.0886080  65.9799940  40.9915050  26.1774340  65.0001830  41.6997500
  22.6982620  60.4685140  42.3517300  22.0910570  61.2084040  42.3612600
  23.1731970  60.5584500  41.5255500  32.2715410  54.6335960  52.0274190
  32.6396230  53.8131170  52.3553760  31.4113610  54.6937850  52.4429840
  35.6377440  53.5892900  42.8361750  35.0090600  53.6938570  42.1219980
  35.1429360  53.8089680  43.6255630  30.0835580  65.3098490  40.2695730
  30.1847560  65.1062480  39.3397710  29.1837320  65.0556770  40.4743510
  27.6061470  55.8678850  44.2519630  26.8977620  56.3365190  44.6933240
  27.8905950  55.2100860  44.8864820  29.2317400  57.2875550  52.2512160
  29.7302650  57.7621370  52.9164010  29.3740350  56.3639070  52.4582190
  31.6376900  52.5929510  45.6915420  31.5144680  52.6115640  44.7424930
  32.5861460  52.6408450  45.8113820  28.7253690  67.8284810  44.9643400
  28.9795190  67.7906200  44.0422770  27.7766170  67.7018140  44.9571650
  25.8096490  54.1763930  41.6270340  26.6587020  54.6134080  41.5610530
  25.4427760  54.4884190  42.4542400  36.4384260  53.5043510  53.0940550
  35.9357860  54.2448910  53.4334360  37.2540920  53.8927510  52.7777340
  34.7306270  58.7476690  46.5401910  33.7896410  58.7626920  46.7149600
  35.0450340  57.9612650  46.9862210  24.7087910  60.4296290  40.1005870
  25.4751180  60.3177650  40.6631300  24.7862600  59.7334260  39.4482640
  23.4034670  57.8621360  40.7838760  23.4838260  56.9148870  40.8956160
  24.2954420  58.1928240  40.8899420  36.7331850  65.9185540  48.2156170
  36.8579270  66.7416710  48.6879980  37.5997410  65.7076270  47.8680320
  24.2049380  68.0116750  47.8873300  24.9411860  67.4632210  48.1581870
  24.5890300  68.8772760  47.7479290  21.0894860  64.0790320  43.7614810
  20.1634640  64.3211460  43.7520220  21.5551290  64.9064580  43.6399560
  27.3151690  67.1847060  39.7098870  28.1080300  67.4735890  39.2580660
  26.7956040  66.7539230  39.0311350  33.4772660  67.0322980  55.6343700
  34.4294410  66.9481000  55.5843940  33.3300880  67.6964690  56.3077490
  36.3681860  66.4117190  41.1335610  36.0823370  65.9982330  40.3189790
  36.1701410  67.3404900  41.0136130  20.9305470  59.6836280  56.0194930
  21.4344490  59.1043560  56.5911160  20.1912890  59.9676510  56.5571300
  27.8329090  62.4050470  39.5741220  27.7279730  61.7902820  40.3002600
  27.6653310  61.8816360  38.7904230  27.9843410  61.0907270  55.5530450
  27.2189080  61.6592270  55.4685120  28.1659370  60.7983480  54.6598680
  31.0731820  61.4670500  40.1783210  30.5241920  61.9139800  40.8225950
  31.6951080  60.9619750  40.7020880  35.1266760  62.8212600  56.1105470
  35.8676230  63.1588360  55.6072930  34.3639440  62.9904660  55.5575240
  26.7406940  60.4261420  42.0748510  27.1623360  60.2601290  42.9179900
  26.8657780  59.6161650  41.5803650  24.9034360  56.4057970  54.8819490
  24.3730820  55.9148920  54.2542830  25.5722430  56.8342170  54.3477420
  29.2534580  59.4499030  39.3225610  29.7740240  58.7348050  38.9566760
  29.9002980  60.0884900  39.6226120  33.8012420  60.8727430  54.6460680
  34.2153440  61.0272510  55.4951100  32.8663420  60.9982650  54.8086460
  34.2734590  58.2123590  56.6499830  34.8555360  57.4575910  56.5620310
  34.4496360  58.7431030  55.8731310  25.3906660  53.3720340  54.9616780
  25.2963530  52.7541090  54.2367650  24.8104050  54.0986630  54.7346690
  28.1568100  51.9293580  51.9944170  27.7085400  51.9517840  51.1489720
  27.5233300  51.5312600  52.5914470  28.5627650  60.8247910  52.6156610
  28.9815760  61.6680640  52.4432850  27.6436280  60.9619950  52.3863390
  30.8991550  58.5564090  53.9994450  31.0187760  57.9605230  54.7389290
  31.7585550  58.5933780  53.5795750  33.2379450  59.1101280  52.5756960
  32.7114670  59.6343900  51.9722100  33.5810790  59.7428670  53.2066690
  25.6365840  56.4994650  39.0206670  25.4354900  55.6362010  39.3820010
  25.4657890  56.4128010  38.0828270  26.4135070  67.1300920  53.7314340
  25.8756160  67.8546980  53.4123040  26.6669030  66.6531260  52.9411680
  27.6660320  55.0985440  55.2570270  28.2560010  54.7901290  55.9448090
  26.8480560  54.6265190  55.4130170  32.4853750  54.7151250  55.4903290
  31.7969270  54.0532790  55.4253280  33.2059770  54.2689520  55.9351750
  33.1154150  51.3102880  41.5493550  33.3956440  50.4670780  41.9052970
  32.3419880  51.5425990  42.0632300  24.4348640  53.5995270  39.0084550
  24.7374540  53.6062700  38.1003700  25.1743230  53.2493130  39.5052210
  29.2697280  68.3652130  53.9900990  29.1955980  69.2687270  54.2973360
  28.3676120  68.0464030  53.9623060  27.6533570  52.5429890  39.9940750
  27.3055570  51.8653880  39.4143200  27.8546340  52.0819400  40.8084140
  29.8182610  67.5310640  41.6127350  30.7133400  67.8695610  41.6346110
  29.8500240  66.8090050  40.9851630  23.4578770  62.9037690  39.8414350
  23.8953640  63.4467360  40.4971930  23.9426500  62.0784640  39.8510690
  20.6724570  65.6926720  47.2934610  21.0027580  64.8247780  47.0613250
  21.1015570  65.8985240  48.1239570  25.2686490  64.0235730  44.9536580
  24.9682030  63.9000700  45.8540490  25.1623980  63.1644320  44.5452310
  21.1614780  66.5597310  50.0316240  20.7245770  66.7398110  50.8640390
  21.7292460  67.3171930  49.8897960  36.7976960  66.0614310  54.3193550
  36.1978950  66.1206870  53.5757470  36.9270860  65.1219290  54.4490400
  38.0378410  63.8032130  39.6563260  37.2071370  63.8708780  40.1270490
  38.2150240  64.6936250  39.3530120  37.4934870  60.5479610  42.1597460
  38.2553780  61.1176260  42.2657150  37.5089240  59.9806810  42.9305770
  20.9939210  59.0717540  46.3905120  20.3388050  58.8029180  45.7464820
  21.8317160  58.9622020  45.9407100  38.4994840  61.4029710  47.0039390
  38.8703670  60.6197030  46.5975360  39.1396770  62.0918810  46.8256690
  35.4828600  62.7866290  52.4169710  34.6688440  63.2163450  52.6795500
  35.8902800  63.3984700  51.8038760  37.5454040  60.8413980  39.3169980
  37.8202880  61.7492860  39.1889200  37.3564780  60.7776510  40.2531970
  33.9429650  53.8658830  40.6123610  34.3614530  53.6789810  39.7720270
  33.6365710  53.0137880  40.9226540  37.4419380  58.7782970  44.3099410
  37.0662980  58.0110900  43.8780700  36.7122500  59.1605670  44.7974340
  22.0315140  59.4570110  50.9308460  22.3988180  59.3697510  51.8104480
  21.4625960  58.6936660  50.8315320  36.8319000  57.9254490  53.9438930
  36.6005090  57.6967240  53.0436880  37.0923550  58.8454040  53.8983820
  21.5831140  56.3679200  54.8366880  20.6887190  56.3345960  55.1760590
  22.1228690  56.5665990  55.6018130  35.2707070  53.1510920  56.7218630
  36.1477250  53.1594320  57.1052630  35.2827910  52.4141760  56.1110980
  20.2077290  56.2816470  42.3330450  19.3041370  56.5446670  42.1582110
  20.6917910  56.5527640  41.5530410  36.7170340  57.0040460  47.6106650
  37.2407820  56.5103110  46.9796820  37.3029760  57.1390820  48.3554220
  36.8960060  57.0880330  51.1326200  35.9462770  57.0543870  51.2471190
  37.0773070  57.9980440  50.8975970  22.7504500  55.3382010  40.2424830
  23.4596200  54.9165230  39.7572110  22.0344440  55.4057240  39.6108180
  22.3978660  51.3921340  39.2827480  23.1206790  51.9330280  39.6008700
  22.6703180  51.1184760  38.4069020  36.2070310  56.2613810  43.5499060
  36.7029430  56.0284680  44.3347940  36.0086380  55.4225650  43.1336700
  22.0870850  50.6427530  49.1850100  22.7347040  50.0924910  48.7445260
  22.5072690  50.8970680  50.0065910  37.6357470  54.8974760  46.0836740
  37.5256750  54.7430800  47.0219010  38.3965060  54.3695700  45.8412150
  35.9823190  50.8368890  52.5419740  36.6195410  51.4503030  52.9078930
  36.1298080  50.8729550  51.5968970  38.5247740  52.7282680  39.3242880
  39.4497050  52.5963860  39.1161170  38.5023530  52.8075500  40.2779330
  38.5986230  53.4993340  41.9499590  37.8037730  53.4338460  42.4792500
  38.8029510  54.4343980  41.9384940  35.5404650  67.5384890  45.9437980
  36.1363720  67.2169460  45.2672400  35.7982800  67.0656710  46.7351250
  21.8402850  50.7983200  51.9275420  21.4917670  51.2547020  52.6933600
  21.5090550  49.9040330  52.0097850  23.4467220  63.9702800  56.0928610
  23.4036850  63.5995710  56.9743070  23.5778230  64.9080370  56.2330430
  27.1473250  65.5262390  51.6938330  26.9064610  65.7936950  50.8068850
  28.0875890  65.6968120  51.7489190  29.3527670  51.9895080  55.4494840
  29.2916560  52.5816910  56.1990250  30.2928050  51.8821040  55.3045100
  31.9902230  51.6465140  55.0887130  32.6042640  51.9644430  54.4268210
  32.5351790  51.1613730  55.7082990  38.4077410  67.5456770  52.4948970
  37.9135690  67.9425640  51.7776100  37.7990700  66.9205980  52.8886250
  22.5123490  50.3259400  55.2026190  23.0606480  50.1447450  54.4392300
  22.5778800  49.5353510  55.7382500  23.2855250  66.9165050  53.2126390
  22.6915570  66.7849750  53.9516430  23.2779090  66.0803190  52.7468490
  32.7310270  50.2097280  51.4156420  31.8570110  50.5432390  51.2129350
  32.6221020  49.7370460  52.2408290  33.6382250  52.4168150  52.7998140
  33.3095610  51.6019910  52.4199870  34.5864550  52.3737960  52.6763830
  36.0916860  68.1880190  49.7735710  35.6319830  68.9396000  49.3993730
  35.4629320  67.4686660  49.7150510  22.9167480  64.2823430  52.1634430
  22.1901540  63.6628720  52.0960380  22.9776630  64.6764040  51.2932510
  26.5212580  66.4968430  48.9483840  27.0377600  65.8855790  48.4232100
  27.1709960  66.9997210  49.4394850  29.2608080  67.3876920  49.7752820
  29.5485890  67.1331220  48.8985830  29.7731300  66.8354280  50.3658390
  30.4785090  51.1267120  50.3549330  29.6956880  51.6012620  50.6346090
  30.1848020  50.2221950  50.2462510  35.0306160  51.8290220  48.3998420
  35.4714250  51.7735320  47.5520020  34.7613750  52.7448230  48.4708600
  36.8944730  51.4605460  46.4107240  36.8333130  50.5166680  46.2638260
  37.6736760  51.5685550  46.9560700  21.1997480  67.5997820  45.3731190
  21.0319520  66.9668500  46.0713080  20.3331990  67.8057220  45.0225380
  21.8225500  51.4314600  42.8763050  22.5804860  51.5443480  42.3027080
  21.3602670  52.2683800  42.8306480  28.3639310  53.5453870  45.8665360
  27.5513820  53.1710760  45.5261240  28.8680950  52.7898950  46.1686550
  32.8664290  50.2096320  47.1048430  33.4693660  50.7816530  47.5796950
  32.1257280  50.7735760  46.8822330  36.0098890  50.6117880  42.3788710
  36.2049520  51.5101330  42.6456140  35.2228760  50.3804960  42.8721660
  22.8060180  66.2931050  42.8181330  22.2807800  66.6739080  42.1143290
  22.7304760  66.9181820  43.5391040  24.1950650  51.9578650  41.4165020
  24.7243410  51.1708450  41.2872970  24.8278970  52.6369840  41.6500550
  26.3888490  51.6953790  44.4710410  25.7591230  50.9941100  44.6380540
  25.8493630  52.4557920  44.2543570  29.3280440  68.3093020  57.1421020
  30.2547750  68.0737290  57.1856980  29.3130870  69.1365020  56.6607050
  37.5625500  67.8518590  44.1395270  37.7377690  67.1656330  43.4956190
  36.8647070  68.3765640  43.7471940  26.5144050  50.9737770  56.9062900
  26.2328320  51.4771370  56.1423720  26.8963750  50.1759520  56.5405030
  25.4053150  68.2413430  41.6930580  26.1371970  67.9572710  41.1454470
  25.6646820  68.0026710  42.5829960  24.5667940  64.3578160  41.6976910
  23.9376820  64.8263260  42.2462740  24.6815770  63.5127380  42.1323100
  34.1743130  64.5923030  28.5086510  33.7124660  63.8210270  28.8373680
  34.9868680  64.6189100  29.0138960  22.5793480  55.4584540  24.3905530
  21.6910180  55.8000510  24.2885410  22.8634670  55.2584860  23.4986360
  30.4006440  66.8781040  28.1290500  29.7817880  67.3338540  27.5584940
  31.2558220  67.0332500  27.7280200  34.4073980  53.1640850  26.8954810
  35.2283600  52.6737420  26.9380290  34.4408060  53.7538510  27.6486650
  38.6973530  55.1807600  33.4598440  37.9925700  55.5689310  32.9413550
  38.9631450  55.8757890  34.0619370  20.6352990  62.4476810  22.8962040
  20.2580970  62.9363910  22.1646940  20.8926060  63.1202090  23.5268570
  36.2598240  64.7216360  31.9309830  35.5761760  65.3915470  31.9226500
  36.7992530  64.9197010  31.1654690  37.7122380  54.5496020  30.0591560
  36.7647290  54.5835000  30.1906990  38.0372370  55.3634970  30.4440920
  33.7956980  66.5660490  30.6455010  33.8084140  66.1622780  29.7777270
  33.2432200  67.3407780  30.5416440  35.0902400  63.2876710  25.7345180
  34.9798730  62.3451040  25.8594600  35.0870650  63.6492350  26.6207940
  33.1942420  61.4690330  31.9737620  33.6111210  61.2550440  31.1391080
  33.9182240  61.7263120  32.5446240  30.6191760  55.1859030  22.0874830
  29.6795430  55.3472990  22.1727290  30.9375020  55.9044710  21.5410820
  37.1404520  59.8677550  32.0653860  36.3123150  59.9370640  31.5903990
  37.7355000  60.4531860  31.5969690  34.7946630  66.7006200  33.6989710
  34.3177190  67.5078390  33.5062320  34.1108420  66.0484530  33.8515920
  32.8384670  59.7149140  22.6015670  33.2777950  58.8771570  22.4553490
  33.5513090  60.3478540  22.6879810  30.9480050  64.6545210  26.5696910
  31.3875960  65.3969540  26.1552300  30.8866940  64.8971780  27.4935870
  26.4231020  65.6791040  37.4716930  26.3946450  66.0833990  36.6045360
  26.2595990  64.7501400  37.3088530  36.4201810  50.9691950  20.9156710
  36.1074470  51.0618780  21.8155780  37.1814280  51.5472980  20.8654140
  22.9383950  58.3351750  25.3734050  22.8181550  59.0613840  24.7615320
  22.6284840  57.5654660  24.8961960  38.3745840  66.4618140  38.7681100
  38.8505560  66.9401030  39.4470180  38.9953000  66.3935630  38.0426600
  21.8216950  63.2067080  27.5908870  21.4145030  63.3481670  26.7362470
  22.7129960  62.9227240  27.3880080  37.7779090  63.6530990  35.9281110
  37.9042150  63.4142870  35.0098290  37.8200470  62.8215530  36.4003190
  31.6395830  67.3558990  34.4975920  32.1540500  67.2667000  35.2998350
  30.7964910  67.7018690  34.7903830  33.6150230  67.6414330  23.9259920
  33.4551370  67.3517270  24.8241750  33.4496940  66.8654460  23.3905150
  26.0938610  67.4212860  25.7031540  25.9181090  66.5048400  25.4899340
  25.2394350  67.7800150  25.9429340  33.3176360  65.1501890  22.4857920
  32.6241520  65.1479180  21.8260200  34.0599220  64.7261210  22.0552090
  32.8826290  66.7764600  26.5606410  33.3383240  65.9953980  26.8745030
  33.2218810  67.4871420  27.1047590  37.6303100  55.7063450  36.8930850
  37.0147370  56.2143120  36.3646310  37.3099520  54.8061780  36.8356790
  34.6921930  55.7664290  35.4889700  33.8415520  55.4670040  35.8098770
  34.5323720  56.0106300  34.5773520  31.7871640  57.2666040  37.5888490
  32.1125050  56.4329790  37.2490720  32.5751970  57.7894560  37.7366820
  32.4259590  56.8083760  25.0829620  31.8268480  57.5319560  24.8993240
  32.9739200  56.7460540  24.3006070  27.6361040  57.7005970  37.1499240
  27.5404640  56.7600700  36.9999640  28.4793020  57.9221040  36.7547310
  29.3416630  54.1954610  38.3729760  28.6514950  54.0026810  39.0075850
  30.0848930  54.4789250  38.9054060  20.0688630  52.0348100  29.3363100
  19.7801680  52.6050960  30.0488080  20.8134390  51.5552550  29.6994330
  20.2558860  55.9768220  20.5465820  20.1733530  56.9198980  20.6880810
  19.9041920  55.8343130  19.6678170  27.1298640  58.0220470  22.0026230
  26.5615540  57.5738720  21.3762140  27.8387640  58.3813250  21.4691380
  35.5076260  50.9018910  36.4593000  35.8322030  50.1708570  36.9850980
  35.5432770  50.5832550  35.5573990  21.2205450  53.5152720  27.4895050
  20.9352370  53.1508390  28.3273670  21.1584310  52.7833180  26.8758190
  24.6746120  62.0178660  24.2752640  23.9008380  61.4776280  24.1151360
  25.4040750  61.4985270  23.9370400  35.4334100  61.0144020  30.0679030
  36.1533220  61.5099310  29.6775140  35.2315920  60.3361910  29.4232900
  30.8152900  61.0853080  35.9548030  30.7490210  60.1648750  35.7005620
  30.1858040  61.1828520  36.6692670  33.6092430  56.7801630  22.5070580
  34.4972050  57.0918860  22.3321920  33.5797520  55.9073880  22.1151160
  29.6053020  62.9525320  23.1858750  29.9468720  63.6967550  22.6902070
  28.7765730  63.2656440  23.5483580  30.7469630  63.9073650  35.7051830
  30.7614170  62.9754610  35.4870740  30.0394730  63.9933410  36.3441600
  35.8806700  58.0913470  21.9750440  35.7970420  58.5227690  21.1246880
  36.6000890  58.5511820  22.4077260  36.9580840  60.5480990  35.0520410
  36.2329030  61.1409770  34.8549800  37.4856300  60.5404530  34.2533780
  36.9093950  64.9455730  24.7032570  36.2670110  64.2911350  24.9776290
  36.5224610  65.3510820  23.9273240  20.7136110  58.6511670  21.4491750
  21.5830960  58.9336470  21.7327670  20.2226430  59.4647540  21.3340560
  30.1803530  65.5491220  32.7992330  30.8245750  65.7550600  33.4765750
  30.5432970  64.7879620  32.3463180  31.4535610  63.5523570  31.5169780
  32.0957840  62.8516730  31.6301950  31.9784960  64.3322010  31.3366670
  35.2991330  63.8372190  21.2408920  35.0728910  63.1202630  21.8333560
  34.9087530  63.5884630  20.4030670  33.2273230  64.3518470  34.7205840
  33.5629470  64.9385160  35.3983760  32.3073570  64.2211180  34.9503630
  21.0807360  67.8639050  22.0153380  21.4405000  68.4628390  21.3610650
  20.9399700  68.4098940  22.7888410  20.7776630  52.1413650  35.5029250
  20.0635150  52.3410570  36.1081860  21.1971670  51.3653220  35.8744050
  34.8807580  61.7544130  22.9023080  34.5929280  62.2156820  23.6900960
  35.6759750  61.2941900  23.1707300  21.0649220  66.1293910  36.4895780
  21.1740340  65.1888650  36.3491170  20.4129780  66.3948660  35.8409510
  29.0561810  64.4009800  37.8893900  28.7358680  63.6819040  38.4339590
  28.3820170  65.0764870  37.9629960  27.0975980  65.2470250  22.8327050
  27.0886080  65.9799940  22.2171560  26.1774340  65.0001830  22.9254010
  22.6982620  60.4685140  23.5773810  22.0910570  61.2084040  23.5869110
  23.1731970  60.5584500  22.7512010  35.6377440  53.5892900  24.0618260
  35.0090600  53.6938570  23.3476490  35.1429360  53.8089680  24.8512140
  30.0835580  65.3098490  21.4952240  30.1847560  65.1062480  20.5654220
  29.1837320  65.0556770  21.7000020  28.7253690  67.8284810  26.1899910
  28.9795190  67.7906200  25.2679280  27.7766170  67.7018140  26.1828160
  36.4384260  53.5043510  34.3197060  35.9357860  54.2448910  34.6590870
  37.2540920  53.8927510  34.0033850  24.7087910  60.4296290  21.3262380
  25.4751180  60.3177650  21.8887810  24.7862600  59.7334260  20.6739150
  23.4034670  57.8621360  22.0095270  23.4838260  56.9148870  22.1212670
  24.2954420  58.1928240  22.1155930  36.7331850  65.9185540  29.4412680
  36.8579270  66.7416710  29.9136490  37.5997410  65.7076270  29.0936830
  24.2049380  68.0116750  29.1129810  24.9411860  67.4632210  29.3838380
  24.5890300  68.8772760  28.9735800  21.0894860  64.0790320  24.9871320
  20.1634640  64.3211460  24.9776730  21.5551290  64.9064580  24.8656070
  23.2107660  67.1962820  38.3015390  24.0120390  67.5174870  38.7150790
  22.6959480  66.8358400  39.0235300  27.3151690  67.1847060  20.9355380
  28.1080300  67.4735890  20.4837170  26.7956040  66.7539230  20.2567860
  32.0472290  63.3042690  38.2490800  31.4410450  63.3274290  37.5086550
  31.7426400  62.5725730  38.7858050  33.4772660  67.0322980  36.8600210
  34.4294410  66.9481000  36.8100450  33.3300880  67.6964690  37.5334000
  36.3681860  66.4117190  22.3592120  36.0823370  65.9982330  21.5446300
  36.1701410  67.3404900  22.2392640  27.8329090  62.4050470  20.7997730
  27.7279730  61.7902820  21.5259110  27.6653310  61.8816360  20.0160740
  31.0731820  61.4670500  21.4039720  30.5241920  61.9139800  22.0482460
  31.6951080  60.9619750  21.9277390  35.1266760  62.8212600  37.3361980
  35.8676230  63.1588360  36.8329440  34.3639440  62.9904660  36.7831750
  26.7406940  60.4261420  23.3005020  27.1623360  60.2601290  24.1436410
  26.8657780  59.6161650  22.8060160  29.2534580  59.4499030  20.5482120
  29.7740240  58.7348050  20.1823270  29.9002980  60.0884900  20.8482630
  33.8012420  60.8727430  35.8717190  34.2153440  61.0272510  36.7207610
  32.8663420  60.9982650  36.0342970  34.2734590  58.2123590  37.8756340
  34.8555360  57.4575910  37.7876820  34.4496360  58.7431030  37.0987820
  25.3906660  53.3720340  36.1873290  25.2963530  52.7541090  35.4624160
  24.8104050  54.0986630  35.9603200  25.6365840  56.4994650  20.2463180
  25.4354900  55.6362010  20.6076520  25.4657890  56.4128010  19.3084780
  26.4135070  67.1300920  34.9570850  25.8756160  67.8546980  34.6379550
  26.6669030  66.6531260  34.1668190  27.6660320  55.0985440  36.4826780
  28.2560010  54.7901290  37.1704600  26.8480560  54.6265190  36.6386680
  32.4853750  54.7151250  36.7159800  31.7969270  54.0532790  36.6509790
  33.2059770  54.2689520  37.1608260  33.1154150  51.3102880  22.7750060
  33.3956440  50.4670780  23.1309480  32.3419880  51.5425990  23.2888810
  24.4348640  53.5995270  20.2341060  24.7374540  53.6062700  19.3260210
  25.1743230  53.2493130  20.7308720  29.2697280  68.3652130  35.2157500
  29.1955980  69.2687270  35.5229870  28.3676120  68.0464030  35.1879570
  27.6533570  52.5429890  21.2197260  27.3055570  51.8653880  20.6399710
  27.8546340  52.0819400  22.0340650  29.8182610  67.5310640  22.8383860
  30.7133400  67.8695610  22.8602620  29.8500240  66.8090050  22.2108140
  23.4578770  62.9037690  21.0670860  23.8953640  63.4467360  21.7228440
  23.9426500  62.0784640  21.0767200  20.6724570  65.6926720  28.5191120
  21.0027580  64.8247780  28.2869760  21.1015570  65.8985240  29.3496080
  25.2686490  64.0235730  26.1793090  24.9682030  63.9000700  27.0797000
  25.1623980  63.1644320  25.7708820  21.1614780  66.5597310  31.2572750
  20.7245770  66.7398110  32.0896900  21.7292460  67.3171930  31.1154470
  36.7976960  66.0614310  35.5450060  36.1978950  66.1206870  34.8013980
  36.9270860  65.1219290  35.6746910  38.0378410  63.8032130  20.8819770
  37.2071370  63.8708780  21.3527000  38.2150240  64.6936250  20.5786630
  37.4934870  60.5479610  23.3853970  38.2553780  61.1176260  23.4913660
  37.5089240  59.9806810  24.1562280  20.9939210  59.0717540  27.6161630
  20.3388050  58.8029180  26.9721330  21.8317160  58.9622020  27.1663610
  38.4994840  61.4029710  28.2295900  38.8703670  60.6197030  27.8231870
  39.1396770  62.0918810  28.0513200  35.4828600  62.7866290  33.6426220
  34.6688440  63.2163450  33.9052010  35.8902800  63.3984700  33.0295270
  37.5454040  60.8413980  20.5426490  37.8202880  61.7492860  20.4145710
  37.3564780  60.7776510  21.4788480  33.9429650  53.8658830  21.8380120
  34.3614530  53.6789810  20.9976780  33.6365710  53.0137880  22.1483050
  37.4419380  58.7782970  25.5355920  37.0662980  58.0110900  25.1037210
  36.7122500  59.1605670  26.0230850  36.8319000  57.9254490  35.1695440
  36.6005090  57.6967240  34.2693390  37.0923550  58.8454040  35.1240330
  35.2707070  53.1510920  37.9475140  36.1477250  53.1594320  38.3309140
  35.2827910  52.4141760  37.3367490  20.2077290  56.2816470  23.5586960
  19.3041370  56.5446670  23.3838620  20.6917910  56.5527640  22.7786920
  36.7170340  57.0040460  28.8363160  37.2407820  56.5103110  28.2053330
  37.3029760  57.1390820  29.5810730  36.8960060  57.0880330  32.3582710
  35.9462770  57.0543870  32.4727700  37.0773070  57.9980440  32.1232480
  22.7504500  55.3382010  21.4681340  23.4596200  54.9165230  20.9828620
  22.0344440  55.4057240  20.8364690  22.3978660  51.3921340  20.5083990
  23.1206790  51.9330280  20.8265210  22.6703180  51.1184760  19.6325530
  36.2070310  56.2613810  24.7755570  36.7029430  56.0284680  25.5604450
  36.0086380  55.4225650  24.3593210  37.6357470  54.8974760  27.3093250
  37.5256750  54.7430800  28.2475520  38.3965060  54.3695700  27.0668660
  35.9823190  50.8368890  33.7676250  36.6195410  51.4503030  34.1335440
  36.1298080  50.8729550  32.8225480  38.5247740  52.7282680  20.5499390
  39.4497050  52.5963860  20.3417680  38.5023530  52.8075500  21.5035840
  38.5986230  53.4993340  23.1756100  37.8037730  53.4338460  23.7049010
  38.8029510  54.4343980  23.1641450  35.5404650  67.5384890  27.1694490
  36.1363720  67.2169460  26.4928910  35.7982800  67.0656710  27.9607760
  29.3527670  51.9895080  36.6751350  29.2916560  52.5816910  37.4246760
  30.2928050  51.8821040  36.5301610  31.9902230  51.6465140  36.3143640
  32.6042640  51.9644430  35.6524720  32.5351790  51.1613730  36.9339500
  38.4077410  67.5456770  33.7205480  37.9135690  67.9425640  33.0032610
  37.7990700  66.9205980  34.1142760  23.2855250  66.9165050  34.4382900
  22.6915570  66.7849750  35.1772940  23.2779090  66.0803190  33.9725000
  33.6382250  52.4168150  34.0254650  33.3095610  51.6019910  33.6456380
  34.5864550  52.3737960  33.9020340  36.0916860  68.1880190  30.9992220
  35.6319830  68.9396000  30.6250240  35.4629320  67.4686660  30.9407020
  26.5212580  66.4968430  30.1740350  27.0377600  65.8855790  29.6488610
  27.1709960  66.9997210  30.6651360  29.2608080  67.3876920  31.0009330
  29.5485890  67.1331220  30.1242340  29.7731300  66.8354280  31.5914900
  36.8944730  51.4605460  27.6363750  36.8333130  50.5166680  27.4894770
  37.6736760  51.5685550  28.1817210  21.1997480  67.5997820  26.5987700
  21.0319520  66.9668500  27.2969590  20.3331990  67.8057220  26.2481890
  21.8225500  51.4314600  24.1019560  22.5804860  51.5443480  23.5283590
  21.3602670  52.2683800  24.0562990  36.0098890  50.6117880  23.6045220
  36.2049520  51.5101330  23.8712650  35.2228760  50.3804960  24.0978170
  22.8060180  66.2931050  24.0437840  22.2807800  66.6739080  23.3399800
  22.7304760  66.9181820  24.7647550  24.1950650  51.9578650  22.6421530
  24.7243410  51.1708450  22.5129480  24.8278970  52.6369840  22.8757060
  29.3280440  68.3093020  38.3677530  30.2547750  68.0737290  38.4113490
  29.3130870  69.1365020  37.8863560  37.5625500  67.8518590  25.3651780
  37.7377690  67.1656330  24.7212700  36.8647070  68.3765640  24.9728450
  26.5144050  50.9737770  38.1319410  26.2328320  51.4771370  37.3680230
  26.8963750  50.1759520  37.7661540  25.4053150  68.2413430  22.9187090
  26.1371970  67.9572710  22.3710980  25.6646820  68.0026710  23.8086470
  24.5667940  64.3578160  22.9233420  23.9376820  64.8263260  23.4719250
  24.6815770  63.5127380  23.3579610  33.1159510  50.3891350  38.7099880
  33.0024960  50.7085960  39.6051400  33.9329250  50.7903860  38.4137160
  35.8958000  67.5362880  38.1918570  36.6883320  67.0412110  37.9844530
  36.1891150  68.2153020  38.7994180  32.0217660  58.4083820   9.0734620
  31.9411710  57.4938430   8.8026330  31.6082080  58.9050890   8.3674330
  30.1535700  60.1862840  10.9543890  29.3777800  59.7063280  11.2442460
  30.8048630  59.5068490  10.7800050  24.1701530  60.4982650  11.8319650
  23.3386410  60.2431360  12.2316160  24.7782510  60.5693420  12.5677570
  34.1743130  64.5923030   9.7343020  33.7124660  63.8210270  10.0630190
  34.9868680  64.6189100  10.2395470  24.1502790  64.5322740  12.0277670
  24.4530830  63.6420480  11.8487890  24.8946380  65.0892960  11.7999920
  22.5793480  55.4584540   5.6162040  21.6910180  55.8000510   5.5141920
  22.8634670  55.2584860   4.7242870  20.5426490  58.0590190  11.5001740
  21.1142600  57.2912390  11.5005380  20.5428030  58.3578950  10.5908350
  30.4006440  66.8781040   9.3547010  29.7817880  67.3338540   8.7841450
  31.2558220  67.0332500   8.9536710  29.5944690  62.8620030  10.9614050
  29.5252970  61.9209970  10.8003180  30.3564550  62.9521440  11.5336620
  21.7851360  53.4674550  13.2870670  21.6054200  52.5700300  13.5673430
  21.3831440  54.0146420  13.9617620  30.6249860  55.6690410  11.1882980
  31.0014680  54.7962290  11.0756650  30.5269370  56.0049110  10.2973420
  24.7554870  54.0416040   6.6500420  24.8621620  54.9419770   6.9569180
  23.8447230  53.9934010   6.3595070  34.4073980  53.1640850   8.1211320
  35.2283600  52.6737420   8.1636800  34.4408060  53.7538510   8.8743160
  22.4038030  55.9635050  11.8953010  23.0848140  56.2273420  12.5140410
  22.0886080  55.1235920  12.2291020  26.5962600  57.0102410  10.9825600
  27.1040820  57.5083380  11.6230620  27.1275840  56.2337610  10.8064960
  38.6973530  55.1807600  14.6854950  37.9925700  55.5689310  14.1670060
  38.9631450  55.8757890  15.2875880  24.8798700  51.6500970  15.2489020
  24.8817140  52.1673360  14.4434920  24.0503010  51.1731150  15.2258950
  31.2669790  61.7620280   6.7478920  30.6487060  62.2269730   6.1841640
  31.7793040  62.4547760   7.1648430  26.1301550  61.2896150  13.4262520
  25.7970930  61.9165070  14.0683590  26.3068230  61.8158030  12.6464190
  34.6435460  55.1041230  10.8938860  33.9391030  55.3926120  11.4741970
  35.0047620  55.9141340  10.5338420  24.5614030  53.3610930  13.2559470
  24.9030840  54.2052980  12.9613340  23.6229840  53.5094670  13.3724810
  25.3420650  63.2576950  15.2411700  25.9594650  63.9328030  14.9596150
  24.4813770  63.6664930  15.1499200  20.6352990  62.4476810   4.1218550
  20.2580970  62.9363910   3.3903450  20.8926060  63.1202090   4.7525080
  36.2598240  64.7216360  13.1566340  35.5761760  65.3915470  13.1483010
  36.7992530  64.9197010  12.3911200  37.7122380  54.5496020  11.2848070
  36.7647290  54.5835000  11.4163500  38.0372370  55.3634970  11.6697430
  28.2441920  50.8493200   9.5804060  28.5516900  50.2940090   8.8639560
  27.3142620  50.9837660   9.3977050  33.7956980  66.5660490  11.8711520
  33.8084140  66.1622780  11.0033780  33.2432200  67.3407780  11.7672950
  35.0902400  63.2876710   6.9601690  34.9798730  62.3451040   7.0851110
  35.0870650  63.6492350   7.8464450  33.1942420  61.4690330  13.1994130
  33.6111210  61.2550440  12.3647590  33.9182240  61.7263120  13.7702750
  30.6322680  58.9142030   6.3164180  29.7051960  58.8479410   6.5452650
  30.7847500  59.8522160   6.2019420  30.6191760  55.1859030   3.3131340
  29.6795430  55.3472990   3.3983800  30.9375020  55.9044710   2.7667330
  37.1404520  59.8677550  13.2910370  36.3123150  59.9370640  12.8160500
  37.7355000  60.4531860  12.8226200  34.6619970  60.4762330   6.8199430
  34.0432390  60.1381880   6.1725730  34.6444420  59.8322090   7.5278620
  34.1046530  56.6546870  14.2365240  33.6917710  57.4800580  14.4905230
  33.3722480  56.0691910  14.0441600  26.2379320  59.4406770   9.0983910
  25.8336320  58.7284020   8.6029810  26.3242440  59.0960010   9.9871950
  26.7061020  63.1274330  11.2623120  26.4089310  62.5219800  10.5830900
  27.6560840  63.1651640  11.1512480  24.9507940  56.2149980  12.8782950
  25.5022530  56.3245320  12.1036200  25.4651450  56.5887580  13.5938180
  34.7946630  66.7006200  14.9246220  34.3177190  67.5078390  14.7318830
  34.1108420  66.0484530  15.0772430  25.7979450  62.8656020  17.9130920
  24.9007980  63.0895990  18.1604320  25.8232320  62.9890960  16.9642320
  32.8384670  59.7149140   3.8272180  33.2777950  58.8771570   3.6810000
  33.5513090  60.3478540   3.9136320  24.6250670  59.7369340  16.4888290
  24.4858440  60.6092140  16.8575690  23.7432030  59.3942150  16.3436230
  30.9480050  64.6545210   7.7953420  31.3875960  65.3969540   7.3808810
  30.8866940  64.8971780   8.7192380  26.4231020  65.6791040  18.6973440
  26.3946450  66.0833990  17.8301870  26.2595990  64.7501400  18.5345040
  36.4201810  50.9691950   2.1413220  36.1074470  51.0618780   3.0412290
  37.1814280  51.5472980   2.0910650  22.9383950  58.3351750   6.5990560
  22.8181550  59.0613840   5.9871830  22.6284840  57.5654660   6.1218470
  38.3745840  66.4618140  19.9937610  38.8505560  66.9401030  20.6726690
  38.9953000  66.3935630  19.2683110  20.5769320  61.5066890  12.4059200
  20.6549740  61.6415660  11.4614920  21.1911000  60.7982780  12.5987320
  21.8216950  63.2067080   8.8165380  21.4145030  63.3481670   7.9618980
  22.7129960  62.9227240   8.6136590  37.7779090  63.6530990  17.1537620
  37.9042150  63.4142870  16.2354800  37.8200470  62.8215530  17.6259700
  31.6395830  67.3558990  15.7232430  32.1540500  67.2667000  16.5254860
  30.7964910  67.7018690  16.0160340  33.6150230  67.6414330   5.1516430
  33.4551370  67.3517270   6.0498260  33.4496940  66.8654460   4.6161660
  26.0938610  67.4212860   6.9288050  25.9181090  66.5048400   6.7155850
  25.2394350  67.7800150   7.1685850  33.3176360  65.1501890   3.7114430
  32.6241520  65.1479180   3.0516710  34.0599220  64.7261210   3.2808600
  32.8826290  66.7764600   7.7862920  33.3383240  65.9953980   8.1001540
  33.2218810  67.4871420   8.3304100  37.6303100  55.7063450  18.1187360
  37.0147370  56.2143120  17.5902820  37.3099520  54.8061780  18.0613300
  20.6328840  62.5481060  14.9453660  20.7959880  62.0786420  14.1273030
  21.0981290  62.0404620  15.6102500  25.4047610  51.6786820   9.9814230
  24.9615760  52.4596360   9.6498750  25.9632600  52.0016710  10.6885170
  29.6917420  54.5455340  15.5849550  29.2296790  54.7538360  16.3969490
  29.2895530  53.7314690  15.2820220  34.6921930  55.7664290  16.7146210
  33.8415520  55.4670040  17.0355280  34.5323720  56.0106300  15.8030030
  31.7871640  57.2666040  18.8145000  32.1125050  56.4329790  18.4747230
  32.5751970  57.7894560  18.9623330  28.5206430  51.2997520   4.8620060
  27.8960610  51.2957390   5.5873370  28.4336550  50.4328480   4.4656030
  27.4423510  52.2234150  11.8403830  27.7395840  53.1296980  11.7595850
  27.9909070  51.7352930  11.2263400  25.1961830  56.8020390   7.7095480
  24.9702750  56.5857560   8.6142100  24.4154360  57.2348850   7.3641450
  32.4259590  56.8083760   6.3086130  31.8268480  57.5319560   6.1249750
  32.9739200  56.7460540   5.5262580  27.6361040  57.7005970  18.3755750
  27.5404640  56.7600700  18.2256150  28.4793020  57.9221040  17.9803820
  31.0324460  55.4447300   8.3389410  31.4254030  55.7619500   7.5258100
  31.3941310  54.5659180   8.4533930  22.7671580  54.1119640  16.5289530
  22.3734970  54.9594850  16.7362310  22.0789980  53.4746010  16.7198170
  29.3416630  54.1954610  19.5986270  28.6514950  54.0026810  20.2332360
  30.0848930  54.4789250  20.1310570  20.0688630  52.0348100  10.5619610
  19.7801680  52.6050960  11.2744590  20.8134390  51.5552550  10.9250840
  31.6179600  58.0353050  12.4340190  30.8860720  58.5439860  12.7830290
  31.2203940  57.2183030  12.1328970  28.0556990  54.7107250  10.8392680
  28.0593050  54.2697200   9.9897220  28.9508110  55.0324580  10.9464500
  23.9059370  54.5933740   9.7986890  23.5659420  55.0708970  10.5553940
  23.1436690  54.1398860   9.4387990  28.1177140  55.7119330   3.8299440
  28.2389960  55.6705810   4.7785260  27.7325650  56.5743480   3.6746170
  32.0805510  53.4886730  11.8463130  32.0978250  53.9395380  12.6904980
  31.8321090  52.5892370  12.0596570  27.1298640  58.0220470   3.2282740
  26.5615540  57.5738720   2.6018650  27.8387640  58.3813250   2.6947890
  35.5076260  50.9018910  17.6849510  35.8322030  50.1708570  18.2107490
  35.5432770  50.5832550  16.7830500  22.2067820  61.9232490  17.1049470
  21.8222610  61.2826160  17.7032430  22.5180010  62.6268610  17.6744200
  28.3564960  58.7709030  12.5858090  28.7235090  58.2967600  13.3319430
  28.1670020  59.6450600  12.9266430  21.2205450  53.5152720   8.7151560
  20.9352370  53.1508390   9.5530180  21.1584310  52.7833180   8.1014700
  26.1464330  57.8117670  14.9042300  25.8421400  58.6909650  15.1292660
  27.1010790  57.8717460  14.9399740  24.6746120  62.0178660   5.5009150
  23.9008380  61.4776280   5.3407870  25.4040750  61.4985270   5.1626910
  35.4334100  61.0144020  11.2935540  36.1533220  61.5099310  10.9031650
  35.2315920  60.3361910  10.6489410  30.8944040  52.4081980   5.4364930
  30.0808650  51.9095150   5.3610240  30.7005990  53.2480230   5.0201280
  30.8152900  61.0853080  17.1804540  30.7490210  60.1648750  16.9262130
  30.1858040  61.1828520  17.8949180  33.6092430  56.7801630   3.7327090
  34.4972050  57.0918860   3.5578430  33.5797520  55.9073880   3.3407670
  24.7183520  61.6859040   9.1387960  25.2362190  60.8827300   9.0844850
  24.2667540  61.6238180   9.9804790  29.6053020  62.9525320   4.4115260
  29.9468720  63.6967550   3.9158580  28.7765730  63.2656440   4.7740090
  22.2028060  58.6520410  16.0513660  21.8443000  59.3174260  16.6387000
  21.9082620  57.8203960  16.4226280  25.4041180  59.1104650  18.9353210
  25.1041320  59.2561830  18.0381030  26.1752420  58.5509940  18.8426600
  30.7469630  63.9073650  16.9308340  30.7614170  62.9754610  16.7127250
  30.0394730  63.9933410  17.5698110  35.8806700  58.0913470   3.2006950
  35.7970420  58.5227690   2.3503390  36.6000890  58.5511820   3.6333770
  36.9580840  60.5480990  16.2776920  36.2329030  61.1409770  16.0806310
  37.4856300  60.5404530  15.4790290  36.9093950  64.9455730   5.9289080
  36.2670110  64.2911350   6.2032800  36.5224610  65.3510820   5.1529750
  32.4880430  62.2741160   9.7760770  32.8404250  61.6769290   9.1162140
  31.6042760  61.9485390   9.9469020  28.5743710  63.0338850   7.1831180
  29.2614840  63.5808060   7.5638770  27.7876130  63.5779580   7.2180790
  20.7136110  58.6511670   2.6748260  21.5830960  58.9336470   2.9584180
  20.2226430  59.4647540   2.5597070  27.8770920  60.0384880   6.7956540
  28.3333700  60.8490130   7.0216730  27.5259130  59.7208020   7.6275030
  30.1803530  65.5491220  14.0248840  30.8245750  65.7550600  14.7022260
  30.5432970  64.7879620  13.5719690  23.7782700  50.3822530   7.2679060
  23.6497330  50.3740430   8.2163980  22.9544720  50.7205620   6.9170070
  31.4535610  63.5523570  12.7426290  32.0957840  62.8516730  12.8558460
  31.9784960  64.3322010  12.5623180  35.2991330  63.8372190   2.4665430
  35.0728910  63.1202630   3.0590070  34.9087530  63.5884630   1.6287180
  33.2273230  64.3518470  15.9462350  33.5629470  64.9385160  16.6240270
  32.3073570  64.2211180  16.1760140  21.0807360  67.8639050   3.2409890
  21.4405000  68.4628390   2.5867160  20.9399700  68.4098940   4.0144920
  20.7776630  52.1413650  16.7285760  20.0635150  52.3410570  17.3338370
  21.1971670  51.3653220  17.1000560  34.8807580  61.7544130   4.1279590
  34.5929280  62.2156820   4.9157470  35.6759750  61.2941900   4.3963810
  21.0649220  66.1293910  17.7152290  21.1740340  65.1888650  17.5747680
  20.4129780  66.3948660  17.0666020  29.0561810  64.4009800  19.1150410
  28.7358680  63.6819040  19.6596100  28.3820170  65.0764870  19.1886470
  27.0975980  65.2470250   4.0583560  27.0886080  65.9799940   3.4428070
  26.1774340  65.0001830   4.1510520  22.6982620  60.4685140   4.8030320
  22.0910570  61.2084040   4.8125620  23.1731970  60.5584500   3.9768520
  32.2715410  54.6335960  14.4787210  32.6396230  53.8131170  14.8066780
  31.4113610  54.6937850  14.8942860  35.6377440  53.5892900   5.2874770
  35.0090600  53.6938570   4.5733000  35.1429360  53.8089680   6.0768650
  30.0835580  65.3098490   2.7208750  30.1847560  65.1062480   1.7910730
  29.1837320  65.0556770   2.9256530  27.6061470  55.8678850   6.7032650
  26.8977620  56.3365190   7.1446260  27.8905950  55.2100860   7.3377840
  29.2317400  57.2875550  14.7025180  29.7302650  57.7621370  15.3677030
  29.3740350  56.3639070  14.9095210  31.6376900  52.5929510   8.1428440
  31.5144680  52.6115640   7.1937950  32.5861460  52.6408450   8.2626840
  28.7253690  67.8284810   7.4156420  28.9795190  67.7906200   6.4935790
  27.7766170  67.7018140   7.4084670  25.8096490  54.1763930   4.0783360
  26.6587020  54.6134080   4.0123550  25.4427760  54.4884190   4.9055420
  36.4384260  53.5043510  15.5453570  35.9357860  54.2448910  15.8847380
  37.2540920  53.8927510  15.2290360  34.7306270  58.7476690   8.9914930
  33.7896410  58.7626920   9.1662620  35.0450340  57.9612650   9.4375230
  24.7087910  60.4296290   2.5518890  25.4751180  60.3177650   3.1144320
  24.7862600  59.7334260   1.8995660  23.4034670  57.8621360   3.2351780
  23.4838260  56.9148870   3.3469180  24.2954420  58.1928240   3.3412440
  36.7331850  65.9185540  10.6669190  36.8579270  66.7416710  11.1393000
  37.5997410  65.7076270  10.3193340  24.2049380  68.0116750  10.3386320
  24.9411860  67.4632210  10.6094890  24.5890300  68.8772760  10.1992310
  21.0894860  64.0790320   6.2127830  20.1634640  64.3211460   6.2033240
  21.5551290  64.9064580   6.0912580  23.2107660  67.1962820  19.5271900
  24.0120390  67.5174870  19.9407300  22.6959480  66.8358400  20.2491810
  27.3151690  67.1847060   2.1611890  28.1080300  67.4735890   1.7093680
  26.7956040  66.7539230   1.4824370  32.0472290  63.3042690  19.4747310
  31.4410450  63.3274290  18.7343060  31.7426400  62.5725730  20.0114560
  33.4772660  67.0322980  18.0856720  34.4294410  66.9481000  18.0356960
  33.3300880  67.6964690  18.7590510  36.3681860  66.4117190   3.5848630
  36.0823370  65.9982330   2.7702810  36.1701410  67.3404900   3.4649150
  20.9305470  59.6836280  18.4707950  21.4344490  59.1043560  19.0424180
  20.1912890  59.9676510  19.0084320  27.9843410  61.0907270  18.0043470
  27.2189080  61.6592270  17.9198140  28.1659370  60.7983480  17.1111700
  31.0731820  61.4670500   2.6296230  30.5241920  61.9139800   3.2738970
  31.6951080  60.9619750   3.1533900  35.1266760  62.8212600  18.5618490
  35.8676230  63.1588360  18.0585950  34.3639440  62.9904660  18.0088260
  22.9628550  57.8265870  19.3658020  23.0033890  57.5279740  20.2743250
  23.8174050  58.2273480  19.2065540  26.7406940  60.4261420   4.5261530
  27.1623360  60.2601290   5.3692920  26.8657780  59.6161650   4.0316670
  24.9034360  56.4057970  17.3332510  24.3730820  55.9148920  16.7055850
  25.5722430  56.8342170  16.7990440  33.8012420  60.8727430  17.0973700
  34.2153440  61.0272510  17.9464120  32.8663420  60.9982650  17.2599480
  34.2734590  58.2123590  19.1012850  34.8555360  57.4575910  19.0133330
  34.4496360  58.7431030  18.3244330  25.3906660  53.3720340  17.4129800
  25.2963530  52.7541090  16.6880670  24.8104050  54.0986630  17.1859710
  28.1568100  51.9293580  14.4457190  27.7085400  51.9517840  13.6002740
  27.5233300  51.5312600  15.0427490  28.5627650  60.8247910  15.0669630
  28.9815760  61.6680640  14.8945870  27.6436280  60.9619950  14.8376410
  30.8991550  58.5564090  16.4507470  31.0187760  57.9605230  17.1902310
  31.7585550  58.5933780  16.0308770  33.2379450  59.1101280  15.0269980
  32.7114670  59.6343900  14.4235120  33.5810790  59.7428670  15.6579710
  26.4135070  67.1300920  16.1827360  25.8756160  67.8546980  15.8636060
  26.6669030  66.6531260  15.3924700  27.6660320  55.0985440  17.7083290
  28.2560010  54.7901290  18.3961110  26.8480560  54.6265190  17.8643190
  32.4853750  54.7151250  17.9416310  31.7969270  54.0532790  17.8766300
  33.2059770  54.2689520  18.3864770  33.1154150  51.3102880   4.0006570
  33.3956440  50.4670780   4.3565990  32.3419880  51.5425990   4.5145320
  29.2697280  68.3652130  16.4414010  29.1955980  69.2687270  16.7486380
  28.3676120  68.0464030  16.4136080  27.6533570  52.5429890   2.4453770
  27.3055570  51.8653880   1.8656220  27.8546340  52.0819400   3.2597160
  29.8182610  67.5310640   4.0640370  30.7133400  67.8695610   4.0859130
  29.8500240  66.8090050   3.4364650  23.4578770  62.9037690   2.2927370
  23.8953640  63.4467360   2.9484950  23.9426500  62.0784640   2.3023710
  20.6724570  65.6926720   9.7447630  21.0027580  64.8247780   9.5126270
  21.1015570  65.8985240  10.5752590  25.2686490  64.0235730   7.4049600
  24.9682030  63.9000700   8.3053510  25.1623980  63.1644320   6.9965330
  21.1614780  66.5597310  12.4829260  20.7245770  66.7398110  13.3153410
  21.7292460  67.3171930  12.3410980  36.7976960  66.0614310  16.7706570
  36.1978950  66.1206870  16.0270490  36.9270860  65.1219290  16.9003420
  38.0378410  63.8032130   2.1076280  37.2071370  63.8708780   2.5783510
  38.2150240  64.6936250   1.8043140  37.4934870  60.5479610   4.6110480
  38.2553780  61.1176260   4.7170170  37.5089240  59.9806810   5.3818790
  20.9939210  59.0717540   8.8418140  20.3388050  58.8029180   8.1977840
  21.8317160  58.9622020   8.3920120  38.4994840  61.4029710   9.4552410
  38.8703670  60.6197030   9.0488380  39.1396770  62.0918810   9.2769710
  35.4828600  62.7866290  14.8682730  34.6688440  63.2163450  15.1308520
  35.8902800  63.3984700  14.2551780  37.5454040  60.8413980   1.7683000
  37.8202880  61.7492860   1.6402220  37.3564780  60.7776510   2.7044990
  33.9429650  53.8658830   3.0636630  34.3614530  53.6789810   2.2233290
  33.6365710  53.0137880   3.3739560  37.4419380  58.7782970   6.7612430
  37.0662980  58.0110900   6.3293720  36.7122500  59.1605670   7.2487360
  22.0315140  59.4570110  13.3821480  22.3988180  59.3697510  14.2617500
  21.4625960  58.6936660  13.2828340  36.8319000  57.9254490  16.3951950
  36.6005090  57.6967240  15.4949900  37.0923550  58.8454040  16.3496840
  21.5831140  56.3679200  17.2879900  20.6887190  56.3345960  17.6273610
  22.1228690  56.5665990  18.0531150  35.2707070  53.1510920  19.1731650
  36.1477250  53.1594320  19.5565650  35.2827910  52.4141760  18.5624000
  20.2077290  56.2816470   4.7843470  19.3041370  56.5446670   4.6095130
  20.6917910  56.5527640   4.0043430  36.7170340  57.0040460  10.0619670
  37.2407820  56.5103110   9.4309840  37.3029760  57.1390820  10.8067240
  36.8960060  57.0880330  13.5839220  35.9462770  57.0543870  13.6984210
  37.0773070  57.9980440  13.3488990  22.7504500  55.3382010   2.6937850
  23.4596200  54.9165230   2.2085130  22.0344440  55.4057240   2.0621200
  36.2070310  56.2613810   6.0012080  36.7029430  56.0284680   6.7860960
  36.0086380  55.4225650   5.5849720  22.0870850  50.6427530  11.6363120
  22.7347040  50.0924910  11.1958280  22.5072690  50.8970680  12.4578930
  37.6357470  54.8974760   8.5349760  37.5256750  54.7430800   9.4732030
  38.3965060  54.3695700   8.2925170  35.9823190  50.8368890  14.9932760
  36.6195410  51.4503030  15.3591950  36.1298080  50.8729550  14.0481990
  38.5247740  52.7282680   1.7755900  39.4497050  52.5963860   1.5674190
  38.5023530  52.8075500   2.7292350  38.5986230  53.4993340   4.4012610
  37.8037730  53.4338460   4.9305520  38.8029510  54.4343980   4.3897960
  35.5404650  67.5384890   8.3951000  36.1363720  67.2169460   7.7185420
  35.7982800  67.0656710   9.1864270  21.8402850  50.7983200  14.3788440
  21.4917670  51.2547020  15.1446620  21.5090550  49.9040330  14.4610870
  23.4467220  63.9702800  18.5441630  23.4036850  63.5995710  19.4256090
  23.5778230  64.9080370  18.6843450  27.1473250  65.5262390  14.1451350
  26.9064610  65.7936950  13.2581870  28.0875890  65.6968120  14.2002210
  29.3527670  51.9895080  17.9007860  29.2916560  52.5816910  18.6503270
  30.2928050  51.8821040  17.7558120  31.9902230  51.6465140  17.5400150
  32.6042640  51.9644430  16.8781230  32.5351790  51.1613730  18.1596010
  38.4077410  67.5456770  14.9461990  37.9135690  67.9425640  14.2289120
  37.7990700  66.9205980  15.3399270  22.5123490  50.3259400  17.6539210
  23.0606480  50.1447450  16.8905320  22.5778800  49.5353510  18.1895520
  23.2855250  66.9165050  15.6639410  22.6915570  66.7849750  16.4029450
  23.2779090  66.0803190  15.1981510  32.7310270  50.2097280  13.8669440
  31.8570110  50.5432390  13.6642370  32.6221020  49.7370460  14.6921310
  33.6382250  52.4168150  15.2511160  33.3095610  51.6019910  14.8712890
  34.5864550  52.3737960  15.1276850  36.0916860  68.1880190  12.2248730
  35.6319830  68.9396000  11.8506750  35.4629320  67.4686660  12.1663530
  22.9167480  64.2823430  14.6147450  22.1901540  63.6628720  14.5473400
  22.9776630  64.6764040  13.7445530  26.5212580  66.4968430  11.3996860
  27.0377600  65.8855790  10.8745120  27.1709960  66.9997210  11.8907870
  29.2608080  67.3876920  12.2265840  29.5485890  67.1331220  11.3498850
  29.7731300  66.8354280  12.8171410  30.4785090  51.1267120  12.8062350
  29.6956880  51.6012620  13.0859110  30.1848020  50.2221950  12.6975530
  35.0306160  51.8290220  10.8511440  35.4714250  51.7735320  10.0033040
  34.7613750  52.7448230  10.9221620  36.8944730  51.4605460   8.8620260
  36.8333130  50.5166680   8.7151280  37.6736760  51.5685550   9.4073720
  21.1997480  67.5997820   7.8244210  21.0319520  66.9668500   8.5226100
  20.3331990  67.8057220   7.4738400  21.8225500  51.4314600   5.3276070
  22.5804860  51.5443480   4.7540100  21.3602670  52.2683800   5.2819500
  28.3639310  53.5453870   8.3178380  27.5513820  53.1710760   7.9774260
  28.8680950  52.7898950   8.6199570  32.8664290  50.2096320   9.5561450
  33.4693660  50.7816530  10.0309970  32.1257280  50.7735760   9.3335350
  36.0098890  50.6117880   4.8301730  36.2049520  51.5101330   5.0969160
  35.2228760  50.3804960   5.3234680  22.8060180  66.2931050   5.2694350
  22.2807800  66.6739080   4.5656310  22.7304760  66.9181820   5.9904060
  24.1950650  51.9578650   3.8678040  24.7243410  51.1708450   3.7385990
  24.8278970  52.6369840   4.1013570  26.3888490  51.6953790   6.9223430
  25.7591230  50.9941100   7.0893560  25.8493630  52.4557920   6.7056590
  29.3280440  68.3093020  19.5934040  30.2547750  68.0737290  19.6370000
  29.3130870  69.1365020  19.1120070  37.5625500  67.8518590   6.5908290
  37.7377690  67.1656330   5.9469210  36.8647070  68.3765640   6.1984960
  26.5144050  50.9737770  19.3575920  26.2328320  51.4771370  18.5936740
  26.8963750  50.1759520  18.9918050  25.4053150  68.2413430   4.1443600
  26.1371970  67.9572710   3.5967490  25.6646820  68.0026710   5.0342980
  24.5667940  64.3578160   4.1489930  23.9376820  64.8263260   4.6975760
  24.6815770  63.5127380   4.5836120  33.1159510  50.3891350  19.9356390
  33.0024960  50.7085960  20.8307910  33.9329250  50.7903860  19.6393670
  35.8958000  67.5362880  19.4175080  36.6883320  67.0412110  19.2101040
  36.1891150  68.2153020  20.0250690  32.0217660  39.6340330  46.6221600
  31.9411710  38.7194940  46.3513310  31.6082080  40.1307400  45.9161310
  30.1535700  41.4119350  48.5030870  29.3777800  40.9319790  48.7929440
  30.8048630  40.7325000  48.3287030  24.1701530  41.7239160  49.3806630
  23.3386410  41.4687870  49.7803140  24.7782510  41.7949930  50.1164550
  34.1743130  45.8179540  47.2830000  33.7124660  45.0466780  47.6117170
  34.9868680  45.8445610  47.7882450  24.1502790  45.7579250  49.5764650
  24.4530830  44.8676990  49.3974870  24.8946380  46.3149470  49.3486900
  22.5793480  36.6841050  43.1649020  21.6910180  37.0257020  43.0628900
  22.8634670  36.4841370  42.2729850  20.5426490  39.2846700  49.0488720
  21.1142600  38.5168900  49.0492360  20.5428030  39.5835460  48.1395330
  30.4006440  48.1037550  46.9033990  29.7817880  48.5595050  46.3328430
  31.2558220  48.2589010  46.5023690  29.5944690  44.0876540  48.5101030
  29.5252970  43.1466480  48.3490160  30.3564550  44.1777950  49.0823600
  21.7851360  34.6931060  50.8357650  21.6054200  33.7956810  51.1160410
  21.3831440  35.2402930  51.5104600  30.6249860  36.8946920  48.7369960
  31.0014680  36.0218800  48.6243630  30.5269370  37.2305620  47.8460400
  24.7554870  35.2672550  44.1987400  24.8621620  36.1676280  44.5056160
  23.8447230  35.2190520  43.9082050  34.4073980  34.3897360  45.6698300
  35.2283600  33.8993930  45.7123780  34.4408060  34.9795020  46.4230140
  22.4038030  37.1891560  49.4439990  23.0848140  37.4529930  50.0627390
  22.0886080  36.3492430  49.7778000  26.5962600  38.2358920  48.5312580
  27.1040820  38.7339890  49.1717600  27.1275840  37.4594120  48.3551940
  38.6973530  36.4064110  52.2341930  37.9925700  36.7945820  51.7157040
  38.9631450  37.1014400  52.8362860  24.8798700  32.8757480  52.7976000
  24.8817140  33.3929870  51.9921900  24.0503010  32.3987660  52.7745930
  31.2669790  42.9876790  44.2965900  30.6487060  43.4526240  43.7328620
  31.7793040  43.6804270  44.7135410  26.1301550  42.5152660  50.9749500
  25.7970930  43.1421580  51.6170570  26.3068230  43.0414540  50.1951170
  34.6435460  36.3297740  48.4425840  33.9391030  36.6182630  49.0228950
  35.0047620  37.1397850  48.0825400  24.5614030  34.5867440  50.8046450
  24.9030840  35.4309490  50.5100320  23.6229840  34.7351180  50.9211790
  25.3420650  44.4833460  52.7898680  25.9594650  45.1584540  52.5083130
  24.4813770  44.8921440  52.6986180  20.6352990  43.6733320  41.6705530
  20.2580970  44.1620420  40.9390430  20.8926060  44.3458600  42.3012060
  36.2598240  45.9472870  50.7053320  35.5761760  46.6171980  50.6969990
  36.7992530  46.1453520  49.9398180  37.7122380  35.7752530  48.8335050
  36.7647290  35.8091510  48.9650480  38.0372370  36.5891480  49.2184410
  28.2441920  32.0749710  47.1291040  28.5516900  31.5196600  46.4126540
  27.3142620  32.2094170  46.9464030  33.7956980  47.7917000  49.4198500
  33.8084140  47.3879290  48.5520760  33.2432200  48.5664290  49.3159930
  35.0902400  44.5133220  44.5088670  34.9798730  43.5707550  44.6338090
  35.0870650  44.8748860  45.3951430  33.1942420  42.6946840  50.7481110
  33.6111210  42.4806950  49.9134570  33.9182240  42.9519630  51.3189730
  30.6322680  40.1398540  43.8651160  29.7051960  40.0735920  44.0939630
  30.7847500  41.0778670  43.7506400  37.1404520  41.0934060  50.8397350
  36.3123150  41.1627150  50.3647480  37.7355000  41.6788370  50.3713180
  34.6619970  41.7018840  44.3686410  34.0432390  41.3638390  43.7212710
  34.6444420  41.0578600  45.0765600  34.1046530  37.8803380  51.7852220
  33.6917710  38.7057090  52.0392210  33.3722480  37.2948420  51.5928580
  26.2379320  40.6663280  46.6470890  25.8336320  39.9540530  46.1516790
  26.3242440  40.3216520  47.5358930  26.7061020  44.3530840  48.8110100
  26.4089310  43.7476310  48.1317880  27.6560840  44.3908150  48.6999460
  24.9507940  37.4406490  50.4269930  25.5022530  37.5501830  49.6523180
  25.4651450  37.8144090  51.1425160  34.7946630  47.9262710  52.4733200
  34.3177190  48.7334900  52.2805810  34.1108420  47.2741040  52.6259410
  25.7979450  44.0912530  55.4617900  24.9007980  44.3152500  55.7091300
  25.8232320  44.2147470  54.5129300  32.8384670  40.9405650  41.3759160
  33.2777950  40.1028080  41.2296980  33.5513090  41.5735050  41.4623300
  24.6250670  40.9625850  54.0375270  24.4858440  41.8348650  54.4062670
  23.7432030  40.6198660  53.8923210  30.9480050  45.8801720  45.3440400
  31.3875960  46.6226050  44.9295790  30.8866940  46.1228290  46.2679360
  26.4231020  46.9047550  56.2460420  26.3946450  47.3090500  55.3788850
  26.2595990  45.9757910  56.0832020  36.4201810  32.1948460  39.6900200
  36.1074470  32.2875290  40.5899270  37.1814280  32.7729490  39.6397630
  22.9383950  39.5608260  44.1477540  22.8181550  40.2870350  43.5358810
  22.6284840  38.7911170  43.6705450  20.5769320  42.7323400  49.9546180
  20.6549740  42.8672170  49.0101900  21.1911000  42.0239290  50.1474300
  21.8216950  44.4323590  46.3652360  21.4145030  44.5738180  45.5105960
  22.7129960  44.1483750  46.1623570  37.7779090  44.8787500  54.7024600
  37.9042150  44.6399380  53.7841780  37.8200470  44.0472040  55.1746680
  31.6395830  48.5815500  53.2719410  32.1540500  48.4923510  54.0741840
  30.7964910  48.9275200  53.5647320  33.6150230  48.8670840  42.7003410
  33.4551370  48.5773780  43.5985240  33.4496940  48.0910970  42.1648640
  26.0938610  48.6469370  44.4775030  25.9181090  47.7304910  44.2642830
  25.2394350  49.0056660  44.7172830  33.3176360  46.3758400  41.2601410
  32.6241520  46.3735690  40.6003690  34.0599220  45.9517720  40.8295580
  32.8826290  48.0021110  45.3349900  33.3383240  47.2210490  45.6488520
  33.2218810  48.7127930  45.8791080  37.6303100  36.9319960  55.6674340
  37.0147370  37.4399630  55.1389800  37.3099520  36.0318290  55.6100280
  20.6328840  43.7737570  52.4940640  20.7959880  43.3042930  51.6760010
  21.0981290  43.2661130  53.1589480  25.4047610  32.9043330  47.5301210
  24.9615760  33.6852870  47.1985730  25.9632600  33.2273220  48.2372150
  29.6917420  35.7711850  53.1336530  29.2296790  35.9794870  53.9456470
  29.2895530  34.9571200  52.8307200  34.6921930  36.9920800  54.2633190
  33.8415520  36.6926550  54.5842260  34.5323720  37.2362810  53.3517010
  31.7871640  38.4922550  56.3631980  32.1125050  37.6586300  56.0234210
  32.5751970  39.0151070  56.5110310  27.4423510  33.4490660  49.3890810
  27.7395840  34.3553490  49.3082830  27.9909070  32.9609440  48.7750380
  25.1961830  38.0276900  45.2582460  24.9702750  37.8114070  46.1629080
  24.4154360  38.4605360  44.9128430  32.4259590  38.0340270  43.8573110
  31.8268480  38.7576070  43.6736730  32.9739200  37.9717050  43.0749560
  27.6361040  38.9262480  55.9242730  27.5404640  37.9857210  55.7743130
  28.4793020  39.1477550  55.5290800  31.0324460  36.6703810  45.8876390
  31.4254030  36.9876010  45.0745080  31.3941310  35.7915690  46.0020910
  22.7671580  35.3376150  54.0776510  22.3734970  36.1851360  54.2849290
  22.0789980  34.7002520  54.2685150  20.0688630  33.2604610  48.1106590
  19.7801680  33.8307470  48.8231570  20.8134390  32.7809060  48.4737820
  20.2558860  37.2024730  39.3209310  20.1733530  38.1455490  39.4624300
  19.9041920  37.0599640  38.4421660  31.6179600  39.2609560  49.9827170
  30.8860720  39.7696370  50.3317270  31.2203940  38.4439540  49.6815950
  28.0556990  35.9363760  48.3879660  28.0593050  35.4953710  47.5384200
  28.9508110  36.2581090  48.4951480  23.9059370  35.8190250  47.3473870
  23.5659420  36.2965480  48.1040920  23.1436690  35.3655370  46.9874970
  32.0805510  34.7143240  49.3950110  32.0978250  35.1651890  50.2391960
  31.8321090  33.8148880  49.6083550  27.1298640  39.2476980  40.7769720
  26.5615540  38.7995230  40.1505630  27.8387640  39.6069760  40.2434870
  35.5076260  32.1275420  55.2336490  35.8322030  31.3965080  55.7594470
  35.5432770  31.8089060  54.3317480  22.2067820  43.1489000  54.6536450
  21.8222610  42.5082670  55.2519410  22.5180010  43.8525120  55.2231180
  28.3564960  39.9965540  50.1345070  28.7235090  39.5224110  50.8806410
  28.1670020  40.8707110  50.4753410  21.2205450  34.7409230  46.2638540
  20.9352370  34.3764900  47.1017160  21.1584310  34.0089690  45.6501680
  26.1464330  39.0374180  52.4529280  25.8421400  39.9166160  52.6779640
  27.1010790  39.0973970  52.4886720  24.6746120  43.2435170  43.0496130
  23.9008380  42.7032790  42.8894850  25.4040750  42.7241780  42.7113890
  35.4334100  42.2400530  48.8422520  36.1533220  42.7355820  48.4518630
  35.2315920  41.5618420  48.1976390  30.8152900  42.3109590  54.7291520
  30.7490210  41.3905260  54.4749110  30.1858040  42.4085030  55.4436160
  33.6092430  38.0058140  41.2814070  34.4972050  38.3175370  41.1065410
  33.5797520  37.1330390  40.8894650  24.7183520  42.9115550  46.6874940
  25.2362190  42.1083810  46.6331830  24.2667540  42.8494690  47.5291770
  29.6053020  44.1781830  41.9602240  29.9468720  44.9224060  41.4645560
  28.7765730  44.4912950  42.3227070  22.2028060  39.8776920  53.6000640
  21.8443000  40.5430770  54.1873980  21.9082620  39.0460470  53.9713260
  25.4041180  40.3361160  56.4840190  25.1041320  40.4818340  55.5868010
  26.1752420  39.7766450  56.3913580  30.7469630  45.1330160  54.4795320
  30.7614170  44.2011120  54.2614230  30.0394730  45.2189920  55.1185090
  35.8806700  39.3169980  40.7493930  35.7970420  39.7484200  39.8990370
  36.6000890  39.7768330  41.1820750  36.9580840  41.7737500  53.8263900
  36.2329030  42.3666280  53.6293290  37.4856300  41.7661040  53.0277270
  36.9093950  46.1712240  43.4776060  36.2670110  45.5167860  43.7519780
  36.5224610  46.5767330  42.7016730  32.4880430  43.4997670  47.3247750
  32.8404250  42.9025800  46.6649120  31.6042760  43.1741900  47.4956000
  28.5743710  44.2595360  44.7318160  29.2614840  44.8064570  45.1125750
  27.7876130  44.8036090  44.7667770  20.7136110  39.8768180  40.2235240
  21.5830960  40.1592980  40.5071160  20.2226430  40.6904050  40.1084050
  27.8770920  41.2641390  44.3443520  28.3333700  42.0746640  44.5703710
  27.5259130  40.9464530  45.1762010  30.1803530  46.7747730  51.5735820
  30.8245750  46.9807110  52.2509240  30.5432970  46.0136130  51.1206670
  23.7782700  31.6079040  44.8166040  23.6497330  31.5996940  45.7650960
  22.9544720  31.9462130  44.4657050  31.4535610  44.7780080  50.2913270
  32.0957840  44.0773240  50.4045440  31.9784960  45.5578520  50.1110160
  35.2991330  45.0628700  40.0152410  35.0728910  44.3459140  40.6077050
  34.9087530  44.8141140  39.1774160  33.2273230  45.5774980  53.4949330
  33.5629470  46.1641670  54.1727250  32.3073570  45.4467690  53.7247120
  21.0807360  49.0895560  40.7896870  21.4405000  49.6884900  40.1354140
  20.9399700  49.6355450  41.5631900  20.7776630  33.3670160  54.2772740
  20.0635150  33.5667080  54.8825350  21.1971670  32.5909730  54.6487540
  34.8807580  42.9800640  41.6766570  34.5929280  43.4413330  42.4644450
  35.6759750  42.5198410  41.9450790  21.0649220  47.3550420  55.2639270
  21.1740340  46.4145160  55.1234660  20.4129780  47.6205170  54.6153000
  29.0561810  45.6266310  56.6637390  28.7358680  44.9075550  57.2083080
  28.3820170  46.3021380  56.7373450  27.0975980  46.4726760  41.6070540
  27.0886080  47.2056450  40.9915050  26.1774340  46.2258340  41.6997500
  22.6982620  41.6941650  42.3517300  22.0910570  42.4340550  42.3612600
  23.1731970  41.7841010  41.5255500  32.2715410  35.8592470  52.0274190
  32.6396230  35.0387680  52.3553760  31.4113610  35.9194360  52.4429840
  35.6377440  34.8149410  42.8361750  35.0090600  34.9195080  42.1219980
  35.1429360  35.0346190  43.6255630  30.0835580  46.5355000  40.2695730
  30.1847560  46.3318990  39.3397710  29.1837320  46.2813280  40.4743510
  27.6061470  37.0935360  44.2519630  26.8977620  37.5621700  44.6933240
  27.8905950  36.4357370  44.8864820  29.2317400  38.5132060  52.2512160
  29.7302650  38.9877880  52.9164010  29.3740350  37.5895580  52.4582190
  31.6376900  33.8186020  45.6915420  31.5144680  33.8372150  44.7424930
  32.5861460  33.8664960  45.8113820  28.7253690  49.0541320  44.9643400
  28.9795190  49.0162710  44.0422770  27.7766170  48.9274650  44.9571650
  36.4384260  34.7300020  53.0940550  35.9357860  35.4705420  53.4334360
  37.2540920  35.1184020  52.7777340  34.7306270  39.9733200  46.5401910
  33.7896410  39.9883430  46.7149600  35.0450340  39.1869160  46.9862210
  24.7087910  41.6552800  40.1005870  25.4751180  41.5434160  40.6631300
  24.7862600  40.9590770  39.4482640  23.4034670  39.0877870  40.7838760
  23.4838260  38.1405380  40.8956160  24.2954420  39.4184750  40.8899420
  36.7331850  47.1442050  48.2156170  36.8579270  47.9673220  48.6879980
  37.5997410  46.9332780  47.8680320  24.2049380  49.2373260  47.8873300
  24.9411860  48.6888720  48.1581870  24.5890300  50.1029270  47.7479290
  21.0894860  45.3046830  43.7614810  20.1634640  45.5467970  43.7520220
  21.5551290  46.1321090  43.6399560  27.3151690  48.4103570  39.7098870
  28.1080300  48.6992400  39.2580660  26.7956040  47.9795740  39.0311350
  33.4772660  48.2579490  55.6343700  34.4294410  48.1737510  55.5843940
  33.3300880  48.9221200  56.3077490  36.3681860  47.6373700  41.1335610
  36.0823370  47.2238840  40.3189790  36.1701410  48.5661410  41.0136130
  20.9305470  40.9092790  56.0194930  21.4344490  40.3300070  56.5911160
  20.1912890  41.1933020  56.5571300  27.8329090  43.6306980  39.5741220
  27.7279730  43.0159330  40.3002600  27.6653310  43.1072870  38.7904230
  27.9843410  42.3163780  55.5530450  27.2189080  42.8848780  55.4685120
  28.1659370  42.0239990  54.6598680  31.0731820  42.6927010  40.1783210
  30.5241920  43.1396310  40.8225950  31.6951080  42.1876260  40.7020880
  35.1266760  44.0469110  56.1105470  35.8676230  44.3844870  55.6072930
  34.3639440  44.2161170  55.5575240  26.7406940  41.6517930  42.0748510
  27.1623360  41.4857800  42.9179900  26.8657780  40.8418160  41.5803650
  24.9034360  37.6314480  54.8819490  24.3730820  37.1405430  54.2542830
  25.5722430  38.0598680  54.3477420  29.2534580  40.6755540  39.3225610
  29.7740240  39.9604560  38.9566760  29.9002980  41.3141410  39.6226120
  33.8012420  42.0983940  54.6460680  34.2153440  42.2529020  55.4951100
  32.8663420  42.2239160  54.8086460  34.2734590  39.4380100  56.6499830
  34.8555360  38.6832420  56.5620310  34.4496360  39.9687540  55.8731310
  25.3906660  34.5976850  54.9616780  25.2963530  33.9797600  54.2367650
  24.8104050  35.3243140  54.7346690  28.1568100  33.1550090  51.9944170
  27.7085400  33.1774350  51.1489720  27.5233300  32.7569110  52.5914470
  28.5627650  42.0504420  52.6156610  28.9815760  42.8937150  52.4432850
  27.6436280  42.1876460  52.3863390  30.8991550  39.7820600  53.9994450
  31.0187760  39.1861740  54.7389290  31.7585550  39.8190290  53.5795750
  33.2379450  40.3357790  52.5756960  32.7114670  40.8600410  51.9722100
  33.5810790  40.9685180  53.2066690  26.4135070  48.3557430  53.7314340
  25.8756160  49.0803490  53.4123040  26.6669030  47.8787770  52.9411680
  27.6660320  36.3241950  55.2570270  28.2560010  36.0157800  55.9448090
  26.8480560  35.8521700  55.4130170  32.4853750  35.9407760  55.4903290
  31.7969270  35.2789300  55.4253280  33.2059770  35.4946030  55.9351750
  29.2697280  49.5908640  53.9900990  29.1955980  50.4943780  54.2973360
  28.3676120  49.2720540  53.9623060  29.8182610  48.7567150  41.6127350
  30.7133400  49.0952120  41.6346110  29.8500240  48.0346560  40.9851630
  23.4578770  44.1294200  39.8414350  23.8953640  44.6723870  40.4971930
  23.9426500  43.3041150  39.8510690  20.6724570  46.9183230  47.2934610
  21.0027580  46.0504290  47.0613250  21.1015570  47.1241750  48.1239570
  25.2686490  45.2492240  44.9536580  24.9682030  45.1257210  45.8540490
  25.1623980  44.3900830  44.5452310  21.1614780  47.7853820  50.0316240
  20.7245770  47.9654620  50.8640390  21.7292460  48.5428440  49.8897960
  36.7976960  47.2870820  54.3193550  36.1978950  47.3463380  53.5757470
  36.9270860  46.3475800  54.4490400  38.0378410  45.0288640  39.6563260
  37.2071370  45.0965290  40.1270490  38.2150240  45.9192760  39.3530120
  37.4934870  41.7736120  42.1597460  38.2553780  42.3432770  42.2657150
  37.5089240  41.2063320  42.9305770  20.9939210  40.2974050  46.3905120
  20.3388050  40.0285690  45.7464820  21.8317160  40.1878530  45.9407100
  38.4994840  42.6286220  47.0039390  38.8703670  41.8453540  46.5975360
  39.1396770  43.3175320  46.8256690  35.4828600  44.0122800  52.4169710
  34.6688440  44.4419960  52.6795500  35.8902800  44.6241210  51.8038760
  37.5454040  42.0670490  39.3169980  37.8202880  42.9749370  39.1889200
  37.3564780  42.0033020  40.2531970  33.9429650  35.0915340  40.6123610
  34.3614530  34.9046320  39.7720270  33.6365710  34.2394390  40.9226540
  37.4419380  40.0039480  44.3099410  37.0662980  39.2367410  43.8780700
  36.7122500  40.3862180  44.7974340  22.0315140  40.6826620  50.9308460
  22.3988180  40.5954020  51.8104480  21.4625960  39.9193170  50.8315320
  36.8319000  39.1511000  53.9438930  36.6005090  38.9223750  53.0436880
  37.0923550  40.0710550  53.8983820  21.5831140  37.5935710  54.8366880
  20.6887190  37.5602470  55.1760590  22.1228690  37.7922500  55.6018130
  35.2707070  34.3767430  56.7218630  36.1477250  34.3850830  57.1052630
  35.2827910  33.6398270  56.1110980  20.2077290  37.5072980  42.3330450
  19.3041370  37.7703180  42.1582110  20.6917910  37.7784150  41.5530410
  36.7170340  38.2296970  47.6106650  37.2407820  37.7359620  46.9796820
  37.3029760  38.3647330  48.3554220  36.8960060  38.3136840  51.1326200
  35.9462770  38.2800380  51.2471190  37.0773070  39.2236950  50.8975970
  22.7504500  36.5638520  40.2424830  23.4596200  36.1421740  39.7572110
  22.0344440  36.6313750  39.6108180  36.2070310  37.4870320  43.5499060
  36.7029430  37.2541190  44.3347940  36.0086380  36.6482160  43.1336700
  22.0870850  31.8684040  49.1850100  22.7347040  31.3181420  48.7445260
  22.5072690  32.1227190  50.0065910  37.6357470  36.1231270  46.0836740
  37.5256750  35.9687310  47.0219010  38.3965060  35.5952210  45.8412150
  35.9823190  32.0625400  52.5419740  36.6195410  32.6759540  52.9078930
  36.1298080  32.0986060  51.5968970  38.5247740  33.9539190  39.3242880
  39.4497050  33.8220370  39.1161170  38.5023530  34.0332010  40.2779330
  38.5986230  34.7249850  41.9499590  37.8037730  34.6594970  42.4792500
  38.8029510  35.6600490  41.9384940  35.5404650  48.7641400  45.9437980
  36.1363720  48.4425970  45.2672400  35.7982800  48.2913220  46.7351250
  21.8402850  32.0239710  51.9275420  21.4917670  32.4803530  52.6933600
  21.5090550  31.1296840  52.0097850  23.4467220  45.1959310  56.0928610
  23.4036850  44.8252220  56.9743070  23.5778230  46.1336880  56.2330430
  27.1473250  46.7518900  51.6938330  26.9064610  47.0193460  50.8068850
  28.0875890  46.9224630  51.7489190  29.3527670  33.2151590  55.4494840
  29.2916560  33.8073420  56.1990250  30.2928050  33.1077550  55.3045100
  31.9902230  32.8721650  55.0887130  32.6042640  33.1900940  54.4268210
  32.5351790  32.3870240  55.7082990  38.4077410  48.7713280  52.4948970
  37.9135690  49.1682150  51.7776100  37.7990700  48.1462490  52.8886250
  22.5123490  31.5515910  55.2026190  23.0606480  31.3703960  54.4392300
  22.5778800  30.7610020  55.7382500  23.2855250  48.1421560  53.2126390
  22.6915570  48.0106260  53.9516430  23.2779090  47.3059700  52.7468490
  32.7310270  31.4353790  51.4156420  31.8570110  31.7688900  51.2129350
  32.6221020  30.9626970  52.2408290  33.6382250  33.6424660  52.7998140
  33.3095610  32.8276420  52.4199870  34.5864550  33.5994470  52.6763830
  36.0916860  49.4136700  49.7735710  35.6319830  50.1652510  49.3993730
  35.4629320  48.6943170  49.7150510  22.9167480  45.5079940  52.1634430
  22.1901540  44.8885230  52.0960380  22.9776630  45.9020550  51.2932510
  26.5212580  47.7224940  48.9483840  27.0377600  47.1112300  48.4232100
  27.1709960  48.2253720  49.4394850  29.2608080  48.6133430  49.7752820
  29.5485890  48.3587730  48.8985830  29.7731300  48.0610790  50.3658390
  30.4785090  32.3523630  50.3549330  29.6956880  32.8269130  50.6346090
  30.1848020  31.4478460  50.2462510  35.0306160  33.0546730  48.3998420
  35.4714250  32.9991830  47.5520020  34.7613750  33.9704740  48.4708600
  36.8944730  32.6861970  46.4107240  36.8333130  31.7423190  46.2638260
  37.6736760  32.7942060  46.9560700  21.1997480  48.8254330  45.3731190
  21.0319520  48.1925010  46.0713080  20.3331990  49.0313730  45.0225380
  21.8225500  32.6571110  42.8763050  22.5804860  32.7699990  42.3027080
  21.3602670  33.4940310  42.8306480  28.3639310  34.7710380  45.8665360
  27.5513820  34.3967270  45.5261240  28.8680950  34.0155460  46.1686550
  32.8664290  31.4352830  47.1048430  33.4693660  32.0073040  47.5796950
  32.1257280  31.9992270  46.8822330  36.0098890  31.8374390  42.3788710
  36.2049520  32.7357840  42.6456140  35.2228760  31.6061470  42.8721660
  22.8060180  47.5187560  42.8181330  22.2807800  47.8995590  42.1143290
  22.7304760  48.1438330  43.5391040  26.3888490  32.9210300  44.4710410
  25.7591230  32.2197610  44.6380540  25.8493630  33.6814430  44.2543570
  29.3280440  49.5349530  57.1421020  30.2547750  49.2993800  57.1856980
  29.3130870  50.3621530  56.6607050  37.5625500  49.0775100  44.1395270
  37.7377690  48.3912840  43.4956190  36.8647070  49.6022150  43.7471940
  26.5144050  32.1994280  56.9062900  26.2328320  32.7027880  56.1423720
  26.8963750  31.4016030  56.5405030  25.4053150  49.4669940  41.6930580
  26.1371970  49.1829220  41.1454470  25.6646820  49.2283220  42.5829960
  24.5667940  45.5834670  41.6976910  23.9376820  46.0519770  42.2462740
  24.6815770  44.7383890  42.1323100  32.0217660  39.6340330  27.8478110
  31.9411710  38.7194940  27.5769820  31.6082080  40.1307400  27.1417820
  21.7851360  34.6931060  32.0614160  21.6054200  33.7956810  32.3416920
  21.3831440  35.2402930  32.7361110  34.4073980  34.3897360  26.8954810
  35.2283600  33.8993930  26.9380290  34.4408060  34.9795020  27.6486650
  31.2669790  42.9876790  25.5222410  30.6487060  43.4526240  24.9585130
  31.7793040  43.6804270  25.9391920  36.2598240  45.9472870  31.9309830
  35.5761760  46.6171980  31.9226500  36.7992530  46.1453520  31.1654690
  35.0902400  44.5133220  25.7345180  34.9798730  43.5707550  25.8594600
  35.0870650  44.8748860  26.6207940  33.1942420  42.6946840  31.9737620
  33.6111210  42.4806950  31.1391080  33.9182240  42.9519630  32.5446240
  30.6322680  40.1398540  25.0907670  29.7051960  40.0735920  25.3196140
  30.7847500  41.0778670  24.9762910  37.1404520  41.0934060  32.0653860
  36.3123150  41.1627150  31.5903990  37.7355000  41.6788370  31.5969690
  34.6619970  41.7018840  25.5942920  34.0432390  41.3638390  24.9469220
  34.6444420  41.0578600  26.3022110  34.1046530  37.8803380  33.0108730
  33.6917710  38.7057090  33.2648720  33.3722480  37.2948420  32.8185090
  34.7946630  47.9262710  33.6989710  34.3177190  48.7334900  33.5062320
  34.1108420  47.2741040  33.8515920  25.7979450  44.0912530  36.6874410
  24.9007980  44.3152500  36.9347810  25.8232320  44.2147470  35.7385810
  32.8384670  40.9405650  22.6015670  33.2777950  40.1028080  22.4553490
  33.5513090  41.5735050  22.6879810  24.6250670  40.9625850  35.2631780
  24.4858440  41.8348650  35.6319180  23.7432030  40.6198660  35.1179720
  26.4231020  46.9047550  37.4716930  26.3946450  47.3090500  36.6045360
  26.2595990  45.9757910  37.3088530  36.4201810  32.1948460  20.9156710
  36.1074470  32.2875290  21.8155780  37.1814280  32.7729490  20.8654140
  38.3745840  47.6874650  38.7681100  38.8505560  48.1657540  39.4470180
  38.9953000  47.6192140  38.0426600  37.7779090  44.8787500  35.9281110
  37.9042150  44.6399380  35.0098290  37.8200470  44.0472040  36.4003190
  31.6395830  48.5815500  34.4975920  32.1540500  48.4923510  35.2998350
  30.7964910  48.9275200  34.7903830  33.6150230  48.8670840  23.9259920
  33.4551370  48.5773780  24.8241750  33.4496940  48.0910970  23.3905150
  33.3176360  46.3758400  22.4857920  32.6241520  46.3735690  21.8260200
  34.0599220  45.9517720  22.0552090  34.6921930  36.9920800  35.4889700
  33.8415520  36.6926550  35.8098770  34.5323720  37.2362810  34.5773520
  31.7871640  38.4922550  37.5888490  32.1125050  37.6586300  37.2490720
  32.5751970  39.0151070  37.7366820  32.4259590  38.0340270  25.0829620
  31.8268480  38.7576070  24.8993240  32.9739200  37.9717050  24.3006070
  27.6361040  38.9262480  37.1499240  27.5404640  37.9857210  36.9999640
  28.4793020  39.1477550  36.7547310  22.7671580  35.3376150  35.3033020
  22.3734970  36.1851360  35.5105800  22.0789980  34.7002520  35.4941660
  20.2558860  37.2024730  20.5465820  20.1733530  38.1455490  20.6880810
  19.9041920  37.0599640  19.6678170  22.2067820  43.1489000  35.8792960
  21.8222610  42.5082670  36.4775920  22.5180010  43.8525120  36.4487690
  26.1464330  39.0374180  33.6785790  25.8421400  39.9166160  33.9036150
  27.1010790  39.0973970  33.7143230  35.4334100  42.2400530  30.0679030
  36.1533220  42.7355820  29.6775140  35.2315920  41.5618420  29.4232900
  30.8944040  33.6338490  24.2108420  30.0808650  33.1351660  24.1353730
  30.7005990  34.4736740  23.7944770  30.8152900  42.3109590  35.9548030
  30.7490210  41.3905260  35.7005620  30.1858040  42.4085030  36.6692670
  33.6092430  38.0058140  22.5070580  34.4972050  38.3175370  22.3321920
  33.5797520  37.1330390  22.1151160  22.2028060  39.8776920  34.8257150
  21.8443000  40.5430770  35.4130490  21.9082620  39.0460470  35.1969770
  25.4041180  40.3361160  37.7096700  25.1041320  40.4818340  36.8124520
  26.1752420  39.7766450  37.6170090  30.7469630  45.1330160  35.7051830
  30.7614170  44.2011120  35.4870740  30.0394730  45.2189920  36.3441600
  35.8806700  39.3169980  21.9750440  35.7970420  39.7484200  21.1246880
  36.6000890  39.7768330  22.4077260  36.9580840  41.7737500  35.0520410
  36.2329030  42.3666280  34.8549800  37.4856300  41.7661040  34.2533780
  36.9093950  46.1712240  24.7032570  36.2670110  45.5167860  24.9776290
  36.5224610  46.5767330  23.9273240  32.4880430  43.4997670  28.5504260
  32.8404250  42.9025800  27.8905630  31.6042760  43.1741900  28.7212510
  20.7136110  39.8768180  21.4491750  21.5830960  40.1592980  21.7327670
  20.2226430  40.6904050  21.3340560  30.1803530  46.7747730  32.7992330
  30.8245750  46.9807110  33.4765750  30.5432970  46.0136130  32.3463180
  31.4535610  44.7780080  31.5169780  32.0957840  44.0773240  31.6301950
  31.9784960  45.5578520  31.3366670  35.2991330  45.0628700  21.2408920
  35.0728910  44.3459140  21.8333560  34.9087530  44.8141140  20.4030670
  33.2273230  45.5774980  34.7205840  33.5629470  46.1641670  35.3983760
  32.3073570  45.4467690  34.9503630  21.0807360  49.0895560  22.0153380
  21.4405000  49.6884900  21.3610650  20.9399700  49.6355450  22.7888410
  20.7776630  33.3670160  35.5029250  20.0635150  33.5667080  36.1081860
  21.1971670  32.5909730  35.8744050  34.8807580  42.9800640  22.9023080
  34.5929280  43.4413330  23.6900960  35.6759750  42.5198410  23.1707300
  29.0561810  45.6266310  37.8893900  28.7358680  44.9075550  38.4339590
  28.3820170  46.3021380  37.9629960  35.6377440  34.8149410  24.0618260
  35.0090600  34.9195080  23.3476490  35.1429360  35.0346190  24.8512140
  30.0835580  46.5355000  21.4952240  30.1847560  46.3318990  20.5654220
  29.1837320  46.2813280  21.7000020  34.7306270  39.9733200  27.7658420
  33.7896410  39.9883430  27.9406110  35.0450340  39.1869160  28.2118720
  36.7331850  47.1442050  29.4412680  36.8579270  47.9673220  29.9136490
  37.5997410  46.9332780  29.0936830  23.2107660  48.4219330  38.3015390
  24.0120390  48.7431380  38.7150790  22.6959480  48.0614910  39.0235300
  27.3151690  48.4103570  20.9355380  28.1080300  48.6992400  20.4837170
  26.7956040  47.9795740  20.2567860  32.0472290  44.5299200  38.2490800
  31.4410450  44.5530800  37.5086550  31.7426400  43.7982240  38.7858050
  33.4772660  48.2579490  36.8600210  34.4294410  48.1737510  36.8100450
  33.3300880  48.9221200  37.5334000  36.3681860  47.6373700  22.3592120
  36.0823370  47.2238840  21.5446300  36.1701410  48.5661410  22.2392640
  20.9305470  40.9092790  37.2451440  21.4344490  40.3300070  37.8167670
  20.1912890  41.1933020  37.7827810  27.9843410  42.3163780  36.7786960
  27.2189080  42.8848780  36.6941630  28.1659370  42.0239990  35.8855190
  35.1266760  44.0469110  37.3361980  35.8676230  44.3844870  36.8329440
  34.3639440  44.2161170  36.7831750  22.9628550  39.0522380  38.1401510
  23.0033890  38.7536250  39.0486740  23.8174050  39.4529990  37.9809030
  33.8012420  42.0983940  35.8717190  34.2153440  42.2529020  36.7207610
  32.8663420  42.2239160  36.0342970  34.2734590  39.4380100  37.8756340
  34.8555360  38.6832420  37.7876820  34.4496360  39.9687540  37.0987820
  28.5627650  42.0504420  33.8413120  28.9815760  42.8937150  33.6689360
  27.6436280  42.1876460  33.6119900  30.8991550  39.7820600  35.2250960
  31.0187760  39.1861740  35.9645800  31.7585550  39.8190290  34.8052260
  33.2379450  40.3357790  33.8013470  32.7114670  40.8600410  33.1978610
  33.5810790  40.9685180  34.4323200  32.4853750  35.9407760  36.7159800
  31.7969270  35.2789300  36.6509790  33.2059770  35.4946030  37.1608260
  33.1154150  32.5359390  22.7750060  33.3956440  31.6927290  23.1309480
  32.3419880  32.7682500  23.2888810  29.2697280  49.5908640  35.2157500
  29.1955980  50.4943780  35.5229870  28.3676120  49.2720540  35.1879570
  36.7976960  47.2870820  35.5450060  36.1978950  47.3463380  34.8013980
  36.9270860  46.3475800  35.6746910  38.0378410  45.0288640  20.8819770
  37.2071370  45.0965290  21.3527000  38.2150240  45.9192760  20.5786630
  37.4934870  41.7736120  23.3853970  38.2553780  42.3432770  23.4913660
  37.5089240  41.2063320  24.1562280  38.4994840  42.6286220  28.2295900
  38.8703670  41.8453540  27.8231870  39.1396770  43.3175320  28.0513200
  35.4828600  44.0122800  33.6426220  34.6688440  44.4419960  33.9052010
  35.8902800  44.6241210  33.0295270  37.5454040  42.0670490  20.5426490
  37.8202880  42.9749370  20.4145710  37.3564780  42.0033020  21.4788480
  33.9429650  35.0915340  21.8380120  34.3614530  34.9046320  20.9976780
  33.6365710  34.2394390  22.1483050  37.4419380  40.0039480  25.5355920
  37.0662980  39.2367410  25.1037210  36.7122500  40.3862180  26.0230850
  36.8319000  39.1511000  35.1695440  36.6005090  38.9223750  34.2693390
  37.0923550  40.0710550  35.1240330  21.5831140  37.5935710  36.0623390
  20.6887190  37.5602470  36.4017100  22.1228690  37.7922500  36.8274640
  35.2707070  34.3767430  37.9475140  36.1477250  34.3850830  38.3309140
  35.2827910  33.6398270  37.3367490  20.2077290  37.5072980  23.5586960
  19.3041370  37.7703180  23.3838620  20.6917910  37.7784150  22.7786920
  36.7170340  38.2296970  28.8363160  37.2407820  37.7359620  28.2053330
  37.3029760  38.3647330  29.5810730  36.8960060  38.3136840  32.3582710
  35.9462770  38.2800380  32.4727700  37.0773070  39.2236950  32.1232480
  36.2070310  37.4870320  24.7755570  36.7029430  37.2541190  25.5604450
  36.0086380  36.6482160  24.3593210  37.6357470  36.1231270  27.3093250
  37.5256750  35.9687310  28.2475520  38.3965060  35.5952210  27.0668660
  38.5247740  33.9539190  20.5499390  39.4497050  33.8220370  20.3417680
  38.5023530  34.0332010  21.5035840  38.5986230  34.7249850  23.1756100
  37.8037730  34.6594970  23.7049010  38.8029510  35.6600490  23.1641450
  23.4467220  45.1959310  37.3185120  23.4036850  44.8252220  38.1999580
  23.5778230  46.1336880  37.4586940  38.4077410  48.7713280  33.7205480
  37.9135690  49.1682150  33.0032610  37.7990700  48.1462490  34.1142760
  36.0916860  49.4136700  30.9992220  35.6319830  50.1652510  30.6250240
  35.4629320  48.6943170  30.9407020  36.8944730  32.6861970  27.6363750
  36.8333130  31.7423190  27.4894770  37.6736760  32.7942060  28.1817210
  21.1997480  48.8254330  26.5987700  21.0319520  48.1925010  27.2969590
  20.3331990  49.0313730  26.2481890  36.0098890  31.8374390  23.6045220
  36.2049520  32.7357840  23.8712650  35.2228760  31.6061470  24.0978170
  29.3280440  49.5349530  38.3677530  30.2547750  49.2993800  38.4113490
  29.3130870  50.3621530  37.8863560  37.5625500  49.0775100  25.3651780
  37.7377690  48.3912840  24.7212700  36.8647070  49.6022150  24.9728450
  35.8958000  48.7619390  38.1918570  36.6883320  48.2668620  37.9844530
  36.1891150  49.4409530  38.7994180  32.0217660  39.6340330   9.0734620
  31.9411710  38.7194940   8.8026330  31.6082080  40.1307400   8.3674330
  30.1535700  41.4119350  10.9543890  29.3777800  40.9319790  11.2442460
  30.8048630  40.7325000  10.7800050  24.1701530  41.7239160  11.8319650
  23.3386410  41.4687870  12.2316160  24.7782510  41.7949930  12.5677570
  34.1743130  45.8179540   9.7343020  33.7124660  45.0466780  10.0630190
  34.9868680  45.8445610  10.2395470  24.1502790  45.7579250  12.0277670
  24.4530830  44.8676990  11.8487890  24.8946380  46.3149470  11.7999920
  22.5793480  36.6841050   5.6162040  21.6910180  37.0257020   5.5141920
  22.8634670  36.4841370   4.7242870  20.5426490  39.2846700  11.5001740
  21.1142600  38.5168900  11.5005380  20.5428030  39.5835460  10.5908350
  30.4006440  48.1037550   9.3547010  29.7817880  48.5595050   8.7841450
  31.2558220  48.2589010   8.9536710  29.5944690  44.0876540  10.9614050
  29.5252970  43.1466480  10.8003180  30.3564550  44.1777950  11.5336620
  21.7851360  34.6931060  13.2870670  21.6054200  33.7956810  13.5673430
  21.3831440  35.2402930  13.9617620  30.6249860  36.8946920  11.1882980
  31.0014680  36.0218800  11.0756650  30.5269370  37.2305620  10.2973420
  24.7554870  35.2672550   6.6500420  24.8621620  36.1676280   6.9569180
  23.8447230  35.2190520   6.3595070  34.4073980  34.3897360   8.1211320
  35.2283600  33.8993930   8.1636800  34.4408060  34.9795020   8.8743160
  22.4038030  37.1891560  11.8953010  23.0848140  37.4529930  12.5140410
  22.0886080  36.3492430  12.2291020  26.5962600  38.2358920  10.9825600
  27.1040820  38.7339890  11.6230620  27.1275840  37.4594120  10.8064960
  38.6973530  36.4064110  14.6854950  37.9925700  36.7945820  14.1670060
  38.9631450  37.1014400  15.2875880  24.8798700  32.8757480  15.2489020
  24.8817140  33.3929870  14.4434920  24.0503010  32.3987660  15.2258950
  31.2669790  42.9876790   6.7478920  30.6487060  43.4526240   6.1841640
  31.7793040  43.6804270   7.1648430  26.1301550  42.5152660  13.4262520
  25.7970930  43.1421580  14.0683590  26.3068230  43.0414540  12.6464190
  34.6435460  36.3297740  10.8938860  33.9391030  36.6182630  11.4741970
  35.0047620  37.1397850  10.5338420  24.5614030  34.5867440  13.2559470
  24.9030840  35.4309490  12.9613340  23.6229840  34.7351180  13.3724810
  25.3420650  44.4833460  15.2411700  25.9594650  45.1584540  14.9596150
  24.4813770  44.8921440  15.1499200  20.6352990  43.6733320   4.1218550
  20.2580970  44.1620420   3.3903450  20.8926060  44.3458600   4.7525080
  36.2598240  45.9472870  13.1566340  35.5761760  46.6171980  13.1483010
  36.7992530  46.1453520  12.3911200  37.7122380  35.7752530  11.2848070
  36.7647290  35.8091510  11.4163500  38.0372370  36.5891480  11.6697430
  28.2441920  32.0749710   9.5804060  28.5516900  31.5196600   8.8639560
  27.3142620  32.2094170   9.3977050  33.7956980  47.7917000  11.8711520
  33.8084140  47.3879290  11.0033780  33.2432200  48.5664290  11.7672950
  35.0902400  44.5133220   6.9601690  34.9798730  43.5707550   7.0851110
  35.0870650  44.8748860   7.8464450  33.1942420  42.6946840  13.1994130
  33.6111210  42.4806950  12.3647590  33.9182240  42.9519630  13.7702750
  30.6322680  40.1398540   6.3164180  29.7051960  40.0735920   6.5452650
  30.7847500  41.0778670   6.2019420  30.6191760  36.4115540   3.3131340
  29.6795430  36.5729500   3.3983800  30.9375020  37.1301220   2.7667330
  37.1404520  41.0934060  13.2910370  36.3123150  41.1627150  12.8160500
  37.7355000  41.6788370  12.8226200  34.6619970  41.7018840   6.8199430
  34.0432390  41.3638390   6.1725730  34.6444420  41.0578600   7.5278620
  34.1046530  37.8803380  14.2365240  33.6917710  38.7057090  14.4905230
  33.3722480  37.2948420  14.0441600  26.2379320  40.6663280   9.0983910
  25.8336320  39.9540530   8.6029810  26.3242440  40.3216520   9.9871950
  26.7061020  44.3530840  11.2623120  26.4089310  43.7476310  10.5830900
  27.6560840  44.3908150  11.1512480  24.9507940  37.4406490  12.8782950
  25.5022530  37.5501830  12.1036200  25.4651450  37.8144090  13.5938180
  34.7946630  47.9262710  14.9246220  34.3177190  48.7334900  14.7318830
  34.1108420  47.2741040  15.0772430  25.7979450  44.0912530  17.9130920
  24.9007980  44.3152500  18.1604320  25.8232320  44.2147470  16.9642320
  32.8384670  40.9405650   3.8272180  33.2777950  40.1028080   3.6810000
  33.5513090  41.5735050   3.9136320  24.6250670  40.9625850  16.4888290
  24.4858440  41.8348650  16.8575690  23.7432030  40.6198660  16.3436230
  30.9480050  45.8801720   7.7953420  31.3875960  46.6226050   7.3808810
  30.8866940  46.1228290   8.7192380  26.4231020  46.9047550  18.6973440
  26.3946450  47.3090500  17.8301870  26.2595990  45.9757910  18.5345040
  36.4201810  32.1948460   2.1413220  36.1074470  32.2875290   3.0412290
  37.1814280  32.7729490   2.0910650  22.9383950  39.5608260   6.5990560
  22.8181550  40.2870350   5.9871830  22.6284840  38.7911170   6.1218470
  38.3745840  47.6874650  19.9937610  38.8505560  48.1657540  20.6726690
  38.9953000  47.6192140  19.2683110  20.5769320  42.7323400  12.4059200
  20.6549740  42.8672170  11.4614920  21.1911000  42.0239290  12.5987320
  21.8216950  44.4323590   8.8165380  21.4145030  44.5738180   7.9618980
  22.7129960  44.1483750   8.6136590  37.7779090  44.8787500  17.1537620
  37.9042150  44.6399380  16.2354800  37.8200470  44.0472040  17.6259700
  31.6395830  48.5815500  15.7232430  32.1540500  48.4923510  16.5254860
  30.7964910  48.9275200  16.0160340  33.6150230  48.8670840   5.1516430
  33.4551370  48.5773780   6.0498260  33.4496940  48.0910970   4.6161660
  26.0938610  48.6469370   6.9288050  25.9181090  47.7304910   6.7155850
  25.2394350  49.0056660   7.1685850  33.3176360  46.3758400   3.7114430
  32.6241520  46.3735690   3.0516710  34.0599220  45.9517720   3.2808600
  32.8826290  48.0021110   7.7862920  33.3383240  47.2210490   8.1001540
  33.2218810  48.7127930   8.3304100  37.6303100  36.9319960  18.1187360
  37.0147370  37.4399630  17.5902820  37.3099520  36.0318290  18.0613300
  20.6328840  43.7737570  14.9453660  20.7959880  43.3042930  14.1273030
  21.0981290  43.2661130  15.6102500  25.4047610  32.9043330   9.9814230
  24.9615760  33.6852870   9.6498750  25.9632600  33.2273220  10.6885170
  29.6917420  35.7711850  15.5849550  29.2296790  35.9794870  16.3969490
  29.2895530  34.9571200  15.2820220  34.6921930  36.9920800  16.7146210
  33.8415520  36.6926550  17.0355280  34.5323720  37.2362810  15.8030030
  28.5206430  32.5254030   4.8620060  27.8960610  32.5213900   5.5873370
  28.4336550  31.6584990   4.4656030  27.4423510  33.4490660  11.8403830
  27.7395840  34.3553490  11.7595850  27.9909070  32.9609440  11.2263400
  25.1961830  38.0276900   7.7095480  24.9702750  37.8114070   8.6142100
  24.4154360  38.4605360   7.3641450  32.4259590  38.0340270   6.3086130
  31.8268480  38.7576070   6.1249750  32.9739200  37.9717050   5.5262580
  31.0324460  36.6703810   8.3389410  31.4254030  36.9876010   7.5258100
  31.3941310  35.7915690   8.4533930  22.7671580  35.3376150  16.5289530
  22.3734970  36.1851360  16.7362310  22.0789980  34.7002520  16.7198170
  20.0688630  33.2604610  10.5619610  19.7801680  33.8307470  11.2744590
  20.8134390  32.7809060  10.9250840  31.6179600  39.2609560  12.4340190
  30.8860720  39.7696370  12.7830290  31.2203940  38.4439540  12.1328970
  28.0556990  35.9363760  10.8392680  28.0593050  35.4953710   9.9897220
  28.9508110  36.2581090  10.9464500  23.9059370  35.8190250   9.7986890
  23.5659420  36.2965480  10.5553940  23.1436690  35.3655370   9.4387990
  28.1177140  36.9375840   3.8299440  28.2389960  36.8962320   4.7785260
  27.7325650  37.7999990   3.6746170  32.0805510  34.7143240  11.8463130
  32.0978250  35.1651890  12.6904980  31.8321090  33.8148880  12.0596570
  27.1298640  39.2476980   3.2282740  26.5615540  38.7995230   2.6018650
  27.8387640  39.6069760   2.6947890  35.5076260  32.1275420  17.6849510
  35.8322030  31.3965080  18.2107490  35.5432770  31.8089060  16.7830500
  22.2067820  43.1489000  17.1049470  21.8222610  42.5082670  17.7032430
  22.5180010  43.8525120  17.6744200  28.3564960  39.9965540  12.5858090
  28.7235090  39.5224110  13.3319430  28.1670020  40.8707110  12.9266430
  21.2205450  34.7409230   8.7151560  20.9352370  34.3764900   9.5530180
  21.1584310  34.0089690   8.1014700  26.1464330  39.0374180  14.9042300
  25.8421400  39.9166160  15.1292660  27.1010790  39.0973970  14.9399740
  24.6746120  43.2435170   5.5009150  23.9008380  42.7032790   5.3407870
  25.4040750  42.7241780   5.1626910  35.4334100  42.2400530  11.2935540
  36.1533220  42.7355820  10.9031650  35.2315920  41.5618420  10.6489410
  30.8944040  33.6338490   5.4364930  30.0808650  33.1351660   5.3610240
  30.7005990  34.4736740   5.0201280  30.8152900  42.3109590  17.1804540
  30.7490210  41.3905260  16.9262130  30.1858040  42.4085030  17.8949180
  33.6092430  38.0058140   3.7327090  34.4972050  38.3175370   3.5578430
  33.5797520  37.1330390   3.3407670  24.7183520  42.9115550   9.1387960
  25.2362190  42.1083810   9.0844850  24.2667540  42.8494690   9.9804790
  29.6053020  44.1781830   4.4115260  29.9468720  44.9224060   3.9158580
  28.7765730  44.4912950   4.7740090  22.2028060  39.8776920  16.0513660
  21.8443000  40.5430770  16.6387000  21.9082620  39.0460470  16.4226280
  30.7469630  45.1330160  16.9308340  30.7614170  44.2011120  16.7127250
  30.0394730  45.2189920  17.5698110  35.8806700  39.3169980   3.2006950
  35.7970420  39.7484200   2.3503390  36.6000890  39.7768330   3.6333770
  36.9580840  41.7737500  16.2776920  36.2329030  42.3666280  16.0806310
  37.4856300  41.7661040  15.4790290  36.9093950  46.1712240   5.9289080
  36.2670110  45.5167860   6.2032800  36.5224610  46.5767330   5.1529750
  32.4880430  43.4997670   9.7760770  32.8404250  42.9025800   9.1162140
  31.6042760  43.1741900   9.9469020  28.5743710  44.2595360   7.1831180
  29.2614840  44.8064570   7.5638770  27.7876130  44.8036090   7.2180790
  20.7136110  39.8768180   2.6748260  21.5830960  40.1592980   2.9584180
  20.2226430  40.6904050   2.5597070  27.8770920  41.2641390   6.7956540
  28.3333700  42.0746640   7.0216730  27.5259130  40.9464530   7.6275030
  30.1803530  46.7747730  14.0248840  30.8245750  46.9807110  14.7022260
  30.5432970  46.0136130  13.5719690  23.7782700  31.6079040   7.2679060
  23.6497330  31.5996940   8.2163980  22.9544720  31.9462130   6.9170070
  31.4535610  44.7780080  12.7426290  32.0957840  44.0773240  12.8558460
  31.9784960  45.5578520  12.5623180  35.2991330  45.0628700   2.4665430
  35.0728910  44.3459140   3.0590070  34.9087530  44.8141140   1.6287180
  33.2273230  45.5774980  15.9462350  33.5629470  46.1641670  16.6240270
  32.3073570  45.4467690  16.1760140  21.0807360  49.0895560   3.2409890
  21.4405000  49.6884900   2.5867160  20.9399700  49.6355450   4.0144920
  20.7776630  33.3670160  16.7285760  20.0635150  33.5667080  17.3338370
  21.1971670  32.5909730  17.1000560  34.8807580  42.9800640   4.1279590
  34.5929280  43.4413330   4.9157470  35.6759750  42.5198410   4.3963810
  21.0649220  47.3550420  17.7152290  21.1740340  46.4145160  17.5747680
  20.4129780  47.6205170  17.0666020  29.0561810  45.6266310  19.1150410
  28.7358680  44.9075550  19.6596100  28.3820170  46.3021380  19.1886470
  27.0975980  46.4726760   4.0583560  27.0886080  47.2056450   3.4428070
  26.1774340  46.2258340   4.1510520  22.6982620  41.6941650   4.8030320
  22.0910570  42.4340550   4.8125620  23.1731970  41.7841010   3.9768520
  32.2715410  35.8592470  14.4787210  32.6396230  35.0387680  14.8066780
  31.4113610  35.9194360  14.8942860  35.6377440  34.8149410   5.2874770
  35.0090600  34.9195080   4.5733000  35.1429360  35.0346190   6.0768650
  30.0835580  46.5355000   2.7208750  30.1847560  46.3318990   1.7910730
  29.1837320  46.2813280   2.9256530  27.6061470  37.0935360   6.7032650
  26.8977620  37.5621700   7.1446260  27.8905950  36.4357370   7.3377840
  29.2317400  38.5132060  14.7025180  29.7302650  38.9877880  15.3677030
  29.3740350  37.5895580  14.9095210  31.6376900  33.8186020   8.1428440
  31.5144680  33.8372150   7.1937950  32.5861460  33.8664960   8.2626840
  28.7253690  49.0541320   7.4156420  28.9795190  49.0162710   6.4935790
  27.7766170  48.9274650   7.4084670  25.8096490  35.4020440   4.0783360
  26.6587020  35.8390590   4.0123550  25.4427760  35.7140700   4.9055420
  36.4384260  34.7300020  15.5453570  35.9357860  35.4705420  15.8847380
  37.2540920  35.1184020  15.2290360  34.7306270  39.9733200   8.9914930
  33.7896410  39.9883430   9.1662620  35.0450340  39.1869160   9.4375230
  24.7087910  41.6552800   2.5518890  25.4751180  41.5434160   3.1144320
  24.7862600  40.9590770   1.8995660  23.4034670  39.0877870   3.2351780
  23.4838260  38.1405380   3.3469180  24.2954420  39.4184750   3.3412440
  36.7331850  47.1442050  10.6669190  36.8579270  47.9673220  11.1393000
  37.5997410  46.9332780  10.3193340  24.2049380  49.2373260  10.3386320
  24.9411860  48.6888720  10.6094890  24.5890300  50.1029270  10.1992310
  21.0894860  45.3046830   6.2127830  20.1634640  45.5467970   6.2033240
  21.5551290  46.1321090   6.0912580  23.2107660  48.4219330  19.5271900
  24.0120390  48.7431380  19.9407300  22.6959480  48.0614910  20.2491810
  27.3151690  48.4103570   2.1611890  28.1080300  48.6992400   1.7093680
  26.7956040  47.9795740   1.4824370  32.0472290  44.5299200  19.4747310
  31.4410450  44.5530800  18.7343060  31.7426400  43.7982240  20.0114560
  33.4772660  48.2579490  18.0856720  34.4294410  48.1737510  18.0356960
  33.3300880  48.9221200  18.7590510  36.3681860  47.6373700   3.5848630
  36.0823370  47.2238840   2.7702810  36.1701410  48.5661410   3.4649150
  20.9305470  40.9092790  18.4707950  21.4344490  40.3300070  19.0424180
  20.1912890  41.1933020  19.0084320  31.0731820  42.6927010   2.6296230
  30.5241920  43.1396310   3.2738970  31.6951080  42.1876260   3.1533900
  35.1266760  44.0469110  18.5618490  35.8676230  44.3844870  18.0585950
  34.3639440  44.2161170  18.0088260  22.9628550  39.0522380  19.3658020
  23.0033890  38.7536250  20.2743250  23.8174050  39.4529990  19.2065540
  26.7406940  41.6517930   4.5261530  27.1623360  41.4857800   5.3692920
  26.8657780  40.8418160   4.0316670  24.9034360  37.6314480  17.3332510
  24.3730820  37.1405430  16.7055850  25.5722430  38.0598680  16.7990440
  33.8012420  42.0983940  17.0973700  34.2153440  42.2529020  17.9464120
  32.8663420  42.2239160  17.2599480  34.2734590  39.4380100  19.1012850
  34.8555360  38.6832420  19.0133330  34.4496360  39.9687540  18.3244330
  25.3906660  34.5976850  17.4129800  25.2963530  33.9797600  16.6880670
  24.8104050  35.3243140  17.1859710  28.1568100  33.1550090  14.4457190
  27.7085400  33.1774350  13.6002740  27.5233300  32.7569110  15.0427490
  28.5627650  42.0504420  15.0669630  28.9815760  42.8937150  14.8945870
  27.6436280  42.1876460  14.8376410  30.8991550  39.7820600  16.4507470
  31.0187760  39.1861740  17.1902310  31.7585550  39.8190290  16.0308770
  33.2379450  40.3357790  15.0269980  32.7114670  40.8600410  14.4235120
  33.5810790  40.9685180  15.6579710  26.4135070  48.3557430  16.1827360
  25.8756160  49.0803490  15.8636060  26.6669030  47.8787770  15.3924700
  27.6660320  36.3241950  17.7083290  28.2560010  36.0157800  18.3961110
  26.8480560  35.8521700  17.8643190  32.4853750  35.9407760  17.9416310
  31.7969270  35.2789300  17.8766300  33.2059770  35.4946030  18.3864770
  33.1154150  32.5359390   4.0006570  33.3956440  31.6927290   4.3565990
  32.3419880  32.7682500   4.5145320  29.2697280  49.5908640  16.4414010
  29.1955980  50.4943780  16.7486380  28.3676120  49.2720540  16.4136080
  27.6533570  33.7686400   2.4453770  27.3055570  33.0910390   1.8656220
  27.8546340  33.3075910   3.2597160  29.8182610  48.7567150   4.0640370
  30.7133400  49.0952120   4.0859130  29.8500240  48.0346560   3.4364650
  23.4578770  44.1294200   2.2927370  23.8953640  44.6723870   2.9484950
  23.9426500  43.3041150   2.3023710  20.6724570  46.9183230   9.7447630
  21.0027580  46.0504290   9.5126270  21.1015570  47.1241750  10.5752590
  25.2686490  45.2492240   7.4049600  24.9682030  45.1257210   8.3053510
  25.1623980  44.3900830   6.9965330  21.1614780  47.7853820  12.4829260
  20.7245770  47.9654620  13.3153410  21.7292460  48.5428440  12.3410980
  36.7976960  47.2870820  16.7706570  36.1978950  47.3463380  16.0270490
  36.9270860  46.3475800  16.9003420  38.0378410  45.0288640   2.1076280
  37.2071370  45.0965290   2.5783510  38.2150240  45.9192760   1.8043140
  37.4934870  41.7736120   4.6110480  38.2553780  42.3432770   4.7170170
  37.5089240  41.2063320   5.3818790  20.9939210  40.2974050   8.8418140
  20.3388050  40.0285690   8.1977840  21.8317160  40.1878530   8.3920120
  38.4994840  42.6286220   9.4552410  38.8703670  41.8453540   9.0488380
  39.1396770  43.3175320   9.2769710  35.4828600  44.0122800  14.8682730
  34.6688440  44.4419960  15.1308520  35.8902800  44.6241210  14.2551780
  37.5454040  42.0670490   1.7683000  37.8202880  42.9749370   1.6402220
  37.3564780  42.0033020   2.7044990  33.9429650  35.0915340   3.0636630
  34.3614530  34.9046320   2.2233290  33.6365710  34.2394390   3.3739560
  37.4419380  40.0039480   6.7612430  37.0662980  39.2367410   6.3293720
  36.7122500  40.3862180   7.2487360  22.0315140  40.6826620  13.3821480
  22.3988180  40.5954020  14.2617500  21.4625960  39.9193170  13.2828340
  36.8319000  39.1511000  16.3951950  36.6005090  38.9223750  15.4949900
  37.0923550  40.0710550  16.3496840  21.5831140  37.5935710  17.2879900
  20.6887190  37.5602470  17.6273610  22.1228690  37.7922500  18.0531150
  35.2707070  34.3767430  19.1731650  36.1477250  34.3850830  19.5565650
  35.2827910  33.6398270  18.5624000  20.2077290  37.5072980   4.7843470
  19.3041370  37.7703180   4.6095130  20.6917910  37.7784150   4.0043430
  36.7170340  38.2296970  10.0619670  37.2407820  37.7359620   9.4309840
  37.3029760  38.3647330  10.8067240  36.8960060  38.3136840  13.5839220
  35.9462770  38.2800380  13.6984210  37.0773070  39.2236950  13.3488990
  22.7504500  36.5638520   2.6937850  23.4596200  36.1421740   2.2085130
  22.0344440  36.6313750   2.0621200  36.2070310  37.4870320   6.0012080
  36.7029430  37.2541190   6.7860960  36.0086380  36.6482160   5.5849720
  22.0870850  31.8684040  11.6363120  22.7347040  31.3181420  11.1958280
  22.5072690  32.1227190  12.4578930  37.6357470  36.1231270   8.5349760
  37.5256750  35.9687310   9.4732030  38.3965060  35.5952210   8.2925170
  35.9823190  32.0625400  14.9932760  36.6195410  32.6759540  15.3591950
  36.1298080  32.0986060  14.0481990  38.5247740  33.9539190   1.7755900
  39.4497050  33.8220370   1.5674190  38.5023530  34.0332010   2.7292350
  38.5986230  34.7249850   4.4012610  37.8037730  34.6594970   4.9305520
  38.8029510  35.6600490   4.3897960  35.5404650  48.7641400   8.3951000
  36.1363720  48.4425970   7.7185420  35.7982800  48.2913220   9.1864270
  21.8402850  32.0239710  14.3788440  21.4917670  32.4803530  15.1446620
  21.5090550  31.1296840  14.4610870  23.4467220  45.1959310  18.5441630
  23.4036850  44.8252220  19.4256090  23.5778230  46.1336880  18.6843450
  27.1473250  46.7518900  14.1451350  26.9064610  47.0193460  13.2581870
  28.0875890  46.9224630  14.2002210  29.3527670  33.2151590  17.9007860
  29.2916560  33.8073420  18.6503270  30.2928050  33.1077550  17.7558120
  31.9902230  32.8721650  17.5400150  32.6042640  33.1900940  16.8781230
  32.5351790  32.3870240  18.1596010  38.4077410  48.7713280  14.9461990
  37.9135690  49.1682150  14.2289120  37.7990700  48.1462490  15.3399270
  23.2855250  48.1421560  15.6639410  22.6915570  48.0106260  16.4029450
  23.2779090  47.3059700  15.1981510  32.7310270  31.4353790  13.8669440
  31.8570110  31.7688900  13.6642370  32.6221020  30.9626970  14.6921310
  33.6382250  33.6424660  15.2511160  33.3095610  32.8276420  14.8712890
  34.5864550  33.5994470  15.1276850  36.0916860  49.4136700  12.2248730
  35.6319830  50.1652510  11.8506750  35.4629320  48.6943170  12.1663530
  22.9167480  45.5079940  14.6147450  22.1901540  44.8885230  14.5473400
  22.9776630  45.9020550  13.7445530  26.5212580  47.7224940  11.3996860
  27.0377600  47.1112300  10.8745120  27.1709960  48.2253720  11.8907870
  29.2608080  48.6133430  12.2265840  29.5485890  48.3587730  11.3498850
  29.7731300  48.0610790  12.8171410  30.4785090  32.3523630  12.8062350
  29.6956880  32.8269130  13.0859110  30.1848020  31.4478460  12.6975530
  35.0306160  33.0546730  10.8511440  35.4714250  32.9991830  10.0033040
  34.7613750  33.9704740  10.9221620  36.8944730  32.6861970   8.8620260
  36.8333130  31.7423190   8.7151280  37.6736760  32.7942060   9.4073720
  21.1997480  48.8254330   7.8244210  21.0319520  48.1925010   8.5226100
  20.3331990  49.0313730   7.4738400  21.8225500  32.6571110   5.3276070
  22.5804860  32.7699990   4.7540100  21.3602670  33.4940310   5.2819500
  28.3639310  34.7710380   8.3178380  27.5513820  34.3967270   7.9774260
  28.8680950  34.0155460   8.6199570  32.8664290  31.4352830   9.5561450
  33.4693660  32.0073040  10.0309970  32.1257280  31.9992270   9.3335350
  36.0098890  31.8374390   4.8301730  36.2049520  32.7357840   5.0969160
  35.2228760  31.6061470   5.3234680  22.8060180  47.5187560   5.2694350
  22.2807800  47.8995590   4.5656310  22.7304760  48.1438330   5.9904060
  24.1950650  33.1835160   3.8678040  24.7243410  32.3964960   3.7385990
  24.8278970  33.8626350   4.1013570  26.3888490  32.9210300   6.9223430
  25.7591230  32.2197610   7.0893560  25.8493630  33.6814430   6.7056590
  29.3280440  49.5349530  19.5934040  30.2547750  49.2993800  19.6370000
  29.3130870  50.3621530  19.1120070  37.5625500  49.0775100   6.5908290
  37.7377690  48.3912840   5.9469210  36.8647070  49.6022150   6.1984960
  26.5144050  32.1994280  19.3575920  26.2328320  32.7027880  18.5936740
  26.8963750  31.4016030  18.9918050  25.4053150  49.4669940   4.1443600
  26.1371970  49.1829220   3.5967490  25.6646820  49.2283220   5.0342980
  24.5667940  45.5834670   4.1489930  23.9376820  46.0519770   4.6975760
  24.6815770  44.7383890   4.5836120  33.1159510  31.6147860  19.9356390
  33.0024960  31.9342470  20.8307910  33.9329250  32.0160370  19.6393670
  35.8958000  48.7619390  19.4175080  36.6883320  48.2668620  19.2101040
  36.1891150  49.4409530  20.0250690  32.0217660  20.8596840  46.6221600
  31.9411710  19.9451450  46.3513310  31.6082080  21.3563910  45.9161310
  30.1535700  22.6375860  48.5030870  29.3777800  22.1576300  48.7929440
  30.8048630  21.9581510  48.3287030  24.1701530  22.9495670  49.3806630
  23.3386410  22.6944380  49.7803140  24.7782510  23.0206440  50.1164550
  34.1743130  27.0436050  47.2830000  33.7124660  26.2723290  47.6117170
  34.9868680  27.0702120  47.7882450  24.1502790  26.9835760  49.5764650
  24.4530830  26.0933500  49.3974870  24.8946380  27.5405980  49.3486900
  22.5793480  17.9097560  43.1649020  21.6910180  18.2513530  43.0628900
  22.8634670  17.7097880  42.2729850  20.5426490  20.5103210  49.0488720
  21.1142600  19.7425410  49.0492360  20.5428030  20.8091970  48.1395330
  30.4006440  29.3294060  46.9033990  29.7817880  29.7851560  46.3328430
  31.2558220  29.4845520  46.5023690  29.5944690  25.3133050  48.5101030
  29.5252970  24.3722990  48.3490160  30.3564550  25.4034460  49.0823600
  21.7851360  15.9187570  50.8357650  21.6054200  15.0213320  51.1160410
  21.3831440  16.4659440  51.5104600  30.6249860  18.1203430  48.7369960
  31.0014680  17.2475310  48.6243630  30.5269370  18.4562130  47.8460400
  24.7554870  16.4929060  44.1987400  24.8621620  17.3932790  44.5056160
  23.8447230  16.4447030  43.9082050  34.4073980  15.6153870  45.6698300
  35.2283600  15.1250440  45.7123780  34.4408060  16.2051530  46.4230140
  22.4038030  18.4148070  49.4439990  23.0848140  18.6786440  50.0627390
  22.0886080  17.5748940  49.7778000  26.5962600  19.4615430  48.5312580
  27.1040820  19.9596400  49.1717600  27.1275840  18.6850630  48.3551940
  38.6973530  17.6320620  52.2341930  37.9925700  18.0202330  51.7157040
  38.9631450  18.3270910  52.8362860  24.8798700  14.1013990  52.7976000
  24.8817140  14.6186380  51.9921900  24.0503010  13.6244170  52.7745930
  31.2669790  24.2133300  44.2965900  30.6487060  24.6782750  43.7328620
  31.7793040  24.9060780  44.7135410  26.1301550  23.7409170  50.9749500
  25.7970930  24.3678090  51.6170570  26.3068230  24.2671050  50.1951170
  34.6435460  17.5554250  48.4425840  33.9391030  17.8439140  49.0228950
  35.0047620  18.3654360  48.0825400  24.5614030  15.8123950  50.8046450
  24.9030840  16.6566000  50.5100320  23.6229840  15.9607690  50.9211790
  25.3420650  25.7089970  52.7898680  25.9594650  26.3841050  52.5083130
  24.4813770  26.1177950  52.6986180  20.6352990  24.8989830  41.6705530
  20.2580970  25.3876930  40.9390430  20.8926060  25.5715110  42.3012060
  36.2598240  27.1729380  50.7053320  35.5761760  27.8428490  50.6969990
  36.7992530  27.3710030  49.9398180  37.7122380  17.0009040  48.8335050
  36.7647290  17.0348020  48.9650480  38.0372370  17.8147990  49.2184410
  28.2441920  13.3006220  47.1291040  28.5516900  12.7453110  46.4126540
  27.3142620  13.4350680  46.9464030  33.7956980  29.0173510  49.4198500
  33.8084140  28.6135800  48.5520760  33.2432200  29.7920800  49.3159930
  35.0902400  25.7389730  44.5088670  34.9798730  24.7964060  44.6338090
  35.0870650  26.1005370  45.3951430  33.1942420  23.9203350  50.7481110
  33.6111210  23.7063460  49.9134570  33.9182240  24.1776140  51.3189730
  30.6322680  21.3655050  43.8651160  29.7051960  21.2992430  44.0939630
  30.7847500  22.3035180  43.7506400  30.6191760  17.6372050  40.8618320
  29.6795430  17.7986010  40.9470780  30.9375020  18.3557730  40.3154310
  37.1404520  22.3190570  50.8397350  36.3123150  22.3883660  50.3647480
  37.7355000  22.9044880  50.3713180  34.6619970  22.9275350  44.3686410
  34.0432390  22.5894900  43.7212710  34.6444420  22.2835110  45.0765600
  34.1046530  19.1059890  51.7852220  33.6917710  19.9313600  52.0392210
  33.3722480  18.5204930  51.5928580  26.2379320  21.8919790  46.6470890
  25.8336320  21.1797040  46.1516790  26.3242440  21.5473030  47.5358930
  26.7061020  25.5787350  48.8110100  26.4089310  24.9732820  48.1317880
  27.6560840  25.6164660  48.6999460  24.9507940  18.6663000  50.4269930
  25.5022530  18.7758340  49.6523180  25.4651450  19.0400600  51.1425160
  34.7946630  29.1519220  52.4733200  34.3177190  29.9591410  52.2805810
  34.1108420  28.4997550  52.6259410  25.7979450  25.3169040  55.4617900
  24.9007980  25.5409010  55.7091300  25.8232320  25.4403980  54.5129300
  32.8384670  22.1662160  41.3759160  33.2777950  21.3284590  41.2296980
  33.5513090  22.7991560  41.4623300  24.6250670  22.1882360  54.0375270
  24.4858440  23.0605160  54.4062670  23.7432030  21.8455170  53.8923210
  30.9480050  27.1058230  45.3440400  31.3875960  27.8482560  44.9295790
  30.8866940  27.3484800  46.2679360  26.4231020  28.1304060  56.2460420
  26.3946450  28.5347010  55.3788850  26.2595990  27.2014420  56.0832020
  36.4201810  13.4204970  39.6900200  36.1074470  13.5131800  40.5899270
  37.1814280  13.9986000  39.6397630  22.9383950  20.7864770  44.1477540
  22.8181550  21.5126860  43.5358810  22.6284840  20.0167680  43.6705450
  20.5769320  23.9579910  49.9546180  20.6549740  24.0928680  49.0101900
  21.1911000  23.2495800  50.1474300  21.8216950  25.6580100  46.3652360
  21.4145030  25.7994690  45.5105960  22.7129960  25.3740260  46.1623570
  37.7779090  26.1044010  54.7024600  37.9042150  25.8655890  53.7841780
  37.8200470  25.2728550  55.1746680  31.6395830  29.8072010  53.2719410
  32.1540500  29.7180020  54.0741840  30.7964910  30.1531710  53.5647320
  33.6150230  30.0927350  42.7003410  33.4551370  29.8030290  43.5985240
  33.4496940  29.3167480  42.1648640  26.0938610  29.8725880  44.4775030
  25.9181090  28.9561420  44.2642830  25.2394350  30.2313170  44.7172830
  33.3176360  27.6014910  41.2601410  32.6241520  27.5992200  40.6003690
  34.0599220  27.1774230  40.8295580  32.8826290  29.2277620  45.3349900
  33.3383240  28.4467000  45.6488520  33.2218810  29.9384440  45.8791080
  37.6303100  18.1576470  55.6674340  37.0147370  18.6656140  55.1389800
  37.3099520  17.2574800  55.6100280  20.6328840  24.9994080  52.4940640
  20.7959880  24.5299440  51.6760010  21.0981290  24.4917640  53.1589480
  25.4047610  14.1299840  47.5301210  24.9615760  14.9109380  47.1985730
  25.9632600  14.4529730  48.2372150  29.6917420  16.9968360  53.1336530
  29.2296790  17.2051380  53.9456470  29.2895530  16.1827710  52.8307200
  34.6921930  18.2177310  54.2633190  33.8415520  17.9183060  54.5842260
  34.5323720  18.4619320  53.3517010  31.7871640  19.7179060  56.3631980
  32.1125050  18.8842810  56.0234210  32.5751970  20.2407580  56.5110310
  28.5206430  13.7510540  42.4107040  27.8960610  13.7470410  43.1360350
  28.4336550  12.8841500  42.0143010  27.4423510  14.6747170  49.3890810
  27.7395840  15.5810000  49.3082830  27.9909070  14.1865950  48.7750380
  25.1961830  19.2533410  45.2582460  24.9702750  19.0370580  46.1629080
  24.4154360  19.6861870  44.9128430  32.4259590  19.2596780  43.8573110
  31.8268480  19.9832580  43.6736730  32.9739200  19.1973560  43.0749560
  27.6361040  20.1518990  55.9242730  27.5404640  19.2113720  55.7743130
  28.4793020  20.3734060  55.5290800  31.0324460  17.8960320  45.8876390
  31.4254030  18.2132520  45.0745080  31.3941310  17.0172200  46.0020910
  22.7671580  16.5632660  54.0776510  22.3734970  17.4107870  54.2849290
  22.0789980  15.9259030  54.2685150  20.0688630  14.4861120  48.1106590
  19.7801680  15.0563980  48.8231570  20.8134390  14.0065570  48.4737820
  20.2558860  18.4281240  39.3209310  20.1733530  19.3712000  39.4624300
  19.9041920  18.2856150  38.4421660  31.6179600  20.4866070  49.9827170
  30.8860720  20.9952880  50.3317270  31.2203940  19.6696050  49.6815950
  28.0556990  17.1620270  48.3879660  28.0593050  16.7210220  47.5384200
  28.9508110  17.4837600  48.4951480  23.9059370  17.0446760  47.3473870
  23.5659420  17.5221990  48.1040920  23.1436690  16.5911880  46.9874970
  28.1177140  18.1632350  41.3786420  28.2389960  18.1218830  42.3272240
  27.7325650  19.0256500  41.2233150  32.0805510  15.9399750  49.3950110
  32.0978250  16.3908400  50.2391960  31.8321090  15.0405390  49.6083550
  27.1298640  20.4733490  40.7769720  26.5615540  20.0251740  40.1505630
  27.8387640  20.8326270  40.2434870  35.5076260  13.3531930  55.2336490
  35.8322030  12.6221590  55.7594470  35.5432770  13.0345570  54.3317480
  22.2067820  24.3745510  54.6536450  21.8222610  23.7339180  55.2519410
  22.5180010  25.0781630  55.2231180  28.3564960  21.2222050  50.1345070
  28.7235090  20.7480620  50.8806410  28.1670020  22.0963620  50.4753410
  21.2205450  15.9665740  46.2638540  20.9352370  15.6021410  47.1017160
  21.1584310  15.2346200  45.6501680  26.1464330  20.2630690  52.4529280
  25.8421400  21.1422670  52.6779640  27.1010790  20.3230480  52.4886720
  24.6746120  24.4691680  43.0496130  23.9008380  23.9289300  42.8894850
  25.4040750  23.9498290  42.7113890  35.4334100  23.4657040  48.8422520
  36.1533220  23.9612330  48.4518630  35.2315920  22.7874930  48.1976390
  30.8944040  14.8595000  42.9851910  30.0808650  14.3608170  42.9097220
  30.7005990  15.6993250  42.5688260  30.8152900  23.5366100  54.7291520
  30.7490210  22.6161770  54.4749110  30.1858040  23.6341540  55.4436160
  33.6092430  19.2314650  41.2814070  34.4972050  19.5431880  41.1065410
  33.5797520  18.3586900  40.8894650  24.7183520  24.1372060  46.6874940
  25.2362190  23.3340320  46.6331830  24.2667540  24.0751200  47.5291770
  29.6053020  25.4038340  41.9602240  29.9468720  26.1480570  41.4645560
  28.7765730  25.7169460  42.3227070  22.2028060  21.1033430  53.6000640
  21.8443000  21.7687280  54.1873980  21.9082620  20.2716980  53.9713260
  25.4041180  21.5617670  56.4840190  25.1041320  21.7074850  55.5868010
  26.1752420  21.0022960  56.3913580  30.7469630  26.3586670  54.4795320
  30.7614170  25.4267630  54.2614230  30.0394730  26.4446430  55.1185090
  35.8806700  20.5426490  40.7493930  35.7970420  20.9740710  39.8990370
  36.6000890  21.0024840  41.1820750  36.9580840  22.9994010  53.8263900
  36.2329030  23.5922790  53.6293290  37.4856300  22.9917550  53.0277270
  36.9093950  27.3968750  43.4776060  36.2670110  26.7424370  43.7519780
  36.5224610  27.8023840  42.7016730  32.4880430  24.7254180  47.3247750
  32.8404250  24.1282310  46.6649120  31.6042760  24.3998410  47.4956000
  28.5743710  25.4851870  44.7318160  29.2614840  26.0321080  45.1125750
  27.7876130  26.0292600  44.7667770  20.7136110  21.1024690  40.2235240
  21.5830960  21.3849490  40.5071160  20.2226430  21.9160560  40.1084050
  27.8770920  22.4897900  44.3443520  28.3333700  23.3003150  44.5703710
  27.5259130  22.1721040  45.1762010  30.1803530  28.0004240  51.5735820
  30.8245750  28.2063620  52.2509240  30.5432970  27.2392640  51.1206670
  23.7782700  12.8335550  44.8166040  23.6497330  12.8253450  45.7650960
  22.9544720  13.1718640  44.4657050  31.4535610  26.0036590  50.2913270
  32.0957840  25.3029750  50.4045440  31.9784960  26.7835030  50.1110160
  35.2991330  26.2885210  40.0152410  35.0728910  25.5715650  40.6077050
  34.9087530  26.0397650  39.1774160  33.2273230  26.8031490  53.4949330
  33.5629470  27.3898180  54.1727250  32.3073570  26.6724200  53.7247120
  21.0807360  30.3152070  40.7896870  21.4405000  30.9141410  40.1354140
  20.9399700  30.8611960  41.5631900  20.7776630  14.5926670  54.2772740
  20.0635150  14.7923590  54.8825350  21.1971670  13.8166240  54.6487540
  34.8807580  24.2057150  41.6766570  34.5929280  24.6669840  42.4644450
  35.6759750  23.7454920  41.9450790  21.0649220  28.5806930  55.2639270
  21.1740340  27.6401670  55.1234660  20.4129780  28.8461680  54.6153000
  29.0561810  26.8522820  56.6637390  28.7358680  26.1332060  57.2083080
  28.3820170  27.5277890  56.7373450  27.0975980  27.6983270  41.6070540
  27.0886080  28.4312960  40.9915050  26.1774340  27.4514850  41.6997500
  22.6982620  22.9198160  42.3517300  22.0910570  23.6597060  42.3612600
  23.1731970  23.0097520  41.5255500  32.2715410  17.0848980  52.0274190
  32.6396230  16.2644190  52.3553760  31.4113610  17.1450870  52.4429840
  35.6377440  16.0405920  42.8361750  35.0090600  16.1451590  42.1219980
  35.1429360  16.2602700  43.6255630  30.0835580  27.7611510  40.2695730
  30.1847560  27.5575500  39.3397710  29.1837320  27.5069790  40.4743510
  27.6061470  18.3191870  44.2519630  26.8977620  18.7878210  44.6933240
  27.8905950  17.6613880  44.8864820  29.2317400  19.7388570  52.2512160
  29.7302650  20.2134390  52.9164010  29.3740350  18.8152090  52.4582190
  31.6376900  15.0442530  45.6915420  31.5144680  15.0628660  44.7424930
  32.5861460  15.0921470  45.8113820  28.7253690  30.2797830  44.9643400
  28.9795190  30.2419220  44.0422770  27.7766170  30.1531160  44.9571650
  25.8096490  16.6276950  41.6270340  26.6587020  17.0647100  41.5610530
  25.4427760  16.9397210  42.4542400  36.4384260  15.9556530  53.0940550
  35.9357860  16.6961930  53.4334360  37.2540920  16.3440530  52.7777340
  34.7306270  21.1989710  46.5401910  33.7896410  21.2139940  46.7149600
  35.0450340  20.4125670  46.9862210  24.7087910  22.8809310  40.1005870
  25.4751180  22.7690670  40.6631300  24.7862600  22.1847280  39.4482640
  23.4034670  20.3134380  40.7838760  23.4838260  19.3661890  40.8956160
  24.2954420  20.6441260  40.8899420  36.7331850  28.3698560  48.2156170
  36.8579270  29.1929730  48.6879980  37.5997410  28.1589290  47.8680320
  24.2049380  30.4629770  47.8873300  24.9411860  29.9145230  48.1581870
  24.5890300  31.3285780  47.7479290  21.0894860  26.5303340  43.7614810
  20.1634640  26.7724480  43.7520220  21.5551290  27.3577600  43.6399560
  33.4772660  29.4836000  55.6343700  34.4294410  29.3994020  55.5843940
  33.3300880  30.1477710  56.3077490  36.3681860  28.8630210  41.1335610
  36.0823370  28.4495350  40.3189790  36.1701410  29.7917920  41.0136130
  20.9305470  22.1349300  56.0194930  21.4344490  21.5556580  56.5911160
  20.1912890  22.4189530  56.5571300  27.9843410  23.5420290  55.5530450
  27.2189080  24.1105290  55.4685120  28.1659370  23.2496500  54.6598680
  31.0731820  23.9183520  40.1783210  30.5241920  24.3652820  40.8225950
  31.6951080  23.4132770  40.7020880  35.1266760  25.2725620  56.1105470
  35.8676230  25.6101380  55.6072930  34.3639440  25.4417680  55.5575240
  26.7406940  22.8774440  42.0748510  27.1623360  22.7114310  42.9179900
  26.8657780  22.0674670  41.5803650  24.9034360  18.8570990  54.8819490
  24.3730820  18.3661940  54.2542830  25.5722430  19.2855190  54.3477420
  33.8012420  23.3240450  54.6460680  34.2153440  23.4785530  55.4951100
  32.8663420  23.4495670  54.8086460  34.2734590  20.6636610  56.6499830
  34.8555360  19.9088930  56.5620310  34.4496360  21.1944050  55.8731310
  25.3906660  15.8233360  54.9616780  25.2963530  15.2054110  54.2367650
  24.8104050  16.5499650  54.7346690  28.1568100  14.3806600  51.9944170
  27.7085400  14.4030860  51.1489720  27.5233300  13.9825620  52.5914470
  28.5627650  23.2760930  52.6156610  28.9815760  24.1193660  52.4432850
  27.6436280  23.4132970  52.3863390  30.8991550  21.0077110  53.9994450
  31.0187760  20.4118250  54.7389290  31.7585550  21.0446800  53.5795750
  33.2379450  21.5614300  52.5756960  32.7114670  22.0856920  51.9722100
  33.5810790  22.1941690  53.2066690  26.4135070  29.5813940  53.7314340
  25.8756160  30.3060000  53.4123040  26.6669030  29.1044280  52.9411680
  27.6660320  17.5498460  55.2570270  28.2560010  17.2414310  55.9448090
  26.8480560  17.0778210  55.4130170  32.4853750  17.1664270  55.4903290
  31.7969270  16.5045810  55.4253280  33.2059770  16.7202540  55.9351750
  33.1154150  13.7615900  41.5493550  33.3956440  12.9183800  41.9052970
  32.3419880  13.9939010  42.0632300  24.4348640  16.0508290  39.0084550
  24.7374540  16.0575720  38.1003700  25.1743230  15.7006150  39.5052210
  29.2697280  30.8165150  53.9900990  29.1955980  31.7200290  54.2973360
  28.3676120  30.4977050  53.9623060  27.6533570  14.9942910  39.9940750
  27.3055570  14.3166900  39.4143200  27.8546340  14.5332420  40.8084140
  23.4578770  25.3550710  39.8414350  23.8953640  25.8980380  40.4971930
  23.9426500  24.5297660  39.8510690  20.6724570  28.1439740  47.2934610
  21.0027580  27.2760800  47.0613250  21.1015570  28.3498260  48.1239570
  25.2686490  26.4748750  44.9536580  24.9682030  26.3513720  45.8540490
  25.1623980  25.6157340  44.5452310  21.1614780  29.0110330  50.0316240
  20.7245770  29.1911130  50.8640390  21.7292460  29.7684950  49.8897960
  36.7976960  28.5127330  54.3193550  36.1978950  28.5719890  53.5757470
  36.9270860  27.5732310  54.4490400  38.0378410  26.2545150  39.6563260
  37.2071370  26.3221800  40.1270490  38.2150240  27.1449270  39.3530120
  37.4934870  22.9992630  42.1597460  38.2553780  23.5689280  42.2657150
  37.5089240  22.4319830  42.9305770  20.9939210  21.5230560  46.3905120
  20.3388050  21.2542200  45.7464820  21.8317160  21.4135040  45.9407100
  38.4994840  23.8542730  47.0039390  38.8703670  23.0710050  46.5975360
  39.1396770  24.5431830  46.8256690  35.4828600  25.2379310  52.4169710
  34.6688440  25.6676470  52.6795500  35.8902800  25.8497720  51.8038760
  37.5454040  23.2927000  39.3169980  37.8202880  24.2005880  39.1889200
  37.3564780  23.2289530  40.2531970  33.9429650  16.3171850  40.6123610
  34.3614530  16.1302830  39.7720270  33.6365710  15.4650900  40.9226540
  37.4419380  21.2295990  44.3099410  37.0662980  20.4623920  43.8780700
  36.7122500  21.6118690  44.7974340  22.0315140  21.9083130  50.9308460
  22.3988180  21.8210530  51.8104480  21.4625960  21.1449680  50.8315320
  36.8319000  20.3767510  53.9438930  36.6005090  20.1480260  53.0436880
  37.0923550  21.2967060  53.8983820  21.5831140  18.8192220  54.8366880
  20.6887190  18.7858980  55.1760590  22.1228690  19.0179010  55.6018130
  35.2707070  15.6023940  56.7218630  36.1477250  15.6107340  57.1052630
  35.2827910  14.8654780  56.1110980  20.2077290  18.7329490  42.3330450
  19.3041370  18.9959690  42.1582110  20.6917910  19.0040660  41.5530410
  36.7170340  19.4553480  47.6106650  37.2407820  18.9616130  46.9796820
  37.3029760  19.5903840  48.3554220  36.8960060  19.5393350  51.1326200
  35.9462770  19.5056890  51.2471190  37.0773070  20.4493460  50.8975970
  22.7504500  17.7895030  40.2424830  23.4596200  17.3678250  39.7572110
  22.0344440  17.8570260  39.6108180  22.3978660  13.8434360  39.2827480
  23.1206790  14.3843300  39.6008700  22.6703180  13.5697780  38.4069020
  36.2070310  18.7126830  43.5499060  36.7029430  18.4797700  44.3347940
  36.0086380  17.8738670  43.1336700  22.0870850  13.0940550  49.1850100
  22.7347040  12.5437930  48.7445260  22.5072690  13.3483700  50.0065910
  37.6357470  17.3487780  46.0836740  37.5256750  17.1943820  47.0219010
  38.3965060  16.8208720  45.8412150  35.9823190  13.2881910  52.5419740
  36.6195410  13.9016050  52.9078930  36.1298080  13.3242570  51.5968970
  38.5247740  15.1795700  39.3242880  39.4497050  15.0476880  39.1161170
  38.5023530  15.2588520  40.2779330  38.5986230  15.9506360  41.9499590
  37.8037730  15.8851480  42.4792500  38.8029510  16.8857000  41.9384940
  35.5404650  29.9897910  45.9437980  36.1363720  29.6682480  45.2672400
  35.7982800  29.5169730  46.7351250  21.8402850  13.2496220  51.9275420
  21.4917670  13.7060040  52.6933600  21.5090550  12.3553350  52.0097850
  23.4467220  26.4215820  56.0928610  23.4036850  26.0508730  56.9743070
  23.5778230  27.3593390  56.2330430  27.1473250  27.9775410  51.6938330
  26.9064610  28.2449970  50.8068850  28.0875890  28.1481140  51.7489190
  29.3527670  14.4408100  55.4494840  29.2916560  15.0329930  56.1990250
  30.2928050  14.3334060  55.3045100  31.9902230  14.0978160  55.0887130
  32.6042640  14.4157450  54.4268210  32.5351790  13.6126750  55.7082990
  38.4077410  29.9969790  52.4948970  37.9135690  30.3938660  51.7776100
  37.7990700  29.3719000  52.8886250  22.5123490  12.7772420  55.2026190
  23.0606480  12.5960470  54.4392300  22.5778800  11.9866530  55.7382500
  23.2855250  29.3678070  53.2126390  22.6915570  29.2362770  53.9516430
  23.2779090  28.5316210  52.7468490  32.7310270  12.6610300  51.4156420
  31.8570110  12.9945410  51.2129350  32.6221020  12.1883480  52.2408290
  33.6382250  14.8681170  52.7998140  33.3095610  14.0532930  52.4199870
  34.5864550  14.8250980  52.6763830  36.0916860  30.6393210  49.7735710
  35.6319830  31.3909020  49.3993730  35.4629320  29.9199680  49.7150510
  22.9167480  26.7336450  52.1634430  22.1901540  26.1141740  52.0960380
  22.9776630  27.1277060  51.2932510  26.5212580  28.9481450  48.9483840
  27.0377600  28.3368810  48.4232100  27.1709960  29.4510230  49.4394850
  29.2608080  29.8389940  49.7752820  29.5485890  29.5844240  48.8985830
  29.7731300  29.2867300  50.3658390  30.4785090  13.5780140  50.3549330
  29.6956880  14.0525640  50.6346090  30.1848020  12.6734970  50.2462510
  35.0306160  14.2803240  48.3998420  35.4714250  14.2248340  47.5520020
  34.7613750  15.1961250  48.4708600  36.8944730  13.9118480  46.4107240
  36.8333130  12.9679700  46.2638260  37.6736760  14.0198570  46.9560700
  21.1997480  30.0510840  45.3731190  21.0319520  29.4181520  46.0713080
  20.3331990  30.2570240  45.0225380  21.8225500  13.8827620  42.8763050
  22.5804860  13.9956500  42.3027080  21.3602670  14.7196820  42.8306480
  28.3639310  15.9966890  45.8665360  27.5513820  15.6223780  45.5261240
  28.8680950  15.2411970  46.1686550  32.8664290  12.6609340  47.1048430
  33.4693660  13.2329550  47.5796950  32.1257280  13.2248780  46.8822330
  36.0098890  13.0630900  42.3788710  36.2049520  13.9614350  42.6456140
  35.2228760  12.8317980  42.8721660  22.8060180  28.7444070  42.8181330
  22.2807800  29.1252100  42.1143290  22.7304760  29.3694840  43.5391040
  24.1950650  14.4091670  41.4165020  24.7243410  13.6221470  41.2872970
  24.8278970  15.0882860  41.6500550  26.3888490  14.1466810  44.4710410
  25.7591230  13.4454120  44.6380540  25.8493630  14.9070940  44.2543570
  29.3280440  30.7606040  57.1421020  30.2547750  30.5250310  57.1856980
  29.3130870  31.5878040  56.6607050  37.5625500  30.3031610  44.1395270
  37.7377690  29.6169350  43.4956190  36.8647070  30.8278660  43.7471940
  26.5144050  13.4250790  56.9062900  26.2328320  13.9284390  56.1423720
  26.8963750  12.6272540  56.5405030  25.4053150  30.6926450  41.6930580
  26.1371970  30.4085730  41.1454470  25.6646820  30.4539730  42.5829960
  24.5667940  26.8091180  41.6976910  23.9376820  27.2776280  42.2462740
  24.6815770  25.9640400  42.1323100  34.1743130  27.0436050  28.5086510
  33.7124660  26.2723290  28.8373680  34.9868680  27.0702120  29.0138960
  22.5793480  17.9097560  24.3905530  21.6910180  18.2513530  24.2885410
  22.8634670  17.7097880  23.4986360  20.5426490  20.5103210  30.2745230
  21.1142600  19.7425410  30.2748870  20.5428030  20.8091970  29.3651840
  21.7851360  15.9187570  32.0614160  21.6054200  15.0213320  32.3416920
  21.3831440  16.4659440  32.7361110  30.6249860  18.1203430  29.9626470
  31.0014680  17.2475310  29.8500140  30.5269370  18.4562130  29.0716910
  24.7554870  16.4929060  25.4243910  24.8621620  17.3932790  25.7312670
  23.8447230  16.4447030  25.1338560  34.4073980  15.6153870  26.8954810
  35.2283600  15.1250440  26.9380290  34.4408060  16.2051530  27.6486650
  38.6973530  17.6320620  33.4598440  37.9925700  18.0202330  32.9413550
  38.9631450  18.3270910  34.0619370  24.8798700  14.1013990  34.0232510
  24.8817140  14.6186380  33.2178410  24.0503010  13.6244170  34.0002440
  34.6435460  17.5554250  29.6682350  33.9391030  17.8439140  30.2485460
  35.0047620  18.3654360  29.3081910  24.5614030  15.8123950  32.0302960
  24.9030840  16.6566000  31.7356830  23.6229840  15.9607690  32.1468300
  37.7122380  17.0009040  30.0591560  36.7647290  17.0348020  30.1906990
  38.0372370  17.8147990  30.4440920  28.2441920  13.3006220  28.3547550
  28.5516900  12.7453110  27.6383050  27.3142620  13.4350680  28.1720540
  35.0902400  25.7389730  25.7345180  34.9798730  24.7964060  25.8594600
  35.0870650  26.1005370  26.6207940  33.1942420  23.9203350  31.9737620
  33.6111210  23.7063460  31.1391080  33.9182240  24.1776140  32.5446240
  37.1404520  22.3190570  32.0653860  36.3123150  22.3883660  31.5903990
  37.7355000  22.9044880  31.5969690  34.1046530  19.1059890  33.0108730
  33.6917710  19.9313600  33.2648720  33.3722480  18.5204930  32.8185090
  36.4201810  13.4204970  20.9156710  36.1074470  13.5131800  21.8155780
  37.1814280  13.9986000  20.8654140  22.9383950  20.7864770  25.3734050
  22.8181550  21.5126860  24.7615320  22.6284840  20.0167680  24.8961960
  38.3745840  28.9131160  38.7681100  38.8505560  29.3914050  39.4470180
  38.9953000  28.8448650  38.0426600  20.5769320  23.9579910  31.1802690
  20.6549740  24.0928680  30.2358410  21.1911000  23.2495800  31.3730810
  37.7779090  26.1044010  35.9281110  37.9042150  25.8655890  35.0098290
  37.8200470  25.2728550  36.4003190  33.6150230  30.0927350  23.9259920
  33.4551370  29.8030290  24.8241750  33.4496940  29.3167480  23.3905150
  37.6303100  18.1576470  36.8930850  37.0147370  18.6656140  36.3646310
  37.3099520  17.2574800  36.8356790  20.6328840  24.9994080  33.7197150
  20.7959880  24.5299440  32.9016520  21.0981290  24.4917640  34.3845990
  25.4047610  14.1299840  28.7557720  24.9615760  14.9109380  28.4242240
  25.9632600  14.4529730  29.4628660  29.6917420  16.9968360  34.3593040
  29.2296790  17.2051380  35.1712980  29.2895530  16.1827710  34.0563710
  34.6921930  18.2177310  35.4889700  33.8415520  17.9183060  35.8098770
  34.5323720  18.4619320  34.5773520  31.7871640  19.7179060  37.5888490
  32.1125050  18.8842810  37.2490720  32.5751970  20.2407580  37.7366820
  28.5206430  13.7510540  23.6363550  27.8960610  13.7470410  24.3616860
  28.4336550  12.8841500  23.2399520  27.4423510  14.6747170  30.6147320
  27.7395840  15.5810000  30.5339340  27.9909070  14.1865950  30.0006890
  29.3416630  16.6467630  38.3729760  28.6514950  16.4539830  39.0075850
  30.0848930  16.9302270  38.9054060  20.0688630  14.4861120  29.3363100
  19.7801680  15.0563980  30.0488080  20.8134390  14.0065570  29.6994330
  20.2558860  18.4281240  20.5465820  20.1733530  19.3712000  20.6880810
  19.9041920  18.2856150  19.6678170  31.6179600  20.4866070  31.2083680
  30.8860720  20.9952880  31.5573780  31.2203940  19.6696050  30.9072460
  23.9059370  17.0446760  28.5730380  23.5659420  17.5221990  29.3297430
  23.1436690  16.5911880  28.2131480  32.0805510  15.9399750  30.6206620
  32.0978250  16.3908400  31.4648470  31.8321090  15.0405390  30.8340060
  35.5076260  13.3531930  36.4593000  35.8322030  12.6221590  36.9850980
  35.5432770  13.0345570  35.5573990  22.2067820  24.3745510  35.8792960
  21.8222610  23.7339180  36.4775920  22.5180010  25.0781630  36.4487690
  21.2205450  15.9665740  27.4895050  20.9352370  15.6021410  28.3273670
  21.1584310  15.2346200  26.8758190  30.8944040  14.8595000  24.2108420
  30.0808650  14.3608170  24.1353730  30.7005990  15.6993250  23.7944770
  35.8806700  20.5426490  21.9750440  35.7970420  20.9740710  21.1246880
  36.6000890  21.0024840  22.4077260  36.9580840  22.9994010  35.0520410
  36.2329030  23.5922790  34.8549800  37.4856300  22.9917550  34.2533780
  36.9093950  27.3968750  24.7032570  36.2670110  26.7424370  24.9776290
  36.5224610  27.8023840  23.9273240  20.7136110  21.1024690  21.4491750
  21.5830960  21.3849490  21.7327670  20.2226430  21.9160560  21.3340560
  23.7782700  12.8335550  26.0422550  23.6497330  12.8253450  26.9907470
  22.9544720  13.1718640  25.6913560  31.4535610  26.0036590  31.5169780
  32.0957840  25.3029750  31.6301950  31.9784960  26.7835030  31.3366670
  35.2991330  26.2885210  21.2408920  35.0728910  25.5715650  21.8333560
  34.9087530  26.0397650  20.4030670  20.7776630  14.5926670  35.5029250
  20.0635150  14.7923590  36.1081860  21.1971670  13.8166240  35.8744050
  34.8807580  24.2057150  22.9023080  34.5929280  24.6669840  23.6900960
  35.6759750  23.7454920  23.1707300  22.6982620  22.9198160  23.5773810
  22.0910570  23.6597060  23.5869110  23.1731970  23.0097520  22.7512010
  32.2715410  17.0848980  33.2530700  32.6396230  16.2644190  33.5810270
  31.4113610  17.1450870  33.6686350  35.6377440  16.0405920  24.0618260
  35.0090600  16.1451590  23.3476490  35.1429360  16.2602700  24.8512140
  31.6376900  15.0442530  26.9171930  31.5144680  15.0628660  25.9681440
  32.5861460  15.0921470  27.0370330  25.8096490  16.6276950  22.8526850
  26.6587020  17.0647100  22.7867040  25.4427760  16.9397210  23.6798910
  36.4384260  15.9556530  34.3197060  35.9357860  16.6961930  34.6590870
  37.2540920  16.3440530  34.0033850  23.4034670  20.3134380  22.0095270
  23.4838260  19.3661890  22.1212670  24.2954420  20.6441260  22.1155930
  32.0472290  25.7555710  38.2490800  31.4410450  25.7787310  37.5086550
  31.7426400  25.0238750  38.7858050  36.3681860  28.8630210  22.3592120
  36.0823370  28.4495350  21.5446300  36.1701410  29.7917920  22.2392640
  20.9305470  22.1349300  37.2451440  21.4344490  21.5556580  37.8167670
  20.1912890  22.4189530  37.7827810  35.1266760  25.2725620  37.3361980
  35.8676230  25.6101380  36.8329440  34.3639440  25.4417680  36.7831750
  33.8012420  23.3240450  35.8717190  34.2153440  23.4785530  36.7207610
  32.8663420  23.4495670  36.0342970  34.2734590  20.6636610  37.8756340
  34.8555360  19.9088930  37.7876820  34.4496360  21.1944050  37.0987820
  28.1568100  14.3806600  33.2200680  27.7085400  14.4030860  32.3746230
  27.5233300  13.9825620  33.8170980  33.2379450  21.5614300  33.8013470
  32.7114670  22.0856920  33.1978610  33.5810790  22.1941690  34.4323200
  25.6365840  18.9507670  20.2463180  25.4354900  18.0875030  20.6076520
  25.4657890  18.8641030  19.3084780  32.4853750  17.1664270  36.7159800
  31.7969270  16.5045810  36.6509790  33.2059770  16.7202540  37.1608260
  33.1154150  13.7615900  22.7750060  33.3956440  12.9183800  23.1309480
  32.3419880  13.9939010  23.2888810  24.4348640  16.0508290  20.2341060
  24.7374540  16.0575720  19.3260210  25.1743230  15.7006150  20.7308720
  27.6533570  14.9942910  21.2197260  27.3055570  14.3166900  20.6399710
  27.8546340  14.5332420  22.0340650  21.1614780  29.0110330  31.2572750
  20.7245770  29.1911130  32.0896900  21.7292460  29.7684950  31.1154470
  38.0378410  26.2545150  20.8819770  37.2071370  26.3221800  21.3527000
  38.2150240  27.1449270  20.5786630  37.4934870  22.9992630  23.3853970
  38.2553780  23.5689280  23.4913660  37.5089240  22.4319830  24.1562280
  20.9939210  21.5230560  27.6161630  20.3388050  21.2542200  26.9721330
  21.8317160  21.4135040  27.1663610  38.4994840  23.8542730  28.2295900
  38.8703670  23.0710050  27.8231870  39.1396770  24.5431830  28.0513200
  35.4828600  25.2379310  33.6426220  34.6688440  25.6676470  33.9052010
  35.8902800  25.8497720  33.0295270  37.5454040  23.2927000  20.5426490
  37.8202880  24.2005880  20.4145710  37.3564780  23.2289530  21.4788480
  33.9429650  16.3171850  21.8380120  34.3614530  16.1302830  20.9976780
  33.6365710  15.4650900  22.1483050  37.4419380  21.2295990  25.5355920
  37.0662980  20.4623920  25.1037210  36.7122500  21.6118690  26.0230850
  36.8319000  20.3767510  35.1695440  36.6005090  20.1480260  34.2693390
  37.0923550  21.2967060  35.1240330  21.5831140  18.8192220  36.0623390
  20.6887190  18.7858980  36.4017100  22.1228690  19.0179010  36.8274640
  35.2707070  15.6023940  37.9475140  36.1477250  15.6107340  38.3309140
  35.2827910  14.8654780  37.3367490  20.2077290  18.7329490  23.5586960
  19.3041370  18.9959690  23.3838620  20.6917910  19.0040660  22.7786920
  36.7170340  19.4553480  28.8363160  37.2407820  18.9616130  28.2053330
  37.3029760  19.5903840  29.5810730  36.8960060  19.5393350  32.3582710
  35.9462770  19.5056890  32.4727700  37.0773070  20.4493460  32.1232480
  22.7504500  17.7895030  21.4681340  23.4596200  17.3678250  20.9828620
  22.0344440  17.8570260  20.8364690  22.3978660  13.8434360  20.5083990
  23.1206790  14.3843300  20.8265210  22.6703180  13.5697780  19.6325530
  36.2070310  18.7126830  24.7755570  36.7029430  18.4797700  25.5604450
  36.0086380  17.8738670  24.3593210  22.0870850  13.0940550  30.4106610
  22.7347040  12.5437930  29.9701770  22.5072690  13.3483700  31.2322420
  37.6357470  17.3487780  27.3093250  37.5256750  17.1943820  28.2475520
  38.3965060  16.8208720  27.0668660  35.9823190  13.2881910  33.7676250
  36.6195410  13.9016050  34.1335440  36.1298080  13.3242570  32.8225480
  38.5247740  15.1795700  20.5499390  39.4497050  15.0476880  20.3417680
  38.5023530  15.2588520  21.5035840  38.5986230  15.9506360  23.1756100
  37.8037730  15.8851480  23.7049010  38.8029510  16.8857000  23.1641450
  35.5404650  29.9897910  27.1694490  36.1363720  29.6682480  26.4928910
  35.7982800  29.5169730  27.9607760  21.8402850  13.2496220  33.1531930
  21.4917670  13.7060040  33.9190110  21.5090550  12.3553350  33.2354360
  29.3527670  14.4408100  36.6751350  29.2916560  15.0329930  37.4246760
  30.2928050  14.3334060  36.5301610  31.9902230  14.0978160  36.3143640
  32.6042640  14.4157450  35.6524720  32.5351790  13.6126750  36.9339500
  22.5123490  12.7772420  36.4282700  23.0606480  12.5960470  35.6648810
  22.5778800  11.9866530  36.9639010  32.7310270  12.6610300  32.6412930
  31.8570110  12.9945410  32.4385860  32.6221020  12.1883480  33.4664800
  33.6382250  14.8681170  34.0254650  33.3095610  14.0532930  33.6456380
  34.5864550  14.8250980  33.9020340  30.4785090  13.5780140  31.5805840
  29.6956880  14.0525640  31.8602600  30.1848020  12.6734970  31.4719020
  35.0306160  14.2803240  29.6254930  35.4714250  14.2248340  28.7776530
  34.7613750  15.1961250  29.6965110  36.8944730  13.9118480  27.6363750
  36.8333130  12.9679700  27.4894770  37.6736760  14.0198570  28.1817210
  21.8225500  13.8827620  24.1019560  22.5804860  13.9956500  23.5283590
  21.3602670  14.7196820  24.0562990  28.3639310  15.9966890  27.0921870
  27.5513820  15.6223780  26.7517750  28.8680950  15.2411970  27.3943060
  32.8664290  12.6609340  28.3304940  33.4693660  13.2329550  28.8053460
  32.1257280  13.2248780  28.1078840  36.0098890  13.0630900  23.6045220
  36.2049520  13.9614350  23.8712650  35.2228760  12.8317980  24.0978170
  24.1950650  14.4091670  22.6421530  24.7243410  13.6221470  22.5129480
  24.8278970  15.0882860  22.8757060  26.3888490  14.1466810  25.6966920
  25.7591230  13.4454120  25.8637050  25.8493630  14.9070940  25.4800080
  37.5625500  30.3031610  25.3651780  37.7377690  29.6169350  24.7212700
  36.8647070  30.8278660  24.9728450  26.5144050  13.4250790  38.1319410
  26.2328320  13.9284390  37.3680230  26.8963750  12.6272540  37.7661540
  33.1159510  12.8404370  38.7099880  33.0024960  13.1598980  39.6051400
  33.9329250  13.2416880  38.4137160  32.0217660  20.8596840   9.0734620
  31.9411710  19.9451450   8.8026330  31.6082080  21.3563910   8.3674330
  30.1535700  22.6375860  10.9543890  29.3777800  22.1576300  11.2442460
  30.8048630  21.9581510  10.7800050  24.1701530  22.9495670  11.8319650
  23.3386410  22.6944380  12.2316160  24.7782510  23.0206440  12.5677570
  34.1743130  27.0436050   9.7343020  33.7124660  26.2723290  10.0630190
  34.9868680  27.0702120  10.2395470  24.1502790  26.9835760  12.0277670
  24.4530830  26.0933500  11.8487890  24.8946380  27.5405980  11.7999920
  22.5793480  17.9097560   5.6162040  21.6910180  18.2513530   5.5141920
  22.8634670  17.7097880   4.7242870  20.5426490  20.5103210  11.5001740
  21.1142600  19.7425410  11.5005380  20.5428030  20.8091970  10.5908350
  30.4006440  29.3294060   9.3547010  29.7817880  29.7851560   8.7841450
  31.2558220  29.4845520   8.9536710  29.5944690  25.3133050  10.9614050
  29.5252970  24.3722990  10.8003180  30.3564550  25.4034460  11.5336620
  21.7851360  15.9187570  13.2870670  21.6054200  15.0213320  13.5673430
  21.3831440  16.4659440  13.9617620  30.6249860  18.1203430  11.1882980
  31.0014680  17.2475310  11.0756650  30.5269370  18.4562130  10.2973420
  24.7554870  16.4929060   6.6500420  24.8621620  17.3932790   6.9569180
  23.8447230  16.4447030   6.3595070  34.4073980  15.6153870   8.1211320
  35.2283600  15.1250440   8.1636800  34.4408060  16.2051530   8.8743160
  22.4038030  18.4148070  11.8953010  23.0848140  18.6786440  12.5140410
  22.0886080  17.5748940  12.2291020  26.5962600  19.4615430  10.9825600
  27.1040820  19.9596400  11.6230620  27.1275840  18.6850630  10.8064960
  38.6973530  17.6320620  14.6854950  37.9925700  18.0202330  14.1670060
  38.9631450  18.3270910  15.2875880  24.8798700  14.1013990  15.2489020
  24.8817140  14.6186380  14.4434920  24.0503010  13.6244170  15.2258950
  31.2669790  24.2133300   6.7478920  30.6487060  24.6782750   6.1841640
  31.7793040  24.9060780   7.1648430  26.1301550  23.7409170  13.4262520
  25.7970930  24.3678090  14.0683590  26.3068230  24.2671050  12.6464190
  34.6435460  17.5554250  10.8938860  33.9391030  17.8439140  11.4741970
  35.0047620  18.3654360  10.5338420  24.5614030  15.8123950  13.2559470
  24.9030840  16.6566000  12.9613340  23.6229840  15.9607690  13.3724810
  25.3420650  25.7089970  15.2411700  25.9594650  26.3841050  14.9596150
  24.4813770  26.1177950  15.1499200  20.6352990  24.8989830   4.1218550
  20.2580970  25.3876930   3.3903450  20.8926060  25.5715110   4.7525080
  36.2598240  27.1729380  13.1566340  35.5761760  27.8428490  13.1483010
  36.7992530  27.3710030  12.3911200  37.7122380  17.0009040  11.2848070
  36.7647290  17.0348020  11.4163500  38.0372370  17.8147990  11.6697430
  28.2441920  13.3006220   9.5804060  28.5516900  12.7453110   8.8639560
  27.3142620  13.4350680   9.3977050  33.7956980  29.0173510  11.8711520
  33.8084140  28.6135800  11.0033780  33.2432200  29.7920800  11.7672950
  35.0902400  25.7389730   6.9601690  34.9798730  24.7964060   7.0851110
  35.0870650  26.1005370   7.8464450  33.1942420  23.9203350  13.1994130
  33.6111210  23.7063460  12.3647590  33.9182240  24.1776140  13.7702750
  30.6322680  21.3655050   6.3164180  29.7051960  21.2992430   6.5452650
  30.7847500  22.3035180   6.2019420  30.6191760  17.6372050   3.3131340
  29.6795430  17.7986010   3.3983800  30.9375020  18.3557730   2.7667330
  37.1404520  22.3190570  13.2910370  36.3123150  22.3883660  12.8160500
  37.7355000  22.9044880  12.8226200  34.6619970  22.9275350   6.8199430
  34.0432390  22.5894900   6.1725730  34.6444420  22.2835110   7.5278620
  34.1046530  19.1059890  14.2365240  33.6917710  19.9313600  14.4905230
  33.3722480  18.5204930  14.0441600  26.2379320  21.8919790   9.0983910
  25.8336320  21.1797040   8.6029810  26.3242440  21.5473030   9.9871950
  26.7061020  25.5787350  11.2623120  26.4089310  24.9732820  10.5830900
  27.6560840  25.6164660  11.1512480  24.9507940  18.6663000  12.8782950
  25.5022530  18.7758340  12.1036200  25.4651450  19.0400600  13.5938180
  34.7946630  29.1519220  14.9246220  34.3177190  29.9591410  14.7318830
  34.1108420  28.4997550  15.0772430  32.8384670  22.1662160   3.8272180
  33.2777950  21.3284590   3.6810000  33.5513090  22.7991560   3.9136320
  24.6250670  22.1882360  16.4888290  24.4858440  23.0605160  16.8575690
  23.7432030  21.8455170  16.3436230  30.9480050  27.1058230   7.7953420
  31.3875960  27.8482560   7.3808810  30.8866940  27.3484800   8.7192380
  36.4201810  13.4204970   2.1413220  36.1074470  13.5131800   3.0412290
  37.1814280  13.9986000   2.0910650  22.9383950  20.7864770   6.5990560
  22.8181550  21.5126860   5.9871830  22.6284840  20.0167680   6.1218470
  38.3745840  28.9131160  19.9937610  38.8505560  29.3914050  20.6726690
  38.9953000  28.8448650  19.2683110  20.5769320  23.9579910  12.4059200
  20.6549740  24.0928680  11.4614920  21.1911000  23.2495800  12.5987320
  21.8216950  25.6580100   8.8165380  21.4145030  25.7994690   7.9618980
  22.7129960  25.3740260   8.6136590  37.7779090  26.1044010  17.1537620
  37.9042150  25.8655890  16.2354800  37.8200470  25.2728550  17.6259700
  31.6395830  29.8072010  15.7232430  32.1540500  29.7180020  16.5254860
  30.7964910  30.1531710  16.0160340  33.6150230  30.0927350   5.1516430
  33.4551370  29.8030290   6.0498260  33.4496940  29.3167480   4.6161660
  26.0938610  29.8725880   6.9288050  25.9181090  28.9561420   6.7155850
  25.2394350  30.2313170   7.1685850  33.3176360  27.6014910   3.7114430
  32.6241520  27.5992200   3.0516710  34.0599220  27.1774230   3.2808600
  32.8826290  29.2277620   7.7862920  33.3383240  28.4467000   8.1001540
  33.2218810  29.9384440   8.3304100  37.6303100  18.1576470  18.1187360
  37.0147370  18.6656140  17.5902820  37.3099520  17.2574800  18.0613300
  20.6328840  24.9994080  14.9453660  20.7959880  24.5299440  14.1273030
  21.0981290  24.4917640  15.6102500  25.4047610  14.1299840   9.9814230
  24.9615760  14.9109380   9.6498750  25.9632600  14.4529730  10.6885170
  29.6917420  16.9968360  15.5849550  29.2296790  17.2051380  16.3969490
  29.2895530  16.1827710  15.2820220  34.6921930  18.2177310  16.7146210
  33.8415520  17.9183060  17.0355280  34.5323720  18.4619320  15.8030030
  31.7871640  19.7179060  18.8145000  32.1125050  18.8842810  18.4747230
  32.5751970  20.2407580  18.9623330  28.5206430  13.7510540   4.8620060
  27.8960610  13.7470410   5.5873370  28.4336550  12.8841500   4.4656030
  27.4423510  14.6747170  11.8403830  27.7395840  15.5810000  11.7595850
  27.9909070  14.1865950  11.2263400  25.1961830  19.2533410   7.7095480
  24.9702750  19.0370580   8.6142100  24.4154360  19.6861870   7.3641450
  32.4259590  19.2596780   6.3086130  31.8268480  19.9832580   6.1249750
  32.9739200  19.1973560   5.5262580  27.6361040  20.1518990  18.3755750
  27.5404640  19.2113720  18.2256150  28.4793020  20.3734060  17.9803820
  31.0324460  17.8960320   8.3389410  31.4254030  18.2132520   7.5258100
  31.3941310  17.0172200   8.4533930  22.7671580  16.5632660  16.5289530
  22.3734970  17.4107870  16.7362310  22.0789980  15.9259030  16.7198170
  29.3416630  16.6467630  19.5986270  28.6514950  16.4539830  20.2332360
  30.0848930  16.9302270  20.1310570  20.0688630  14.4861120  10.5619610
  19.7801680  15.0563980  11.2744590  20.8134390  14.0065570  10.9250840
  31.6179600  20.4866070  12.4340190  30.8860720  20.9952880  12.7830290
  31.2203940  19.6696050  12.1328970  28.0556990  17.1620270  10.8392680
  28.0593050  16.7210220   9.9897220  28.9508110  17.4837600  10.9464500
  23.9059370  17.0446760   9.7986890  23.5659420  17.5221990  10.5553940
  23.1436690  16.5911880   9.4387990  28.1177140  18.1632350   3.8299440
  28.2389960  18.1218830   4.7785260  27.7325650  19.0256500   3.6746170
  32.0805510  15.9399750  11.8463130  32.0978250  16.3908400  12.6904980
  31.8321090  15.0405390  12.0596570  27.1298640  20.4733490   3.2282740
  26.5615540  20.0251740   2.6018650  27.8387640  20.8326270   2.6947890
  35.5076260  13.3531930  17.6849510  35.8322030  12.6221590  18.2107490
  35.5432770  13.0345570  16.7830500  22.2067820  24.3745510  17.1049470
  21.8222610  23.7339180  17.7032430  22.5180010  25.0781630  17.6744200
  28.3564960  21.2222050  12.5858090  28.7235090  20.7480620  13.3319430
  28.1670020  22.0963620  12.9266430  21.2205450  15.9665740   8.7151560
  20.9352370  15.6021410   9.5530180  21.1584310  15.2346200   8.1014700
  26.1464330  20.2630690  14.9042300  25.8421400  21.1422670  15.1292660
  27.1010790  20.3230480  14.9399740  24.6746120  24.4691680   5.5009150
  23.9008380  23.9289300   5.3407870  25.4040750  23.9498290   5.1626910
  35.4334100  23.4657040  11.2935540  36.1533220  23.9612330  10.9031650
  35.2315920  22.7874930  10.6489410  30.8944040  14.8595000   5.4364930
  30.0808650  14.3608170   5.3610240  30.7005990  15.6993250   5.0201280
  30.8152900  23.5366100  17.1804540  30.7490210  22.6161770  16.9262130
  30.1858040  23.6341540  17.8949180  33.6092430  19.2314650   3.7327090
  34.4972050  19.5431880   3.5578430  33.5797520  18.3586900   3.3407670
  24.7183520  24.1372060   9.1387960  25.2362190  23.3340320   9.0844850
  24.2667540  24.0751200   9.9804790  29.6053020  25.4038340   4.4115260
  29.9468720  26.1480570   3.9158580  28.7765730  25.7169460   4.7740090
  22.2028060  21.1033430  16.0513660  21.8443000  21.7687280  16.6387000
  21.9082620  20.2716980  16.4226280  25.4041180  21.5617670  18.9353210
  25.1041320  21.7074850  18.0381030  26.1752420  21.0022960  18.8426600
  30.7469630  26.3586670  16.9308340  30.7614170  25.4267630  16.7127250
  30.0394730  26.4446430  17.5698110  35.8806700  20.5426490   3.2006950
  35.7970420  20.9740710   2.3503390  36.6000890  21.0024840   3.6333770
  36.9580840  22.9994010  16.2776920  36.2329030  23.5922790  16.0806310
  37.4856300  22.9917550  15.4790290  36.9093950  27.3968750   5.9289080
  36.2670110  26.7424370   6.2032800  36.5224610  27.8023840   5.1529750
  32.4880430  24.7254180   9.7760770  32.8404250  24.1282310   9.1162140
  31.6042760  24.3998410   9.9469020  28.5743710  25.4851870   7.1831180
  29.2614840  26.0321080   7.5638770  27.7876130  26.0292600   7.2180790
  20.7136110  21.1024690   2.6748260  21.5830960  21.3849490   2.9584180
  20.2226430  21.9160560   2.5597070  27.8770920  22.4897900   6.7956540
  28.3333700  23.3003150   7.0216730  27.5259130  22.1721040   7.6275030
  30.1803530  28.0004240  14.0248840  30.8245750  28.2063620  14.7022260
  30.5432970  27.2392640  13.5719690  23.7782700  12.8335550   7.2679060
  23.6497330  12.8253450   8.2163980  22.9544720  13.1718640   6.9170070
  31.4535610  26.0036590  12.7426290  32.0957840  25.3029750  12.8558460
  31.9784960  26.7835030  12.5623180  35.2991330  26.2885210   2.4665430
  35.0728910  25.5715650   3.0590070  34.9087530  26.0397650   1.6287180
  33.2273230  26.8031490  15.9462350  33.5629470  27.3898180  16.6240270
  32.3073570  26.6724200  16.1760140  21.0807360  30.3152070   3.2409890
  21.4405000  30.9141410   2.5867160  20.9399700  30.8611960   4.0144920
  20.7776630  14.5926670  16.7285760  20.0635150  14.7923590  17.3338370
  21.1971670  13.8166240  17.1000560  34.8807580  24.2057150   4.1279590
  34.5929280  24.6669840   4.9157470  35.6759750  23.7454920   4.3963810
  27.0975980  27.6983270   4.0583560  27.0886080  28.4312960   3.4428070
  26.1774340  27.4514850   4.1510520  22.6982620  22.9198160   4.8030320
  22.0910570  23.6597060   4.8125620  23.1731970  23.0097520   3.9768520
  32.2715410  17.0848980  14.4787210  32.6396230  16.2644190  14.8066780
  31.4113610  17.1450870  14.8942860  35.6377440  16.0405920   5.2874770
  35.0090600  16.1451590   4.5733000  35.1429360  16.2602700   6.0768650
  30.0835580  27.7611510   2.7208750  30.1847560  27.5575500   1.7910730
  29.1837320  27.5069790   2.9256530  27.6061470  18.3191870   6.7032650
  26.8977620  18.7878210   7.1446260  27.8905950  17.6613880   7.3377840
  29.2317400  19.7388570  14.7025180  29.7302650  20.2134390  15.3677030
  29.3740350  18.8152090  14.9095210  31.6376900  15.0442530   8.1428440
  31.5144680  15.0628660   7.1937950  32.5861460  15.0921470   8.2626840
  28.7253690  30.2797830   7.4156420  28.9795190  30.2419220   6.4935790
  27.7766170  30.1531160   7.4084670  25.8096490  16.6276950   4.0783360
  26.6587020  17.0647100   4.0123550  25.4427760  16.9397210   4.9055420
  36.4384260  15.9556530  15.5453570  35.9357860  16.6961930  15.8847380
  37.2540920  16.3440530  15.2290360  34.7306270  21.1989710   8.9914930
  33.7896410  21.2139940   9.1662620  35.0450340  20.4125670   9.4375230
  24.7087910  22.8809310   2.5518890  25.4751180  22.7690670   3.1144320
  24.7862600  22.1847280   1.8995660  23.4034670  20.3134380   3.2351780
  23.4838260  19.3661890   3.3469180  24.2954420  20.6441260   3.3412440
  36.7331850  28.3698560  10.6669190  36.8579270  29.1929730  11.1393000
  37.5997410  28.1589290  10.3193340  24.2049380  30.4629770  10.3386320
  24.9411860  29.9145230  10.6094890  24.5890300  31.3285780  10.1992310
  21.0894860  26.5303340   6.2127830  20.1634640  26.7724480   6.2033240
  21.5551290  27.3577600   6.0912580  27.3151690  29.6360080   2.1611890
  28.1080300  29.9248910   1.7093680  26.7956040  29.2052250   1.4824370
  32.0472290  25.7555710  19.4747310  31.4410450  25.7787310  18.7343060
  31.7426400  25.0238750  20.0114560  33.4772660  29.4836000  18.0856720
  34.4294410  29.3994020  18.0356960  33.3300880  30.1477710  18.7590510
  36.3681860  28.8630210   3.5848630  36.0823370  28.4495350   2.7702810
  36.1701410  29.7917920   3.4649150  20.9305470  22.1349300  18.4707950
  21.4344490  21.5556580  19.0424180  20.1912890  22.4189530  19.0084320
  27.9843410  23.5420290  18.0043470  27.2189080  24.1105290  17.9198140
  28.1659370  23.2496500  17.1111700  31.0731820  23.9183520   2.6296230
  30.5241920  24.3652820   3.2738970  31.6951080  23.4132770   3.1533900
  35.1266760  25.2725620  18.5618490  35.8676230  25.6101380  18.0585950
  34.3639440  25.4417680  18.0088260  22.9628550  20.2778890  19.3658020
  23.0033890  19.9792760  20.2743250  23.8174050  20.6786500  19.2065540
  26.7406940  22.8774440   4.5261530  27.1623360  22.7114310   5.3692920
  26.8657780  22.0674670   4.0316670  24.9034360  18.8570990  17.3332510
  24.3730820  18.3661940  16.7055850  25.5722430  19.2855190  16.7990440
  33.8012420  23.3240450  17.0973700  34.2153440  23.4785530  17.9464120
  32.8663420  23.4495670  17.2599480  34.2734590  20.6636610  19.1012850
  34.8555360  19.9088930  19.0133330  34.4496360  21.1944050  18.3244330
  25.3906660  15.8233360  17.4129800  25.2963530  15.2054110  16.6880670
  24.8104050  16.5499650  17.1859710  28.1568100  14.3806600  14.4457190
  27.7085400  14.4030860  13.6002740  27.5233300  13.9825620  15.0427490
  28.5627650  23.2760930  15.0669630  28.9815760  24.1193660  14.8945870
  27.6436280  23.4132970  14.8376410  30.8991550  21.0077110  16.4507470
  31.0187760  20.4118250  17.1902310  31.7585550  21.0446800  16.0308770
  33.2379450  21.5614300  15.0269980  32.7114670  22.0856920  14.4235120
  33.5810790  22.1941690  15.6579710  26.4135070  29.5813940  16.1827360
  25.8756160  30.3060000  15.8636060  26.6669030  29.1044280  15.3924700
  27.6660320  17.5498460  17.7083290  28.2560010  17.2414310  18.3961110
  26.8480560  17.0778210  17.8643190  32.4853750  17.1664270  17.9416310
  31.7969270  16.5045810  17.8766300  33.2059770  16.7202540  18.3864770
  33.1154150  13.7615900   4.0006570  33.3956440  12.9183800   4.3565990
  32.3419880  13.9939010   4.5145320  29.2697280  30.8165150  16.4414010
  29.1955980  31.7200290  16.7486380  28.3676120  30.4977050  16.4136080
  27.6533570  14.9942910   2.4453770  27.3055570  14.3166900   1.8656220
  27.8546340  14.5332420   3.2597160  29.8182610  29.9823660   4.0640370
  30.7133400  30.3208630   4.0859130  29.8500240  29.2603070   3.4364650
  23.4578770  25.3550710   2.2927370  23.8953640  25.8980380   2.9484950
  23.9426500  24.5297660   2.3023710  20.6724570  28.1439740   9.7447630
  21.0027580  27.2760800   9.5126270  21.1015570  28.3498260  10.5752590
  25.2686490  26.4748750   7.4049600  24.9682030  26.3513720   8.3053510
  25.1623980  25.6157340   6.9965330  21.1614780  29.0110330  12.4829260
  20.7245770  29.1911130  13.3153410  21.7292460  29.7684950  12.3410980
  36.7976960  28.5127330  16.7706570  36.1978950  28.5719890  16.0270490
  36.9270860  27.5732310  16.9003420  38.0378410  26.2545150   2.1076280
  37.2071370  26.3221800   2.5783510  38.2150240  27.1449270   1.8043140
  37.4934870  22.9992630   4.6110480  38.2553780  23.5689280   4.7170170
  37.5089240  22.4319830   5.3818790  20.9939210  21.5230560   8.8418140
  20.3388050  21.2542200   8.1977840  21.8317160  21.4135040   8.3920120
  38.4994840  23.8542730   9.4552410  38.8703670  23.0710050   9.0488380
  39.1396770  24.5431830   9.2769710  35.4828600  25.2379310  14.8682730
  34.6688440  25.6676470  15.1308520  35.8902800  25.8497720  14.2551780
  37.5454040  23.2927000   1.7683000  37.8202880  24.2005880   1.6402220
  37.3564780  23.2289530   2.7044990  33.9429650  16.3171850   3.0636630
  34.3614530  16.1302830   2.2233290  33.6365710  15.4650900   3.3739560
  37.4419380  21.2295990   6.7612430  37.0662980  20.4623920   6.3293720
  36.7122500  21.6118690   7.2487360  22.0315140  21.9083130  13.3821480
  22.3988180  21.8210530  14.2617500  21.4625960  21.1449680  13.2828340
  36.8319000  20.3767510  16.3951950  36.6005090  20.1480260  15.4949900
  37.0923550  21.2967060  16.3496840  21.5831140  18.8192220  17.2879900
  20.6887190  18.7858980  17.6273610  22.1228690  19.0179010  18.0531150
  35.2707070  15.6023940  19.1731650  36.1477250  15.6107340  19.5565650
  35.2827910  14.8654780  18.5624000  20.2077290  18.7329490   4.7843470
  19.3041370  18.9959690   4.6095130  20.6917910  19.0040660   4.0043430
  36.7170340  19.4553480  10.0619670  37.2407820  18.9616130   9.4309840
  37.3029760  19.5903840  10.8067240  36.8960060  19.5393350  13.5839220
  35.9462770  19.5056890  13.6984210  37.0773070  20.4493460  13.3488990
  22.7504500  17.7895030   2.6937850  23.4596200  17.3678250   2.2085130
  22.0344440  17.8570260   2.0621200  36.2070310  18.7126830   6.0012080
  36.7029430  18.4797700   6.7860960  36.0086380  17.8738670   5.5849720
  22.0870850  13.0940550  11.6363120  22.7347040  12.5437930  11.1958280
  22.5072690  13.3483700  12.4578930  37.6357470  17.3487780   8.5349760
  37.5256750  17.1943820   9.4732030  38.3965060  16.8208720   8.2925170
  35.9823190  13.2881910  14.9932760  36.6195410  13.9016050  15.3591950
  36.1298080  13.3242570  14.0481990  38.5247740  15.1795700   1.7755900
  39.4497050  15.0476880   1.5674190  38.5023530  15.2588520   2.7292350
  38.5986230  15.9506360   4.4012610  37.8037730  15.8851480   4.9305520
  38.8029510  16.8857000   4.3897960  35.5404650  29.9897910   8.3951000
  36.1363720  29.6682480   7.7185420  35.7982800  29.5169730   9.1864270
  21.8402850  13.2496220  14.3788440  21.4917670  13.7060040  15.1446620
  21.5090550  12.3553350  14.4610870  27.1473250  27.9775410  14.1451350
  26.9064610  28.2449970  13.2581870  28.0875890  28.1481140  14.2002210
  29.3527670  14.4408100  17.9007860  29.2916560  15.0329930  18.6503270
  30.2928050  14.3334060  17.7558120  31.9902230  14.0978160  17.5400150
  32.6042640  14.4157450  16.8781230  32.5351790  13.6126750  18.1596010
  38.4077410  29.9969790  14.9461990  37.9135690  30.3938660  14.2289120
  37.7990700  29.3719000  15.3399270  22.5123490  12.7772420  17.6539210
  23.0606480  12.5960470  16.8905320  22.5778800  11.9866530  18.1895520
  32.7310270  12.6610300  13.8669440  31.8570110  12.9945410  13.6642370
  32.6221020  12.1883480  14.6921310  33.6382250  14.8681170  15.2511160
  33.3095610  14.0532930  14.8712890  34.5864550  14.8250980  15.1276850
  36.0916860  30.6393210  12.2248730  35.6319830  31.3909020  11.8506750
  35.4629320  29.9199680  12.1663530  22.9167480  26.7336450  14.6147450
  22.1901540  26.1141740  14.5473400  22.9776630  27.1277060  13.7445530
  26.5212580  28.9481450  11.3996860  27.0377600  28.3368810  10.8745120
  27.1709960  29.4510230  11.8907870  29.2608080  29.8389940  12.2265840
  29.5485890  29.5844240  11.3498850  29.7731300  29.2867300  12.8171410
  30.4785090  13.5780140  12.8062350  29.6956880  14.0525640  13.0859110
  30.1848020  12.6734970  12.6975530  35.0306160  14.2803240  10.8511440
  35.4714250  14.2248340  10.0033040  34.7613750  15.1961250  10.9221620
  36.8944730  13.9118480   8.8620260  36.8333130  12.9679700   8.7151280
  37.6736760  14.0198570   9.4073720  21.1997480  30.0510840   7.8244210
  21.0319520  29.4181520   8.5226100  20.3331990  30.2570240   7.4738400
  21.8225500  13.8827620   5.3276070  22.5804860  13.9956500   4.7540100
  21.3602670  14.7196820   5.2819500  28.3639310  15.9966890   8.3178380
  27.5513820  15.6223780   7.9774260  28.8680950  15.2411970   8.6199570
  32.8664290  12.6609340   9.5561450  33.4693660  13.2329550  10.0309970
  32.1257280  13.2248780   9.3335350  36.0098890  13.0630900   4.8301730
  36.2049520  13.9614350   5.0969160  35.2228760  12.8317980   5.3234680
  22.8060180  28.7444070   5.2694350  22.2807800  29.1252100   4.5656310
  22.7304760  29.3694840   5.9904060  24.1950650  14.4091670   3.8678040
  24.7243410  13.6221470   3.7385990  24.8278970  15.0882860   4.1013570
  26.3888490  14.1466810   6.9223430  25.7591230  13.4454120   7.0893560
  25.8493630  14.9070940   6.7056590  37.5625500  30.3031610   6.5908290
  37.7377690  29.6169350   5.9469210  36.8647070  30.8278660   6.1984960
  26.5144050  13.4250790  19.3575920  26.2328320  13.9284390  18.5936740
  26.8963750  12.6272540  18.9918050  25.4053150  30.6926450   4.1443600
  26.1371970  30.4085730   3.5967490  25.6646820  30.4539730   5.0342980
  24.5667940  26.8091180   4.1489930  23.9376820  27.2776280   4.6975760
  24.6815770  25.9640400   4.5836120  33.1159510  12.8404370  19.9356390
  33.0024960  13.1598980  20.8307910  33.9329250  13.2416880  19.6393670
  35.8958000  29.9875900  19.4175080  36.6883320  29.4925130  19.2101040
  36.1891150  30.6666040  20.0250690  30.1535700   3.8632370  48.5030870
  29.3777800   3.3832810  48.7929440  30.8048630   3.1838020  48.3287030
  24.1701530   4.1752180  49.3806630  23.3386410   3.9200890  49.7803140
  24.7782510   4.2462950  50.1164550  34.1743130   8.2692560  47.2830000
  33.7124660   7.4979800  47.6117170  34.9868680   8.2958630  47.7882450
  24.1502790   8.2092270  49.5764650  24.4530830   7.3190010  49.3974870
  24.8946380   8.7662490  49.3486900  30.4006440  10.5550570  46.9033990
  29.7817880  11.0108070  46.3328430  31.2558220  10.7102030  46.5023690
  29.5944690   6.5389560  48.5101030  29.5252970   5.5979500  48.3490160
  30.3564550   6.6290970  49.0823600  31.2669790   5.4389810  44.2965900
  30.6487060   5.9039260  43.7328620  31.7793040   6.1317290  44.7135410
  26.1301550   4.9665680  50.9749500  25.7970930   5.5934600  51.6170570
  26.3068230   5.4927560  50.1951170  25.3420650   6.9346480  52.7898680
  25.9594650   7.6097560  52.5083130  24.4813770   7.3434460  52.6986180
  20.6352990   6.1246340  41.6705530  20.2580970   6.6133440  40.9390430
  20.8926060   6.7971620  42.3012060  36.2598240   8.3985890  50.7053320
  35.5761760   9.0685000  50.6969990  36.7992530   8.5966540  49.9398180
  33.7956980  10.2430020  49.4198500  33.8084140   9.8392310  48.5520760
  33.2432200  11.0177310  49.3159930  35.0902400   6.9646240  44.5088670
  34.9798730   6.0220570  44.6338090  35.0870650   7.3261880  45.3951430
  33.1942420   5.1459860  50.7481110  33.6111210   4.9319970  49.9134570
  33.9182240   5.4032650  51.3189730  30.6322680   2.5911560  43.8651160
  29.7051960   2.5248940  44.0939630  30.7847500   3.5291690  43.7506400
  37.1404520   3.5447080  50.8397350  36.3123150   3.6140170  50.3647480
  37.7355000   4.1301390  50.3713180  34.6619970   4.1531860  44.3686410
  34.0432390   3.8151410  43.7212710  34.6444420   3.5091620  45.0765600
  26.2379320   3.1176300  46.6470890  25.8336320   2.4053550  46.1516790
  26.3242440   2.7729540  47.5358930  26.7061020   6.8043860  48.8110100
  26.4089310   6.1989330  48.1317880  27.6560840   6.8421170  48.6999460
  34.7946630  10.3775730  52.4733200  34.3177190  11.1847920  52.2805810
  34.1108420   9.7254060  52.6259410  25.7979450   6.5425550  55.4617900
  24.9007980   6.7665520  55.7091300  25.8232320   6.6660490  54.5129300
  32.8384670   3.3918670  41.3759160  33.2777950   2.5541100  41.2296980
  33.5513090   4.0248070  41.4623300  24.6250670   3.4138870  54.0375270
  24.4858440   4.2861670  54.4062670  23.7432030   3.0711680  53.8923210
  30.9480050   8.3314740  45.3440400  31.3875960   9.0739070  44.9295790
  30.8866940   8.5741310  46.2679360  26.4231020   9.3560570  56.2460420
  26.3946450   9.7603520  55.3788850  26.2595990   8.4270930  56.0832020
  20.5769320   5.1836420  49.9546180  20.6549740   5.3185190  49.0101900
  21.1911000   4.4752310  50.1474300  21.8216950   6.8836610  46.3652360
  21.4145030   7.0251200  45.5105960  22.7129960   6.5996770  46.1623570
  37.7779090   7.3300520  54.7024600  37.9042150   7.0912400  53.7841780
  37.8200470   6.4985060  55.1746680  31.6395830  11.0328520  53.2719410
  32.1540500  10.9436530  54.0741840  30.7964910  11.3788220  53.5647320
  33.6150230  11.3183860  42.7003410  33.4551370  11.0286800  43.5985240
  33.4496940  10.5423990  42.1648640  26.0938610  11.0982390  44.4775030
  25.9181090  10.1817930  44.2642830  25.2394350  11.4569680  44.7172830
  33.3176360   8.8271420  41.2601410  32.6241520   8.8248710  40.6003690
  34.0599220   8.4030740  40.8295580  32.8826290  10.4534130  45.3349900
  33.3383240   9.6723510  45.6488520  33.2218810  11.1640950  45.8791080
  20.6328840   6.2250590  52.4940640  20.7959880   5.7555950  51.6760010
  21.0981290   5.7174150  53.1589480  22.2067820   5.6002020  54.6536450
  21.8222610   4.9595690  55.2519410  22.5180010   6.3038140  55.2231180
  28.3564960   2.4478560  50.1345070  28.7235090   1.9737130  50.8806410
  28.1670020   3.3220130  50.4753410  24.6746120   5.6948190  43.0496130
  23.9008380   5.1545810  42.8894850  25.4040750   5.1754800  42.7113890
  35.4334100   4.6913550  48.8422520  36.1533220   5.1868840  48.4518630
  35.2315920   4.0131440  48.1976390  30.8152900   4.7622610  54.7291520
  30.7490210   3.8418280  54.4749110  30.1858040   4.8598050  55.4436160
  24.7183520   5.3628570  46.6874940  25.2362190   4.5596830  46.6331830
  24.2667540   5.3007710  47.5291770  29.6053020   6.6294850  41.9602240
  29.9468720   7.3737080  41.4645560  28.7765730   6.9425970  42.3227070
  25.4041180   2.7874180  56.4840190  25.1041320   2.9331360  55.5868010
  26.1752420   2.2279470  56.3913580  30.7469630   7.5843180  54.4795320
  30.7614170   6.6524140  54.2614230  30.0394730   7.6702940  55.1185090
  35.8806700   1.7683000  40.7493930  35.7970420   2.1997220  39.8990370
  36.6000890   2.2281350  41.1820750  36.9580840   4.2250520  53.8263900
  36.2329030   4.8179300  53.6293290  37.4856300   4.2174060  53.0277270
  36.9093950   8.6225260  43.4776060  36.2670110   7.9680880  43.7519780
  36.5224610   9.0280350  42.7016730  32.4880430   5.9510690  47.3247750
  32.8404250   5.3538820  46.6649120  31.6042760   5.6254920  47.4956000
  28.5743710   6.7108380  44.7318160  29.2614840   7.2577590  45.1125750
  27.7876130   7.2549110  44.7667770  20.7136110   2.3281200  40.2235240
  21.5830960   2.6106000  40.5071160  20.2226430   3.1417070  40.1084050
  27.8770920   3.7154410  44.3443520  28.3333700   4.5259660  44.5703710
  27.5259130   3.3977550  45.1762010  30.1803530   9.2260750  51.5735820
  30.8245750   9.4320130  52.2509240  30.5432970   8.4649150  51.1206670
  31.4535610   7.2293100  50.2913270  32.0957840   6.5286260  50.4045440
  31.9784960   8.0091540  50.1110160  35.2991330   7.5141720  40.0152410
  35.0728910   6.7972160  40.6077050  34.9087530   7.2654160  39.1774160
  33.2273230   8.0288000  53.4949330  33.5629470   8.6154690  54.1727250
  32.3073570   7.8980710  53.7247120  21.0807360  11.5408580  40.7896870
  21.4405000  12.1397920  40.1354140  20.9399700  12.0868470  41.5631900
  34.8807580   5.4313660  41.6766570  34.5929280   5.8926350  42.4644450
  35.6759750   4.9711430  41.9450790  21.0649220   9.8063440  55.2639270
  21.1740340   8.8658180  55.1234660  20.4129780  10.0718190  54.6153000
  29.0561810   8.0779330  56.6637390  28.7358680   7.3588570  57.2083080
  28.3820170   8.7534400  56.7373450  27.0975980   8.9239780  41.6070540
  27.0886080   9.6569470  40.9915050  26.1774340   8.6771360  41.6997500
  22.6982620   4.1454670  42.3517300  22.0910570   4.8853570  42.3612600
  23.1731970   4.2354030  41.5255500  30.0835580   8.9868020  40.2695730
  30.1847560   8.7832010  39.3397710  29.1837320   8.7326300  40.4743510
  28.7253690  11.5054340  44.9643400  28.9795190  11.4675730  44.0422770
  27.7766170  11.3787670  44.9571650  24.7087910   4.1065820  40.1005870
  25.4751180   3.9947180  40.6631300  24.7862600   3.4103790  39.4482640
  36.7331850   9.5955070  48.2156170  36.8579270  10.4186240  48.6879980
  37.5997410   9.3845800  47.8680320  24.2049380  11.6886280  47.8873300
  24.9411860  11.1401740  48.1581870  24.5890300  12.5542290  47.7479290
  21.0894860   7.7559850  43.7614810  20.1634640   7.9980990  43.7520220
  21.5551290   8.5834110  43.6399560  27.3151690  10.8616590  39.7098870
  28.1080300  11.1505420  39.2580660  26.7956040  10.4308760  39.0311350
  33.4772660  10.7092510  55.6343700  34.4294410  10.6250530  55.5843940
  33.3300880  11.3734220  56.3077490  36.3681860  10.0886720  41.1335610
  36.0823370   9.6751860  40.3189790  36.1701410  11.0174430  41.0136130
  20.9305470   3.3605810  56.0194930  21.4344490   2.7813090  56.5911160
  20.1912890   3.6446040  56.5571300  27.8329090   6.0820000  39.5741220
  27.7279730   5.4672350  40.3002600  27.6653310   5.5585890  38.7904230
  27.9843410   4.7676800  55.5530450  27.2189080   5.3361800  55.4685120
  28.1659370   4.4753010  54.6598680  31.0731820   5.1440030  40.1783210
  30.5241920   5.5909330  40.8225950  31.6951080   4.6389280  40.7020880
  35.1266760   6.4982130  56.1105470  35.8676230   6.8357890  55.6072930
  34.3639440   6.6674190  55.5575240  26.7406940   4.1030950  42.0748510
  27.1623360   3.9370820  42.9179900  26.8657780   3.2931180  41.5803650
  29.2534580   3.1268560  39.3225610  29.7740240   2.4117580  38.9566760
  29.9002980   3.7654430  39.6226120  33.8012420   4.5496960  54.6460680
  34.2153440   4.7042040  55.4951100  32.8663420   4.6752180  54.8086460
  28.5627650   4.5017440  52.6156610  28.9815760   5.3450170  52.4432850
  27.6436280   4.6389480  52.3863390  33.2379450   2.7870810  52.5756960
  32.7114670   3.3113430  51.9722100  33.5810790   3.4198200  53.2066690
  26.4135070  10.8070450  53.7314340  25.8756160  11.5316510  53.4123040
  26.6669030  10.3300790  52.9411680  29.2697280  12.0421660  53.9900990
  29.1955980  12.9456800  54.2973360  28.3676120  11.7233560  53.9623060
  29.8182610  11.2080170  41.6127350  30.7133400  11.5465140  41.6346110
  29.8500240  10.4859580  40.9851630  23.4578770   6.5807220  39.8414350
  23.8953640   7.1236890  40.4971930  23.9426500   5.7554170  39.8510690
  20.6724570   9.3696250  47.2934610  21.0027580   8.5017310  47.0613250
  21.1015570   9.5754770  48.1239570  25.2686490   7.7005260  44.9536580
  24.9682030   7.5770230  45.8540490  25.1623980   6.8413850  44.5452310
  21.1614780  10.2366840  50.0316240  20.7245770  10.4167640  50.8640390
  21.7292460  10.9941460  49.8897960  36.7976960   9.7383840  54.3193550
  36.1978950   9.7976400  53.5757470  36.9270860   8.7988820  54.4490400
  38.0378410   7.4801660  39.6563260  37.2071370   7.5478310  40.1270490
  38.2150240   8.3705780  39.3530120  37.4934870   4.2249140  42.1597460
  38.2553780   4.7945790  42.2657150  37.5089240   3.6576340  42.9305770
  20.9939210   2.7487070  46.3905120  20.3388050   2.4798710  45.7464820
  21.8317160   2.6391550  45.9407100  38.4994840   5.0799240  47.0039390
  38.8703670   4.2966560  46.5975360  39.1396770   5.7688340  46.8256690
  35.4828600   6.4635820  52.4169710  34.6688440   6.8932980  52.6795500
  35.8902800   7.0754230  51.8038760  37.5454040   4.5183510  39.3169980
  37.8202880   5.4262390  39.1889200  37.3564780   4.4546040  40.2531970
  37.4419380   2.4552500  44.3099410  37.0662980   1.6880430  43.8780700
  36.7122500   2.8375200  44.7974340  22.0315140   3.1339640  50.9308460
  22.3988180   3.0467040  51.8104480  21.4625960   2.3706190  50.8315320
  35.5404650  11.2154420  45.9437980  36.1363720  10.8938990  45.2672400
  35.7982800  10.7426240  46.7351250  23.4467220   7.6472330  56.0928610
  23.4036850   7.2765240  56.9743070  23.5778230   8.5849900  56.2330430
  27.1473250   9.2031920  51.6938330  26.9064610   9.4706480  50.8068850
  28.0875890   9.3737650  51.7489190  38.4077410  11.2226300  52.4948970
  37.9135690  11.6195170  51.7776100  37.7990700  10.5975510  52.8886250
  23.2855250  10.5934580  53.2126390  22.6915570  10.4619280  53.9516430
  23.2779090   9.7572720  52.7468490  36.0916860  11.8649720  49.7735710
  35.6319830  12.6165530  49.3993730  35.4629320  11.1456190  49.7150510
  22.9167480   7.9592960  52.1634430  22.1901540   7.3398250  52.0960380
  22.9776630   8.3533570  51.2932510  26.5212580  10.1737960  48.9483840
  27.0377600   9.5625320  48.4232100  27.1709960  10.6766740  49.4394850
  29.2608080  11.0646450  49.7752820  29.5485890  10.8100750  48.8985830
  29.7731300  10.5123810  50.3658390  21.1997480  11.2767350  45.3731190
  21.0319520  10.6438030  46.0713080  20.3331990  11.4826750  45.0225380
  22.8060180   9.9700580  42.8181330  22.2807800  10.3508610  42.1143290
  22.7304760  10.5951350  43.5391040  29.3280440  11.9862550  57.1421020
  30.2547750  11.7506820  57.1856980  29.3130870  12.8134550  56.6607050
  37.5625500  11.5288120  44.1395270  37.7377690  10.8425860  43.4956190
  36.8647070  12.0535170  43.7471940  25.4053150  11.9182960  41.6930580
  26.1371970  11.6342240  41.1454470  25.6646820  11.6796240  42.5829960
  24.5667940   8.0347690  41.6976910  23.9376820   8.5032790  42.2462740
  24.6815770   7.1896910  42.1323100  30.1535700   3.8632370  29.7287380
  29.3777800   3.3832810  30.0185950  30.8048630   3.1838020  29.5543540
  24.1701530   4.1752180  30.6063140  23.3386410   3.9200890  31.0059650
  24.7782510   4.2462950  31.3421060  34.1743130   8.2692560  28.5086510
  33.7124660   7.4979800  28.8373680  34.9868680   8.2958630  29.0138960
  24.1502790   8.2092270  30.8021160  24.4530830   7.3190010  30.6231380
  24.8946380   8.7662490  30.5743410  30.4006440  10.5550570  28.1290500
  29.7817880  11.0108070  27.5584940  31.2558220  10.7102030  27.7280200
  29.5944690   6.5389560  29.7357540  29.5252970   5.5979500  29.5746670
  30.3564550   6.6290970  30.3080110  31.2669790   5.4389810  25.5222410
  30.6487060   5.9039260  24.9585130  31.7793040   6.1317290  25.9391920
  26.1301550   4.9665680  32.2006010  25.7970930   5.5934600  32.8427080
  26.3068230   5.4927560  31.4207680  25.3420650   6.9346480  34.0155190
  25.9594650   7.6097560  33.7339640  24.4813770   7.3434460  33.9242690
  20.6352990   6.1246340  22.8962040  20.2580970   6.6133440  22.1646940
  20.8926060   6.7971620  23.5268570  36.2598240   8.3985890  31.9309830
  35.5761760   9.0685000  31.9226500  36.7992530   8.5966540  31.1654690
  33.7956980  10.2430020  30.6455010  33.8084140   9.8392310  29.7777270
  33.2432200  11.0177310  30.5416440  35.0902400   6.9646240  25.7345180
  34.9798730   6.0220570  25.8594600  35.0870650   7.3261880  26.6207940
  33.1942420   5.1459860  31.9737620  33.6111210   4.9319970  31.1391080
  33.9182240   5.4032650  32.5446240  30.6322680   2.5911560  25.0907670
  29.7051960   2.5248940  25.3196140  30.7847500   3.5291690  24.9762910
  37.1404520   3.5447080  32.0653860  36.3123150   3.6140170  31.5903990
  37.7355000   4.1301390  31.5969690  34.6619970   4.1531860  25.5942920
  34.0432390   3.8151410  24.9469220  34.6444420   3.5091620  26.3022110
  26.2379320   3.1176300  27.8727400  25.8336320   2.4053550  27.3773300
  26.3242440   2.7729540  28.7615440  26.7061020   6.8043860  30.0366610
  26.4089310   6.1989330  29.3574390  27.6560840   6.8421170  29.9255970
  34.7946630  10.3775730  33.6989710  34.3177190  11.1847920  33.5062320
  34.1108420   9.7254060  33.8515920  25.7979450   6.5425550  36.6874410
  24.9007980   6.7665520  36.9347810  25.8232320   6.6660490  35.7385810
  32.8384670   3.3918670  22.6015670  33.2777950   2.5541100  22.4553490
  33.5513090   4.0248070  22.6879810  24.6250670   3.4138870  35.2631780
  24.4858440   4.2861670  35.6319180  23.7432030   3.0711680  35.1179720
  30.9480050   8.3314740  26.5696910  31.3875960   9.0739070  26.1552300
  30.8866940   8.5741310  27.4935870  26.4231020   9.3560570  37.4716930
  26.3946450   9.7603520  36.6045360  26.2595990   8.4270930  37.3088530
  38.3745840  10.1387670  38.7681100  38.8505560  10.6170560  39.4470180
  38.9953000  10.0705160  38.0426600  20.5769320   5.1836420  31.1802690
  20.6549740   5.3185190  30.2358410  21.1911000   4.4752310  31.3730810
  21.8216950   6.8836610  27.5908870  21.4145030   7.0251200  26.7362470
  22.7129960   6.5996770  27.3880080  37.7779090   7.3300520  35.9281110
  37.9042150   7.0912400  35.0098290  37.8200470   6.4985060  36.4003190
  31.6395830  11.0328520  34.4975920  32.1540500  10.9436530  35.2998350
  30.7964910  11.3788220  34.7903830  33.6150230  11.3183860  23.9259920
  33.4551370  11.0286800  24.8241750  33.4496940  10.5423990  23.3905150
  26.0938610  11.0982390  25.7031540  25.9181090  10.1817930  25.4899340
  25.2394350  11.4569680  25.9429340  33.3176360   8.8271420  22.4857920
  32.6241520   8.8248710  21.8260200  34.0599220   8.4030740  22.0552090
  32.8826290  10.4534130  26.5606410  33.3383240   9.6723510  26.8745030
  33.2218810  11.1640950  27.1047590  20.6328840   6.2250590  33.7197150
  20.7959880   5.7555950  32.9016520  21.0981290   5.7174150  34.3845990
  22.2067820   5.6002020  35.8792960  21.8222610   4.9595690  36.4775920
  22.5180010   6.3038140  36.4487690  28.3564960   2.4478560  31.3601580
  28.7235090   1.9737130  32.1062920  28.1670020   3.3220130  31.7009920
  24.6746120   5.6948190  24.2752640  23.9008380   5.1545810  24.1151360
  25.4040750   5.1754800  23.9370400  35.4334100   4.6913550  30.0679030
  36.1533220   5.1868840  29.6775140  35.2315920   4.0131440  29.4232900
  30.8152900   4.7622610  35.9548030  30.7490210   3.8418280  35.7005620
  30.1858040   4.8598050  36.6692670  24.7183520   5.3628570  27.9131450
  25.2362190   4.5596830  27.8588340  24.2667540   5.3007710  28.7548280
  29.6053020   6.6294850  23.1858750  29.9468720   7.3737080  22.6902070
  28.7765730   6.9425970  23.5483580  25.4041180   2.7874180  37.7096700
  25.1041320   2.9331360  36.8124520  26.1752420   2.2279470  37.6170090
  30.7469630   7.5843180  35.7051830  30.7614170   6.6524140  35.4870740
  30.0394730   7.6702940  36.3441600  35.8806700   1.7683000  21.9750440
  35.7970420   2.1997220  21.1246880  36.6000890   2.2281350  22.4077260
  36.9580840   4.2250520  35.0520410  36.2329030   4.8179300  34.8549800
  37.4856300   4.2174060  34.2533780  36.9093950   8.6225260  24.7032570
  36.2670110   7.9680880  24.9776290  36.5224610   9.0280350  23.9273240
  32.4880430   5.9510690  28.5504260  32.8404250   5.3538820  27.8905630
  31.6042760   5.6254920  28.7212510  28.5743710   6.7108380  25.9574670
  29.2614840   7.2577590  26.3382260  27.7876130   7.2549110  25.9924280
  20.7136110   2.3281200  21.4491750  21.5830960   2.6106000  21.7327670
  20.2226430   3.1417070  21.3340560  27.8770920   3.7154410  25.5700030
  28.3333700   4.5259660  25.7960220  27.5259130   3.3977550  26.4018520
  30.1803530   9.2260750  32.7992330  30.8245750   9.4320130  33.4765750
  30.5432970   8.4649150  32.3463180  31.4535610   7.2293100  31.5169780
  32.0957840   6.5286260  31.6301950  31.9784960   8.0091540  31.3366670
  35.2991330   7.5141720  21.2408920  35.0728910   6.7972160  21.8333560
  34.9087530   7.2654160  20.4030670  33.2273230   8.0288000  34.7205840
  33.5629470   8.6154690  35.3983760  32.3073570   7.8980710  34.9503630
  21.0807360  11.5408580  22.0153380  21.4405000  12.1397920  21.3610650
  20.9399700  12.0868470  22.7888410  34.8807580   5.4313660  22.9023080
  34.5929280   5.8926350  23.6900960  35.6759750   4.9711430  23.1707300
  21.0649220   9.8063440  36.4895780  21.1740340   8.8658180  36.3491170
  20.4129780  10.0718190  35.8409510  29.0561810   8.0779330  37.8893900
  28.7358680   7.3588570  38.4339590  28.3820170   8.7534400  37.9629960
  27.0975980   8.9239780  22.8327050  27.0886080   9.6569470  22.2171560
  26.1774340   8.6771360  22.9254010  22.6982620   4.1454670  23.5773810
  22.0910570   4.8853570  23.5869110  23.1731970   4.2354030  22.7512010
  30.0835580   8.9868020  21.4952240  30.1847560   8.7832010  20.5654220
  29.1837320   8.7326300  21.7000020  28.7253690  11.5054340  26.1899910
  28.9795190  11.4675730  25.2679280  27.7766170  11.3787670  26.1828160
  24.7087910   4.1065820  21.3262380  25.4751180   3.9947180  21.8887810
  24.7862600   3.4103790  20.6739150  36.7331850   9.5955070  29.4412680
  36.8579270  10.4186240  29.9136490  37.5997410   9.3845800  29.0936830
  24.2049380  11.6886280  29.1129810  24.9411860  11.1401740  29.3838380
  24.5890300  12.5542290  28.9735800  21.0894860   7.7559850  24.9871320
  20.1634640   7.9980990  24.9776730  21.5551290   8.5834110  24.8656070
  23.2107660  10.8732350  38.3015390  24.0120390  11.1944400  38.7150790
  22.6959480  10.5127930  39.0235300  27.3151690  10.8616590  20.9355380
  28.1080300  11.1505420  20.4837170  26.7956040  10.4308760  20.2567860
  32.0472290   6.9812220  38.2490800  31.4410450   7.0043820  37.5086550
  31.7426400   6.2495260  38.7858050  33.4772660  10.7092510  36.8600210
  34.4294410  10.6250530  36.8100450  33.3300880  11.3734220  37.5334000
  36.3681860  10.0886720  22.3592120  36.0823370   9.6751860  21.5446300
  36.1701410  11.0174430  22.2392640  20.9305470   3.3605810  37.2451440
  21.4344490   2.7813090  37.8167670  20.1912890   3.6446040  37.7827810
  27.8329090   6.0820000  20.7997730  27.7279730   5.4672350  21.5259110
  27.6653310   5.5585890  20.0160740  27.9843410   4.7676800  36.7786960
  27.2189080   5.3361800  36.6941630  28.1659370   4.4753010  35.8855190
  31.0731820   5.1440030  21.4039720  30.5241920   5.5909330  22.0482460
  31.6951080   4.6389280  21.9277390  35.1266760   6.4982130  37.3361980
  35.8676230   6.8357890  36.8329440  34.3639440   6.6674190  36.7831750
  26.7406940   4.1030950  23.3005020  27.1623360   3.9370820  24.1436410
  26.8657780   3.2931180  22.8060160  29.2534580   3.1268560  20.5482120
  29.7740240   2.4117580  20.1823270  29.9002980   3.7654430  20.8482630
  33.8012420   4.5496960  35.8717190  34.2153440   4.7042040  36.7207610
  32.8663420   4.6752180  36.0342970  28.5627650   4.5017440  33.8413120
  28.9815760   5.3450170  33.6689360  27.6436280   4.6389480  33.6119900
  33.2379450   2.7870810  33.8013470  32.7114670   3.3113430  33.1978610
  33.5810790   3.4198200  34.4323200  26.4135070  10.8070450  34.9570850
  25.8756160  11.5316510  34.6379550  26.6669030  10.3300790  34.1668190
  29.2697280  12.0421660  35.2157500  29.1955980  12.9456800  35.5229870
  28.3676120  11.7233560  35.1879570  29.8182610  11.2080170  22.8383860
  30.7133400  11.5465140  22.8602620  29.8500240  10.4859580  22.2108140
  23.4578770   6.5807220  21.0670860  23.8953640   7.1236890  21.7228440
  23.9426500   5.7554170  21.0767200  20.6724570   9.3696250  28.5191120
  21.0027580   8.5017310  28.2869760  21.1015570   9.5754770  29.3496080
  25.2686490   7.7005260  26.1793090  24.9682030   7.5770230  27.0797000
  25.1623980   6.8413850  25.7708820  21.1614780  10.2366840  31.2572750
  20.7245770  10.4167640  32.0896900  21.7292460  10.9941460  31.1154470
  36.7976960   9.7383840  35.5450060  36.1978950   9.7976400  34.8013980
  36.9270860   8.7988820  35.6746910  38.0378410   7.4801660  20.8819770
  37.2071370   7.5478310  21.3527000  38.2150240   8.3705780  20.5786630
  37.4934870   4.2249140  23.3853970  38.2553780   4.7945790  23.4913660
  37.5089240   3.6576340  24.1562280  20.9939210   2.7487070  27.6161630
  20.3388050   2.4798710  26.9721330  21.8317160   2.6391550  27.1663610
  38.4994840   5.0799240  28.2295900  38.8703670   4.2966560  27.8231870
  39.1396770   5.7688340  28.0513200  35.4828600   6.4635820  33.6426220
  34.6688440   6.8932980  33.9052010  35.8902800   7.0754230  33.0295270
  37.5454040   4.5183510  20.5426490  37.8202880   5.4262390  20.4145710
  37.3564780   4.4546040  21.4788480  37.4419380   2.4552500  25.5355920
  37.0662980   1.6880430  25.1037210  36.7122500   2.8375200  26.0230850
  22.0315140   3.1339640  32.1564970  22.3988180   3.0467040  33.0360990
  21.4625960   2.3706190  32.0571830  35.5404650  11.2154420  27.1694490
  36.1363720  10.8938990  26.4928910  35.7982800  10.7426240  27.9607760
  23.4467220   7.6472330  37.3185120  23.4036850   7.2765240  38.1999580
  23.5778230   8.5849900  37.4586940  27.1473250   9.2031920  32.9194840
  26.9064610   9.4706480  32.0325360  28.0875890   9.3737650  32.9745700
  38.4077410  11.2226300  33.7205480  37.9135690  11.6195170  33.0032610
  37.7990700  10.5975510  34.1142760  23.2855250  10.5934580  34.4382900
  22.6915570  10.4619280  35.1772940  23.2779090   9.7572720  33.9725000
  36.0916860  11.8649720  30.9992220  35.6319830  12.6165530  30.6250240
  35.4629320  11.1456190  30.9407020  22.9167480   7.9592960  33.3890940
  22.1901540   7.3398250  33.3216890  22.9776630   8.3533570  32.5189020
  26.5212580  10.1737960  30.1740350  27.0377600   9.5625320  29.6488610
  27.1709960  10.6766740  30.6651360  29.2608080  11.0646450  31.0009330
  29.5485890  10.8100750  30.1242340  29.7731300  10.5123810  31.5914900
  21.1997480  11.2767350  26.5987700  21.0319520  10.6438030  27.2969590
  20.3331990  11.4826750  26.2481890  22.8060180   9.9700580  24.0437840
  22.2807800  10.3508610  23.3399800  22.7304760  10.5951350  24.7647550
  29.3280440  11.9862550  38.3677530  30.2547750  11.7506820  38.4113490
  29.3130870  12.8134550  37.8863560  37.5625500  11.5288120  25.3651780
  37.7377690  10.8425860  24.7212700  36.8647070  12.0535170  24.9728450
  25.4053150  11.9182960  22.9187090  26.1371970  11.6342240  22.3710980
  25.6646820  11.6796240  23.8086470  24.5667940   8.0347690  22.9233420
  23.9376820   8.5032790  23.4719250  24.6815770   7.1896910  23.3579610
  35.8958000  11.2132410  38.1918570  36.6883320  10.7181640  37.9844530
  36.1891150  11.8922550  38.7994180  30.1535700   3.8632370  10.9543890
  29.3777800   3.3832810  11.2442460  30.8048630   3.1838020  10.7800050
  24.1701530   4.1752180  11.8319650  23.3386410   3.9200890  12.2316160
  24.7782510   4.2462950  12.5677570  34.1743130   8.2692560   9.7343020
  33.7124660   7.4979800  10.0630190  34.9868680   8.2958630  10.2395470
  24.1502790   8.2092270  12.0277670  24.4530830   7.3190010  11.8487890
  24.8946380   8.7662490  11.7999920  30.4006440  10.5550570   9.3547010
  29.7817880  11.0108070   8.7841450  31.2558220  10.7102030   8.9536710
  29.5944690   6.5389560  10.9614050  29.5252970   5.5979500  10.8003180
  30.3564550   6.6290970  11.5336620  31.2669790   5.4389810   6.7478920
  30.6487060   5.9039260   6.1841640  31.7793040   6.1317290   7.1648430
  26.1301550   4.9665680  13.4262520  25.7970930   5.5934600  14.0683590
  26.3068230   5.4927560  12.6464190  25.3420650   6.9346480  15.2411700
  25.9594650   7.6097560  14.9596150  24.4813770   7.3434460  15.1499200
  20.6352990   6.1246340   4.1218550  20.2580970   6.6133440   3.3903450
  20.8926060   6.7971620   4.7525080  36.2598240   8.3985890  13.1566340
  35.5761760   9.0685000  13.1483010  36.7992530   8.5966540  12.3911200
  33.7956980  10.2430020  11.8711520  33.8084140   9.8392310  11.0033780
  33.2432200  11.0177310  11.7672950  35.0902400   6.9646240   6.9601690
  34.9798730   6.0220570   7.0851110  35.0870650   7.3261880   7.8464450
  33.1942420   5.1459860  13.1994130  33.6111210   4.9319970  12.3647590
  33.9182240   5.4032650  13.7702750  30.6322680   2.5911560   6.3164180
  29.7051960   2.5248940   6.5452650  30.7847500   3.5291690   6.2019420
  37.1404520   3.5447080  13.2910370  36.3123150   3.6140170  12.8160500
  37.7355000   4.1301390  12.8226200  34.6619970   4.1531860   6.8199430
  34.0432390   3.8151410   6.1725730  34.6444420   3.5091620   7.5278620
  26.2379320   3.1176300   9.0983910  25.8336320   2.4053550   8.6029810
  26.3242440   2.7729540   9.9871950  26.7061020   6.8043860  11.2623120
  26.4089310   6.1989330  10.5830900  27.6560840   6.8421170  11.1512480
  34.7946630  10.3775730  14.9246220  34.3177190  11.1847920  14.7318830
  34.1108420   9.7254060  15.0772430  25.7979450   6.5425550  17.9130920
  24.9007980   6.7665520  18.1604320  25.8232320   6.6660490  16.9642320
  32.8384670   3.3918670   3.8272180  33.2777950   2.5541100   3.6810000
  33.5513090   4.0248070   3.9136320  24.6250670   3.4138870  16.4888290
  24.4858440   4.2861670  16.8575690  23.7432030   3.0711680  16.3436230
  30.9480050   8.3314740   7.7953420  31.3875960   9.0739070   7.3808810
  30.8866940   8.5741310   8.7192380  26.4231020   9.3560570  18.6973440
  26.3946450   9.7603520  17.8301870  26.2595990   8.4270930  18.5345040
  38.3745840  10.1387670  19.9937610  38.8505560  10.6170560  20.6726690
  38.9953000  10.0705160  19.2683110  20.5769320   5.1836420  12.4059200
  20.6549740   5.3185190  11.4614920  21.1911000   4.4752310  12.5987320
  21.8216950   6.8836610   8.8165380  21.4145030   7.0251200   7.9618980
  22.7129960   6.5996770   8.6136590  37.7779090   7.3300520  17.1537620
  37.9042150   7.0912400  16.2354800  37.8200470   6.4985060  17.6259700
  31.6395830  11.0328520  15.7232430  32.1540500  10.9436530  16.5254860
  30.7964910  11.3788220  16.0160340  33.6150230  11.3183860   5.1516430
  33.4551370  11.0286800   6.0498260  33.4496940  10.5423990   4.6161660
  26.0938610  11.0982390   6.9288050  25.9181090  10.1817930   6.7155850
  25.2394350  11.4569680   7.1685850  33.3176360   8.8271420   3.7114430
  32.6241520   8.8248710   3.0516710  34.0599220   8.4030740   3.2808600
  32.8826290  10.4534130   7.7862920  33.3383240   9.6723510   8.1001540
  33.2218810  11.1640950   8.3304100  20.6328840   6.2250590  14.9453660
  20.7959880   5.7555950  14.1273030  21.0981290   5.7174150  15.6102500
  22.2067820   5.6002020  17.1049470  21.8222610   4.9595690  17.7032430
  22.5180010   6.3038140  17.6744200  28.3564960   2.4478560  12.5858090
  28.7235090   1.9737130  13.3319430  28.1670020   3.3220130  12.9266430
  24.6746120   5.6948190   5.5009150  23.9008380   5.1545810   5.3407870
  25.4040750   5.1754800   5.1626910  35.4334100   4.6913550  11.2935540
  36.1533220   5.1868840  10.9031650  35.2315920   4.0131440  10.6489410
  30.8152900   4.7622610  17.1804540  30.7490210   3.8418280  16.9262130
  30.1858040   4.8598050  17.8949180  24.7183520   5.3628570   9.1387960
  25.2362190   4.5596830   9.0844850  24.2667540   5.3007710   9.9804790
  29.6053020   6.6294850   4.4115260  29.9468720   7.3737080   3.9158580
  28.7765730   6.9425970   4.7740090  25.4041180   2.7874180  18.9353210
  25.1041320   2.9331360  18.0381030  26.1752420   2.2279470  18.8426600
  30.7469630   7.5843180  16.9308340  30.7614170   6.6524140  16.7127250
  30.0394730   7.6702940  17.5698110  35.8806700   1.7683000   3.2006950
  35.7970420   2.1997220   2.3503390  36.6000890   2.2281350   3.6333770
  36.9580840   4.2250520  16.2776920  36.2329030   4.8179300  16.0806310
  37.4856300   4.2174060  15.4790290  36.9093950   8.6225260   5.9289080
  36.2670110   7.9680880   6.2032800  36.5224610   9.0280350   5.1529750
  32.4880430   5.9510690   9.7760770  32.8404250   5.3538820   9.1162140
  31.6042760   5.6254920   9.9469020  28.5743710   6.7108380   7.1831180
  29.2614840   7.2577590   7.5638770  27.7876130   7.2549110   7.2180790
  20.7136110   2.3281200   2.6748260  21.5830960   2.6106000   2.9584180
  20.2226430   3.1417070   2.5597070  27.8770920   3.7154410   6.7956540
  28.3333700   4.5259660   7.0216730  27.5259130   3.3977550   7.6275030
  30.1803530   9.2260750  14.0248840  30.8245750   9.4320130  14.7022260
  30.5432970   8.4649150  13.5719690  31.4535610   7.2293100  12.7426290
  32.0957840   6.5286260  12.8558460  31.9784960   8.0091540  12.5623180
  35.2991330   7.5141720   2.4665430  35.0728910   6.7972160   3.0590070
  34.9087530   7.2654160   1.6287180  33.2273230   8.0288000  15.9462350
  33.5629470   8.6154690  16.6240270  32.3073570   7.8980710  16.1760140
  21.0807360  11.5408580   3.2409890  21.4405000  12.1397920   2.5867160
  20.9399700  12.0868470   4.0144920  34.8807580   5.4313660   4.1279590
  34.5929280   5.8926350   4.9157470  35.6759750   4.9711430   4.3963810
  21.0649220   9.8063440  17.7152290  21.1740340   8.8658180  17.5747680
  20.4129780  10.0718190  17.0666020  29.0561810   8.0779330  19.1150410
  28.7358680   7.3588570  19.6596100  28.3820170   8.7534400  19.1886470
  27.0975980   8.9239780   4.0583560  27.0886080   9.6569470   3.4428070
  26.1774340   8.6771360   4.1510520  22.6982620   4.1454670   4.8030320
  22.0910570   4.8853570   4.8125620  23.1731970   4.2354030   3.9768520
  30.0835580   8.9868020   2.7208750  30.1847560   8.7832010   1.7910730
  29.1837320   8.7326300   2.9256530  28.7253690  11.5054340   7.4156420
  28.9795190  11.4675730   6.4935790  27.7766170  11.3787670   7.4084670
  24.7087910   4.1065820   2.5518890  25.4751180   3.9947180   3.1144320
  24.7862600   3.4103790   1.8995660  36.7331850   9.5955070  10.6669190
  36.8579270  10.4186240  11.1393000  37.5997410   9.3845800  10.3193340
  24.2049380  11.6886280  10.3386320  24.9411860  11.1401740  10.6094890
  24.5890300  12.5542290  10.1992310  21.0894860   7.7559850   6.2127830
  20.1634640   7.9980990   6.2033240  21.5551290   8.5834110   6.0912580
  23.2107660  10.8732350  19.5271900  24.0120390  11.1944400  19.9407300
  22.6959480  10.5127930  20.2491810  27.3151690  10.8616590   2.1611890
  28.1080300  11.1505420   1.7093680  26.7956040  10.4308760   1.4824370
  32.0472290   6.9812220  19.4747310  31.4410450   7.0043820  18.7343060
  31.7426400   6.2495260  20.0114560  33.4772660  10.7092510  18.0856720
  34.4294410  10.6250530  18.0356960  33.3300880  11.3734220  18.7590510
  36.3681860  10.0886720   3.5848630  36.0823370   9.6751860   2.7702810
  36.1701410  11.0174430   3.4649150  20.9305470   3.3605810  18.4707950
  21.4344490   2.7813090  19.0424180  20.1912890   3.6446040  19.0084320
  27.9843410   4.7676800  18.0043470  27.2189080   5.3361800  17.9198140
  28.1659370   4.4753010  17.1111700  31.0731820   5.1440030   2.6296230
  30.5241920   5.5909330   3.2738970  31.6951080   4.6389280   3.1533900
  35.1266760   6.4982130  18.5618490  35.8676230   6.8357890  18.0585950
  34.3639440   6.6674190  18.0088260  26.7406940   4.1030950   4.5261530
  27.1623360   3.9370820   5.3692920  26.8657780   3.2931180   4.0316670
  33.8012420   4.5496960  17.0973700  34.2153440   4.7042040  17.9464120
  32.8663420   4.6752180  17.2599480  28.5627650   4.5017440  15.0669630
  28.9815760   5.3450170  14.8945870  27.6436280   4.6389480  14.8376410
  33.2379450   2.7870810  15.0269980  32.7114670   3.3113430  14.4235120
  33.5810790   3.4198200  15.6579710  26.4135070  10.8070450  16.1827360
  25.8756160  11.5316510  15.8636060  26.6669030  10.3300790  15.3924700
  29.2697280  12.0421660  16.4414010  29.1955980  12.9456800  16.7486380
  28.3676120  11.7233560  16.4136080  29.8182610  11.2080170   4.0640370
  30.7133400  11.5465140   4.0859130  29.8500240  10.4859580   3.4364650
  23.4578770   6.5807220   2.2927370  23.8953640   7.1236890   2.9484950
  23.9426500   5.7554170   2.3023710  20.6724570   9.3696250   9.7447630
  21.0027580   8.5017310   9.5126270  21.1015570   9.5754770  10.5752590
  25.2686490   7.7005260   7.4049600  24.9682030   7.5770230   8.3053510
  25.1623980   6.8413850   6.9965330  21.1614780  10.2366840  12.4829260
  20.7245770  10.4167640  13.3153410  21.7292460  10.9941460  12.3410980
  36.7976960   9.7383840  16.7706570  36.1978950   9.7976400  16.0270490
  36.9270860   8.7988820  16.9003420  38.0378410   7.4801660   2.1076280
  37.2071370   7.5478310   2.5783510  38.2150240   8.3705780   1.8043140
  37.4934870   4.2249140   4.6110480  38.2553780   4.7945790   4.7170170
  37.5089240   3.6576340   5.3818790  20.9939210   2.7487070   8.8418140
  20.3388050   2.4798710   8.1977840  21.8317160   2.6391550   8.3920120
  38.4994840   5.0799240   9.4552410  38.8703670   4.2966560   9.0488380
  39.1396770   5.7688340   9.2769710  35.4828600   6.4635820  14.8682730
  34.6688440   6.8932980  15.1308520  35.8902800   7.0754230  14.2551780
  37.5454040   4.5183510   1.7683000  37.8202880   5.4262390   1.6402220
  37.3564780   4.4546040   2.7044990  37.4419380   2.4552500   6.7612430
  37.0662980   1.6880430   6.3293720  36.7122500   2.8375200   7.2487360
  22.0315140   3.1339640  13.3821480  22.3988180   3.0467040  14.2617500
  21.4625960   2.3706190  13.2828340  35.5404650  11.2154420   8.3951000
  36.1363720  10.8938990   7.7185420  35.7982800  10.7426240   9.1864270
  23.4467220   7.6472330  18.5441630  23.4036850   7.2765240  19.4256090
  23.5778230   8.5849900  18.6843450  27.1473250   9.2031920  14.1451350
  26.9064610   9.4706480  13.2581870  28.0875890   9.3737650  14.2002210
  38.4077410  11.2226300  14.9461990  37.9135690  11.6195170  14.2289120
  37.7990700  10.5975510  15.3399270  23.2855250  10.5934580  15.6639410
  22.6915570  10.4619280  16.4029450  23.2779090   9.7572720  15.1981510
  36.0916860  11.8649720  12.2248730  35.6319830  12.6165530  11.8506750
  35.4629320  11.1456190  12.1663530  22.9167480   7.9592960  14.6147450
  22.1901540   7.3398250  14.5473400  22.9776630   8.3533570  13.7445530
  26.5212580  10.1737960  11.3996860  27.0377600   9.5625320  10.8745120
  27.1709960  10.6766740  11.8907870  29.2608080  11.0646450  12.2265840
  29.5485890  10.8100750  11.3498850  29.7731300  10.5123810  12.8171410
  21.1997480  11.2767350   7.8244210  21.0319520  10.6438030   8.5226100
  20.3331990  11.4826750   7.4738400  22.8060180   9.9700580   5.2694350
  22.2807800  10.3508610   4.5656310  22.7304760  10.5951350   5.9904060
  29.3280440  11.9862550  19.5934040  30.2547750  11.7506820  19.6370000
  29.3130870  12.8134550  19.1120070  37.5625500  11.5288120   6.5908290
  37.7377690  10.8425860   5.9469210  36.8647070  12.0535170   6.1984960
  25.4053150  11.9182960   4.1443600  26.1371970  11.6342240   3.5967490
  25.6646820  11.6796240   5.0342980  24.5667940   8.0347690   4.1489930
  23.9376820   8.5032790   4.6975760  24.6815770   7.1896910   4.5836120
  35.8958000  11.2132410  19.4175080  36.6883320  10.7181640  19.2101040
  36.1891150  11.8922550  20.0250690  13.2474170  77.1827310  46.6221600
  13.1668220  76.2681920  46.3513310  12.8338590  77.6794380  45.9161310
  11.3792210  78.9606330  48.5030870  10.6034310  78.4806770  48.7929440
  12.0305140  78.2811980  48.3287030   3.8049990  74.2328030  43.1649020
   2.9166690  74.5744000  43.0628900   4.0891180  74.0328350  42.2729850
   1.7683000  76.8333680  49.0488720   2.3399110  76.0655880  49.0492360
   1.7684540  77.1322440  48.1395330   3.0107870  72.2418040  50.8357650
   2.8310710  71.3443790  51.1160410   2.6087950  72.7889910  51.5104600
  11.8506370  74.4433900  48.7369960  12.2271190  73.5705780  48.6243630
  11.7525880  74.7792600  47.8460400   5.9811380  72.8159530  44.1987400
   6.0878130  73.7163260  44.5056160   5.0703740  72.7677500  43.9082050
  15.6330490  71.9384340  45.6698300  16.4540110  71.4480910  45.7123780
  15.6664570  72.5282000  46.4230140   3.6294540  74.7378540  49.4439990
   4.3104650  75.0016910  50.0627390   3.3142590  73.8979410  49.7778000
   7.8219110  75.7845900  48.5312580   8.3297330  76.2826870  49.1717600
   8.3532350  75.0081100  48.3551940  19.9230040  73.9551090  52.2341930
  19.2182210  74.3432800  51.7157040  20.1887960  74.6501380  52.8362860
   6.1055210  70.4244460  52.7976000   6.1073650  70.9416850  51.9921900
   5.2759520  69.9474640  52.7745930  15.8691970  73.8784720  48.4425840
  15.1647540  74.1669610  49.0228950  16.2304130  74.6884830  48.0825400
   5.7870540  72.1354420  50.8046450   6.1287350  72.9796470  50.5100320
   4.8486350  72.2838160  50.9211790  18.9378890  73.3239510  48.8335050
  17.9903800  73.3578490  48.9650480  19.2628880  74.1378460  49.2184410
   9.4698430  69.6236690  47.1291040   9.7773410  69.0683580  46.4126540
   8.5399130  69.7581150  46.9464030  11.8579190  77.6885520  43.8651160
  10.9308470  77.6222900  44.0939630  12.0104010  78.6265650  43.7506400
  11.8448270  73.9602520  40.8618320  10.9051940  74.1216480  40.9470780
  12.1631530  74.6788200  40.3154310  15.3303040  75.4290360  51.7852220
  14.9174220  76.2544070  52.0392210  14.5978990  74.8435400  51.5928580
   7.4635830  78.2150260  46.6470890   7.0592830  77.5027510  46.1516790
   7.5498950  77.8703500  47.5358930   6.1764450  74.9893470  50.4269930
   6.7279040  75.0988810  49.6523180   6.6907960  75.3631070  51.1425160
  14.0641180  78.4892630  41.3759160  14.5034460  77.6515060  41.2296980
  14.7769600  79.1222030  41.4623300  17.6458320  69.7435440  39.6900200
  17.3330980  69.8362270  40.5899270  18.4070790  70.3216470  39.6397630
   4.1640460  77.1095240  44.1477540   4.0438060  77.8357330  43.5358810
   3.8541350  76.3398150  43.6705450  18.8559610  74.4806940  55.6674340
  18.2403880  74.9886610  55.1389800  18.5356030  73.5805270  55.6100280
   6.6304120  70.4530310  47.5301210   6.1872270  71.2339850  47.1985730
   7.1889110  70.7760200  48.2372150  10.9173930  73.3198830  53.1336530
  10.4553300  73.5281850  53.9456470  10.5152040  72.5058180  52.8307200
  15.9178440  74.5407780  54.2633190  15.0672030  74.2413530  54.5842260
  15.7580230  74.7849790  53.3517010  13.0128150  76.0409530  56.3631980
  13.3381560  75.2073280  56.0234210  13.8008480  76.5638050  56.5110310
   9.7462940  70.0741010  42.4107040   9.1217120  70.0700880  43.1360350
   9.6593060  69.2071970  42.0143010   8.6680020  70.9977640  49.3890810
   8.9652350  71.9040470  49.3082830   9.2165580  70.5096420  48.7750380
   6.4218340  75.5763880  45.2582460   6.1959260  75.3601050  46.1629080
   5.6410870  76.0092340  44.9128430  13.6516100  75.5827250  43.8573110
  13.0524990  76.3063050  43.6736730  14.1995710  75.5204030  43.0749560
   8.8617550  76.4749460  55.9242730   8.7661150  75.5344190  55.7743130
   9.7049530  76.6964530  55.5290800  12.2580970  74.2190790  45.8876390
  12.6510540  74.5362990  45.0745080  12.6197820  73.3402670  46.0020910
   3.9928090  72.8863130  54.0776510   3.5991480  73.7338340  54.2849290
   3.3046490  72.2489500  54.2685150  12.8436110  76.8096540  49.9827170
  12.1117230  77.3183350  50.3317270  12.4460450  75.9926520  49.6815950
   9.2813500  73.4850740  48.3879660   9.2849560  73.0440690  47.5384200
  10.1764620  73.8068070  48.4951480   5.1315880  73.3677230  47.3473870
   4.7915930  73.8452460  48.1040920   4.3693200  72.9142350  46.9874970
   9.3433650  74.4862820  41.3786420   9.4646470  74.4449300  42.3272240
   8.9582160  75.3486970  41.2233150  13.3062020  72.2630220  49.3950110
  13.3234760  72.7138870  50.2391960  13.0577600  71.3635860  49.6083550
   8.3555150  76.7963960  40.7769720   7.7872050  76.3482210  40.1505630
   9.0644150  77.1556740  40.2434870  16.7332770  69.6762400  55.2336490
  17.0578540  68.9452060  55.7594470  16.7689280  69.3576040  54.3317480
   9.5821470  77.5452520  50.1345070   9.9491600  77.0711090  50.8806410
   9.3926530  78.4194090  50.4753410   2.4461960  72.2896210  46.2638540
   2.1608880  71.9251880  47.1017160   2.3840820  71.5576670  45.6501680
   7.3720840  76.5861160  52.4529280   7.0677910  77.4653140  52.6779640
   8.3267300  76.6460950  52.4886720  12.1200550  71.1825470  42.9851910
  11.3065160  70.6838640  42.9097220  11.9262500  72.0223720  42.5688260
  14.8348940  75.5545120  41.2814070  15.7228560  75.8662350  41.1065410
  14.8054030  74.6817370  40.8894650   3.4284570  77.4263900  53.6000640
   3.0699510  78.0917750  54.1873980   3.1339130  76.5947450  53.9713260
   6.6297690  77.8848140  56.4840190   6.3297830  78.0305320  55.5868010
   7.4008930  77.3253430  56.3913580  17.1063210  76.8656960  40.7493930
  17.0226930  77.2971180  39.8990370  17.8257400  77.3255310  41.1820750
   5.0039210  69.1566020  44.8166040   4.8753840  69.1483920  45.7650960
   4.1801230  69.4949110  44.4657050  13.4971920  73.4079450  52.0274190
  13.8652740  72.5874660  52.3553760  12.6370120  73.4681340  52.4429840
  16.8633950  72.3636390  42.8361750  16.2347110  72.4682060  42.1219980
  16.3685870  72.5833170  43.6255630   8.8317980  74.6422340  44.2519630
   8.1234130  75.1108680  44.6933240   9.1162460  73.9844350  44.8864820
  10.4573910  76.0619040  52.2512160  10.9559160  76.5364860  52.9164010
  10.5996860  75.1382560  52.4582190  12.8633410  71.3673000  45.6915420
  12.7401190  71.3859130  44.7424930  13.8117970  71.4151940  45.8113820
   7.0353000  72.9507420  41.6270340   7.8843530  73.3877570  41.5610530
   6.6684270  73.2627680  42.4542400  17.6640770  72.2787000  53.0940550
  17.1614370  73.0192400  53.4334360  18.4797430  72.6671000  52.7777340
  15.9562780  77.5220180  46.5401910  15.0152920  77.5370410  46.7149600
  16.2706850  76.7356140  46.9862210   4.6291180  76.6364850  40.7838760
   4.7094770  75.6892360  40.8956160   5.5210930  76.9671730  40.8899420
   6.1290870  75.1801460  54.8819490   5.5987330  74.6892410  54.2542830
   6.7978940  75.6085660  54.3477420  10.4791090  78.2242520  39.3225610
  10.9996750  77.5091540  38.9566760  11.1259490  78.8628390  39.6226120
  15.4991100  76.9867080  56.6499830  16.0811870  76.2319400  56.5620310
  15.6752870  77.5174520  55.8731310   6.6163170  72.1463830  54.9616780
   6.5220040  71.5284580  54.2367650   6.0360560  72.8730120  54.7346690
   9.3824610  70.7037070  51.9944170   8.9341910  70.7261330  51.1489720
   8.7489810  70.3056090  52.5914470  12.1248060  77.3307580  53.9994450
  12.2444270  76.7348720  54.7389290  12.9842060  77.3677270  53.5795750
  14.4635960  77.8844770  52.5756960  13.9371180  78.4087390  51.9722100
  14.8067300  78.5172160  53.2066690   6.8622350  75.2738140  39.0206670
   6.6611410  74.4105500  39.3820010   6.6914400  75.1871500  38.0828270
   8.8916830  73.8728930  55.2570270   9.4816520  73.5644780  55.9448090
   8.0737070  73.4008680  55.4130170  13.7110260  73.4894740  55.4903290
  13.0225780  72.8276280  55.4253280  14.4316280  73.0433010  55.9351750
  14.3410660  70.0846370  41.5493550  14.6212950  69.2414270  41.9052970
  13.5676390  70.3169480  42.0632300   5.6605150  72.3738760  39.0084550
   5.9631050  72.3806190  38.1003700   6.3999740  72.0236620  39.5052210
   8.8790080  71.3173380  39.9940750   8.5312080  70.6397370  39.4143200
   9.0802850  70.8562890  40.8084140  15.1686160  72.6402320  40.6123610
  15.5871040  72.4533300  39.7720270  14.8622220  71.7881370  40.9226540
  18.6675890  77.5526460  44.3099410  18.2919490  76.7854390  43.8780700
  17.9379010  77.9349160  44.7974340   3.2571650  78.2313600  50.9308460
   3.6244690  78.1441000  51.8104480   2.6882470  77.4680150  50.8315320
  18.0575510  76.6997980  53.9438930  17.8261600  76.4710730  53.0436880
  18.3180060  77.6197530  53.8983820   2.8087650  75.1422690  54.8366880
   1.9143700  75.1089450  55.1760590   3.3485200  75.3409480  55.6018130
  16.4963580  71.9254410  56.7218630  17.3733760  71.9337810  57.1052630
  16.5084420  71.1885250  56.1110980  17.9426850  75.7783950  47.6106650
  18.4664330  75.2846600  46.9796820  18.5286270  75.9134310  48.3554220
  18.1216570  75.8623820  51.1326200  17.1719280  75.8287360  51.2471190
  18.3029580  76.7723930  50.8975970   3.9761010  74.1125500  40.2424830
   4.6852710  73.6908720  39.7572110   3.2600950  74.1800730  39.6108180
   3.6235170  70.1664830  39.2827480   4.3463300  70.7073770  39.6008700
   3.8959690  69.8928250  38.4069020  17.4326820  75.0357300  43.5499060
  17.9285940  74.8028170  44.3347940  17.2342890  74.1969140  43.1336700
   3.3127360  69.4171020  49.1850100   3.9603550  68.8668400  48.7445260
   3.7329200  69.6714170  50.0065910  18.8613980  73.6718250  46.0836740
  18.7513260  73.5174290  47.0219010  19.6221570  73.1439190  45.8412150
  17.2079700  69.6112380  52.5419740  17.8451920  70.2246520  52.9078930
  17.3554590  69.6473040  51.5968970  19.7504250  71.5026170  39.3242880
  20.6753560  71.3707350  39.1161170  19.7280040  71.5818990  40.2779330
  19.8242740  72.2736830  41.9499590  19.0294240  72.2081950  42.4792500
  20.0286020  73.2087470  41.9384940   3.0659360  69.5726690  51.9275420
   2.7174180  70.0290510  52.6933600   2.7347060  68.6783820  52.0097850
  10.5784180  70.7638570  55.4494840  10.5173070  71.3560400  56.1990250
  11.5184560  70.6564530  55.3045100  13.2158740  70.4208630  55.0887130
  13.8299150  70.7387920  54.4268210  13.7608300  69.9357220  55.7082990
   3.7380000  69.1002890  55.2026190   4.2862990  68.9190940  54.4392300
   3.8035310  68.3097000  55.7382500  13.9566780  68.9840770  51.4156420
  13.0826620  69.3175880  51.2129350  13.8477530  68.5113950  52.2408290
  14.8638760  71.1911640  52.7998140  14.5352120  70.3763400  52.4199870
  15.8121060  71.1481450  52.6763830  11.7041600  69.9010610  50.3549330
  10.9213390  70.3756110  50.6346090  11.4104530  68.9965440  50.2462510
  16.2562670  70.6033710  48.3998420  16.6970760  70.5478810  47.5520020
  15.9870260  71.5191720  48.4708600  18.1201240  70.2348950  46.4107240
  18.0589640  69.2910170  46.2638260  18.8993270  70.3429040  46.9560700
   3.0482010  70.2058090  42.8763050   3.8061370  70.3186970  42.3027080
   2.5859180  71.0427290  42.8306480   9.5895820  72.3197360  45.8665360
   8.7770330  71.9454250  45.5261240  10.0937460  71.5642440  46.1686550
  14.0920800  68.9839810  47.1048430  14.6950170  69.5560020  47.5796950
  13.3513790  69.5479250  46.8822330  17.2355400  69.3861370  42.3788710
  17.4306030  70.2844820  42.6456140  16.4485270  69.1548450  42.8721660
   5.4207160  70.7322140  41.4165020   5.9499920  69.9451940  41.2872970
   6.0535480  71.4113330  41.6500550   7.6145000  70.4697280  44.4710410
   6.9847740  69.7684590  44.6380540   7.0750140  71.2301410  44.2543570
   7.7400560  69.7481260  56.9062900   7.4584830  70.2514860  56.1423720
   8.1220260  68.9503010  56.5405030  13.2474170  77.1827310  27.8478110
  13.1668220  76.2681920  27.5769820  12.8338590  77.6794380  27.1417820
  11.3792210  78.9606330  29.7287380  10.6034310  78.4806770  30.0185950
  12.0305140  78.2811980  29.5543540   3.8049990  74.2328030  24.3905530
   2.9166690  74.5744000  24.2885410   4.0891180  74.0328350  23.4986360
   1.7683000  76.8333680  30.2745230   2.3399110  76.0655880  30.2748870
   1.7684540  77.1322440  29.3651840   3.0107870  72.2418040  32.0614160
   2.8310710  71.3443790  32.3416920   2.6087950  72.7889910  32.7361110
  11.8506370  74.4433900  29.9626470  12.2271190  73.5705780  29.8500140
  11.7525880  74.7792600  29.0716910   5.9811380  72.8159530  25.4243910
   6.0878130  73.7163260  25.7312670   5.0703740  72.7677500  25.1338560
  15.6330490  71.9384340  26.8954810  16.4540110  71.4480910  26.9380290
  15.6664570  72.5282000  27.6486650   3.6294540  74.7378540  30.6696500
   4.3104650  75.0016910  31.2883900   3.3142590  73.8979410  31.0034510
   7.8219110  75.7845900  29.7569090   8.3297330  76.2826870  30.3974110
   8.3532350  75.0081100  29.5808450  19.9230040  73.9551090  33.4598440
  19.2182210  74.3432800  32.9413550  20.1887960  74.6501380  34.0619370
   6.1055210  70.4244460  34.0232510   6.1073650  70.9416850  33.2178410
   5.2759520  69.9474640  34.0002440  15.8691970  73.8784720  29.6682350
  15.1647540  74.1669610  30.2485460  16.2304130  74.6884830  29.3081910
   5.7870540  72.1354420  32.0302960   6.1287350  72.9796470  31.7356830
   4.8486350  72.2838160  32.1468300  18.9378890  73.3239510  30.0591560
  17.9903800  73.3578490  30.1906990  19.2628880  74.1378460  30.4440920
   9.4698430  69.6236690  28.3547550   9.7773410  69.0683580  27.6383050
   8.5399130  69.7581150  28.1720540  11.8579190  77.6885520  25.0907670
  10.9308470  77.6222900  25.3196140  12.0104010  78.6265650  24.9762910
  11.8448270  73.9602520  22.0874830  10.9051940  74.1216480  22.1727290
  12.1631530  74.6788200  21.5410820  15.3303040  75.4290360  33.0108730
  14.9174220  76.2544070  33.2648720  14.5978990  74.8435400  32.8185090
   7.4635830  78.2150260  27.8727400   7.0592830  77.5027510  27.3773300
   7.5498950  77.8703500  28.7615440   6.1764450  74.9893470  31.6526440
   6.7279040  75.0988810  30.8779690   6.6907960  75.3631070  32.3681670
  14.0641180  78.4892630  22.6015670  14.5034460  77.6515060  22.4553490
  14.7769600  79.1222030  22.6879810  17.6458320  69.7435440  20.9156710
  17.3330980  69.8362270  21.8155780  18.4070790  70.3216470  20.8654140
   4.1640460  77.1095240  25.3734050   4.0438060  77.8357330  24.7615320
   3.8541350  76.3398150  24.8961960  18.8559610  74.4806940  36.8930850
  18.2403880  74.9886610  36.3646310  18.5356030  73.5805270  36.8356790
   6.6304120  70.4530310  28.7557720   6.1872270  71.2339850  28.4242240
   7.1889110  70.7760200  29.4628660  10.9173930  73.3198830  34.3593040
  10.4553300  73.5281850  35.1712980  10.5152040  72.5058180  34.0563710
  15.9178440  74.5407780  35.4889700  15.0672030  74.2413530  35.8098770
  15.7580230  74.7849790  34.5773520  13.0128150  76.0409530  37.5888490
  13.3381560  75.2073280  37.2490720  13.8008480  76.5638050  37.7366820
   9.7462940  70.0741010  23.6363550   9.1217120  70.0700880  24.3616860
   9.6593060  69.2071970  23.2399520   8.6680020  70.9977640  30.6147320
   8.9652350  71.9040470  30.5339340   9.2165580  70.5096420  30.0006890
   6.4218340  75.5763880  26.4838970   6.1959260  75.3601050  27.3885590
   5.6410870  76.0092340  26.1384940  13.6516100  75.5827250  25.0829620
  13.0524990  76.3063050  24.8993240  14.1995710  75.5204030  24.3006070
   8.8617550  76.4749460  37.1499240   8.7661150  75.5344190  36.9999640
   9.7049530  76.6964530  36.7547310  12.2580970  74.2190790  27.1132900
  12.6510540  74.5362990  26.3001590  12.6197820  73.3402670  27.2277420
   3.9928090  72.8863130  35.3033020   3.5991480  73.7338340  35.5105800
   3.3046490  72.2489500  35.4941660  10.5673140  72.9698100  38.3729760
   9.8771460  72.7770300  39.0075850  11.3105440  73.2532740  38.9054060
  12.8436110  76.8096540  31.2083680  12.1117230  77.3183350  31.5573780
  12.4460450  75.9926520  30.9072460   9.2813500  73.4850740  29.6136170
   9.2849560  73.0440690  28.7640710  10.1764620  73.8068070  29.7207990
   5.1315880  73.3677230  28.5730380   4.7915930  73.8452460  29.3297430
   4.3693200  72.9142350  28.2131480   9.3433650  74.4862820  22.6042930
   9.4646470  74.4449300  23.5528750   8.9582160  75.3486970  22.4489660
  13.3062020  72.2630220  30.6206620  13.3234760  72.7138870  31.4648470
  13.0577600  71.3635860  30.8340060   8.3555150  76.7963960  22.0026230
   7.7872050  76.3482210  21.3762140   9.0644150  77.1556740  21.4691380
  16.7332770  69.6762400  36.4593000  17.0578540  68.9452060  36.9850980
  16.7689280  69.3576040  35.5573990   9.5821470  77.5452520  31.3601580
   9.9491600  77.0711090  32.1062920   9.3926530  78.4194090  31.7009920
   2.4461960  72.2896210  27.4895050   2.1608880  71.9251880  28.3273670
   2.3840820  71.5576670  26.8758190   7.3720840  76.5861160  33.6785790
   7.0677910  77.4653140  33.9036150   8.3267300  76.6460950  33.7143230
  12.1200550  71.1825470  24.2108420  11.3065160  70.6838640  24.1353730
  11.9262500  72.0223720  23.7944770  14.8348940  75.5545120  22.5070580
  15.7228560  75.8662350  22.3321920  14.8054030  74.6817370  22.1151160
   3.4284570  77.4263900  34.8257150   3.0699510  78.0917750  35.4130490
   3.1339130  76.5947450  35.1969770   6.6297690  77.8848140  37.7096700
   6.3297830  78.0305320  36.8124520   7.4008930  77.3253430  37.6170090
  17.1063210  76.8656960  21.9750440  17.0226930  77.2971180  21.1246880
  17.8257400  77.3255310  22.4077260   5.0039210  69.1566020  26.0422550
   4.8753840  69.1483920  26.9907470   4.1801230  69.4949110  25.6913560
  13.4971920  73.4079450  33.2530700  13.8652740  72.5874660  33.5810270
  12.6370120  73.4681340  33.6686350  16.8633950  72.3636390  24.0618260
  16.2347110  72.4682060  23.3476490  16.3685870  72.5833170  24.8512140
   8.8317980  74.6422340  25.4776140   8.1234130  75.1108680  25.9189750
   9.1162460  73.9844350  26.1121330  10.4573910  76.0619040  33.4768670
  10.9559160  76.5364860  34.1420520  10.5996860  75.1382560  33.6838700
  12.8633410  71.3673000  26.9171930  12.7401190  71.3859130  25.9681440
  13.8117970  71.4151940  27.0370330   7.0353000  72.9507420  22.8526850
   7.8843530  73.3877570  22.7867040   6.6684270  73.2627680  23.6798910
  17.6640770  72.2787000  34.3197060  17.1614370  73.0192400  34.6590870
  18.4797430  72.6671000  34.0033850  15.9562780  77.5220180  27.7658420
  15.0152920  77.5370410  27.9406110  16.2706850  76.7356140  28.2118720
   4.6291180  76.6364850  22.0095270   4.7094770  75.6892360  22.1212670
   5.5210930  76.9671730  22.1155930   4.1885060  76.6009360  38.1401510
   4.2290400  76.3023230  39.0486740   5.0430560  77.0016970  37.9809030
   6.1290870  75.1801460  36.1076000   5.5987330  74.6892410  35.4799340
   6.7978940  75.6085660  35.5733930  10.4791090  78.2242520  20.5482120
  10.9996750  77.5091540  20.1823270  11.1259490  78.8628390  20.8482630
  15.4991100  76.9867080  37.8756340  16.0811870  76.2319400  37.7876820
  15.6752870  77.5174520  37.0987820   6.6163170  72.1463830  36.1873290
   6.5220040  71.5284580  35.4624160   6.0360560  72.8730120  35.9603200
   9.3824610  70.7037070  33.2200680   8.9341910  70.7261330  32.3746230
   8.7489810  70.3056090  33.8170980  12.1248060  77.3307580  35.2250960
  12.2444270  76.7348720  35.9645800  12.9842060  77.3677270  34.8052260
  14.4635960  77.8844770  33.8013470  13.9371180  78.4087390  33.1978610
  14.8067300  78.5172160  34.4323200   6.8622350  75.2738140  20.2463180
   6.6611410  74.4105500  20.6076520   6.6914400  75.1871500  19.3084780
   8.8916830  73.8728930  36.4826780   9.4816520  73.5644780  37.1704600
   8.0737070  73.4008680  36.6386680  13.7110260  73.4894740  36.7159800
  13.0225780  72.8276280  36.6509790  14.4316280  73.0433010  37.1608260
  14.3410660  70.0846370  22.7750060  14.6212950  69.2414270  23.1309480
  13.5676390  70.3169480  23.2888810   5.6605150  72.3738760  20.2341060
   5.9631050  72.3806190  19.3260210   6.3999740  72.0236620  20.7308720
   8.8790080  71.3173380  21.2197260   8.5312080  70.6397370  20.6399710
   9.0802850  70.8562890  22.0340650  15.1686160  72.6402320  21.8380120
  15.5871040  72.4533300  20.9976780  14.8622220  71.7881370  22.1483050
  18.6675890  77.5526460  25.5355920  18.2919490  76.7854390  25.1037210
  17.9379010  77.9349160  26.0230850   3.2571650  78.2313600  32.1564970
   3.6244690  78.1441000  33.0360990   2.6882470  77.4680150  32.0571830
  18.0575510  76.6997980  35.1695440  17.8261600  76.4710730  34.2693390
  18.3180060  77.6197530  35.1240330   2.8087650  75.1422690  36.0623390
   1.9143700  75.1089450  36.4017100   3.3485200  75.3409480  36.8274640
  16.4963580  71.9254410  37.9475140  17.3733760  71.9337810  38.3309140
  16.5084420  71.1885250  37.3367490  17.9426850  75.7783950  28.8363160
  18.4664330  75.2846600  28.2053330  18.5286270  75.9134310  29.5810730
  18.1216570  75.8623820  32.3582710  17.1719280  75.8287360  32.4727700
  18.3029580  76.7723930  32.1232480   3.9761010  74.1125500  21.4681340
   4.6852710  73.6908720  20.9828620   3.2600950  74.1800730  20.8364690
   3.6235170  70.1664830  20.5083990   4.3463300  70.7073770  20.8265210
   3.8959690  69.8928250  19.6325530  17.4326820  75.0357300  24.7755570
  17.9285940  74.8028170  25.5604450  17.2342890  74.1969140  24.3593210
   3.3127360  69.4171020  30.4106610   3.9603550  68.8668400  29.9701770
   3.7329200  69.6714170  31.2322420  18.8613980  73.6718250  27.3093250
  18.7513260  73.5174290  28.2475520  19.6221570  73.1439190  27.0668660
  17.2079700  69.6112380  33.7676250  17.8451920  70.2246520  34.1335440
  17.3554590  69.6473040  32.8225480  19.7504250  71.5026170  20.5499390
  20.6753560  71.3707350  20.3417680  19.7280040  71.5818990  21.5035840
  19.8242740  72.2736830  23.1756100  19.0294240  72.2081950  23.7049010
  20.0286020  73.2087470  23.1641450   3.0659360  69.5726690  33.1531930
   2.7174180  70.0290510  33.9190110   2.7347060  68.6783820  33.2354360
  10.5784180  70.7638570  36.6751350  10.5173070  71.3560400  37.4246760
  11.5184560  70.6564530  36.5301610  13.2158740  70.4208630  36.3143640
  13.8299150  70.7387920  35.6524720  13.7608300  69.9357220  36.9339500
   3.7380000  69.1002890  36.4282700   4.2862990  68.9190940  35.6648810
   3.8035310  68.3097000  36.9639010  13.9566780  68.9840770  32.6412930
  13.0826620  69.3175880  32.4385860  13.8477530  68.5113950  33.4664800
  14.8638760  71.1911640  34.0254650  14.5352120  70.3763400  33.6456380
  15.8121060  71.1481450  33.9020340  11.7041600  69.9010610  31.5805840
  10.9213390  70.3756110  31.8602600  11.4104530  68.9965440  31.4719020
  16.2562670  70.6033710  29.6254930  16.6970760  70.5478810  28.7776530
  15.9870260  71.5191720  29.6965110  18.1201240  70.2348950  27.6363750
  18.0589640  69.2910170  27.4894770  18.8993270  70.3429040  28.1817210
   3.0482010  70.2058090  24.1019560   3.8061370  70.3186970  23.5283590
   2.5859180  71.0427290  24.0562990   9.5895820  72.3197360  27.0921870
   8.7770330  71.9454250  26.7517750  10.0937460  71.5642440  27.3943060
  14.0920800  68.9839810  28.3304940  14.6950170  69.5560020  28.8053460
  13.3513790  69.5479250  28.1078840  17.2355400  69.3861370  23.6045220
  17.4306030  70.2844820  23.8712650  16.4485270  69.1548450  24.0978170
   5.4207160  70.7322140  22.6421530   5.9499920  69.9451940  22.5129480
   6.0535480  71.4113330  22.8757060   7.6145000  70.4697280  25.6966920
   6.9847740  69.7684590  25.8637050   7.0750140  71.2301410  25.4800080
   7.7400560  69.7481260  38.1319410   7.4584830  70.2514860  37.3680230
   8.1220260  68.9503010  37.7661540  14.3416020  69.1634840  38.7099880
  14.2281470  69.4829450  39.6051400  15.1585760  69.5647350  38.4137160
  13.2474170  77.1827310   9.0734620  13.1668220  76.2681920   8.8026330
  12.8338590  77.6794380   8.3674330  11.3792210  78.9606330  10.9543890
  10.6034310  78.4806770  11.2442460  12.0305140  78.2811980  10.7800050
   3.8049990  74.2328030   5.6162040   2.9166690  74.5744000   5.5141920
   4.0891180  74.0328350   4.7242870   1.7683000  76.8333680  11.5001740
   2.3399110  76.0655880  11.5005380   1.7684540  77.1322440  10.5908350
   3.0107870  72.2418040  13.2870670   2.8310710  71.3443790  13.5673430
   2.6087950  72.7889910  13.9617620  11.8506370  74.4433900  11.1882980
  12.2271190  73.5705780  11.0756650  11.7525880  74.7792600  10.2973420
   5.9811380  72.8159530   6.6500420   6.0878130  73.7163260   6.9569180
   5.0703740  72.7677500   6.3595070  15.6330490  71.9384340   8.1211320
  16.4540110  71.4480910   8.1636800  15.6664570  72.5282000   8.8743160
   3.6294540  74.7378540  11.8953010   4.3104650  75.0016910  12.5140410
   3.3142590  73.8979410  12.2291020   7.8219110  75.7845900  10.9825600
   8.3297330  76.2826870  11.6230620   8.3532350  75.0081100  10.8064960
  19.9230040  73.9551090  14.6854950  19.2182210  74.3432800  14.1670060
  20.1887960  74.6501380  15.2875880   6.1055210  70.4244460  15.2489020
   6.1073650  70.9416850  14.4434920   5.2759520  69.9474640  15.2258950
  15.8691970  73.8784720  10.8938860  15.1647540  74.1669610  11.4741970
  16.2304130  74.6884830  10.5338420   5.7870540  72.1354420  13.2559470
   6.1287350  72.9796470  12.9613340   4.8486350  72.2838160  13.3724810
  18.9378890  73.3239510  11.2848070  17.9903800  73.3578490  11.4163500
  19.2628880  74.1378460  11.6697430   9.4698430  69.6236690   9.5804060
   9.7773410  69.0683580   8.8639560   8.5399130  69.7581150   9.3977050
  11.8579190  77.6885520   6.3164180  10.9308470  77.6222900   6.5452650
  12.0104010  78.6265650   6.2019420  11.8448270  73.9602520   3.3131340
  10.9051940  74.1216480   3.3983800  12.1631530  74.6788200   2.7667330
  15.3303040  75.4290360  14.2365240  14.9174220  76.2544070  14.4905230
  14.5978990  74.8435400  14.0441600   7.4635830  78.2150260   9.0983910
   7.0592830  77.5027510   8.6029810   7.5498950  77.8703500   9.9871950
   6.1764450  74.9893470  12.8782950   6.7279040  75.0988810  12.1036200
   6.6907960  75.3631070  13.5938180  14.0641180  78.4892630   3.8272180
  14.5034460  77.6515060   3.6810000  14.7769600  79.1222030   3.9136320
  17.6458320  69.7435440   2.1413220  17.3330980  69.8362270   3.0412290
  18.4070790  70.3216470   2.0910650   4.1640460  77.1095240   6.5990560
   4.0438060  77.8357330   5.9871830   3.8541350  76.3398150   6.1218470
  18.8559610  74.4806940  18.1187360  18.2403880  74.9886610  17.5902820
  18.5356030  73.5805270  18.0613300   6.6304120  70.4530310   9.9814230
   6.1872270  71.2339850   9.6498750   7.1889110  70.7760200  10.6885170
  10.9173930  73.3198830  15.5849550  10.4553300  73.5281850  16.3969490
  10.5152040  72.5058180  15.2820220  15.9178440  74.5407780  16.7146210
  15.0672030  74.2413530  17.0355280  15.7580230  74.7849790  15.8030030
  13.0128150  76.0409530  18.8145000  13.3381560  75.2073280  18.4747230
  13.8008480  76.5638050  18.9623330   9.7462940  70.0741010   4.8620060
   9.1217120  70.0700880   5.5873370   9.6593060  69.2071970   4.4656030
   8.6680020  70.9977640  11.8403830   8.9652350  71.9040470  11.7595850
   9.2165580  70.5096420  11.2263400   6.4218340  75.5763880   7.7095480
   6.1959260  75.3601050   8.6142100   5.6410870  76.0092340   7.3641450
  13.6516100  75.5827250   6.3086130  13.0524990  76.3063050   6.1249750
  14.1995710  75.5204030   5.5262580   8.8617550  76.4749460  18.3755750
   8.7661150  75.5344190  18.2256150   9.7049530  76.6964530  17.9803820
  12.2580970  74.2190790   8.3389410  12.6510540  74.5362990   7.5258100
  12.6197820  73.3402670   8.4533930   3.9928090  72.8863130  16.5289530
   3.5991480  73.7338340  16.7362310   3.3046490  72.2489500  16.7198170
  10.5673140  72.9698100  19.5986270   9.8771460  72.7770300  20.2332360
  11.3105440  73.2532740  20.1310570  12.8436110  76.8096540  12.4340190
  12.1117230  77.3183350  12.7830290  12.4460450  75.9926520  12.1328970
   9.2813500  73.4850740  10.8392680   9.2849560  73.0440690   9.9897220
  10.1764620  73.8068070  10.9464500   5.1315880  73.3677230   9.7986890
   4.7915930  73.8452460  10.5553940   4.3693200  72.9142350   9.4387990
   9.3433650  74.4862820   3.8299440   9.4646470  74.4449300   4.7785260
   8.9582160  75.3486970   3.6746170  13.3062020  72.2630220  11.8463130
  13.3234760  72.7138870  12.6904980  13.0577600  71.3635860  12.0596570
   8.3555150  76.7963960   3.2282740   7.7872050  76.3482210   2.6018650
   9.0644150  77.1556740   2.6947890  16.7332770  69.6762400  17.6849510
  17.0578540  68.9452060  18.2107490  16.7689280  69.3576040  16.7830500
   9.5821470  77.5452520  12.5858090   9.9491600  77.0711090  13.3319430
   9.3926530  78.4194090  12.9266430   2.4461960  72.2896210   8.7151560
   2.1608880  71.9251880   9.5530180   2.3840820  71.5576670   8.1014700
   7.3720840  76.5861160  14.9042300   7.0677910  77.4653140  15.1292660
   8.3267300  76.6460950  14.9399740  12.1200550  71.1825470   5.4364930
  11.3065160  70.6838640   5.3610240  11.9262500  72.0223720   5.0201280
  14.8348940  75.5545120   3.7327090  15.7228560  75.8662350   3.5578430
  14.8054030  74.6817370   3.3407670   3.4284570  77.4263900  16.0513660
   3.0699510  78.0917750  16.6387000   3.1339130  76.5947450  16.4226280
   6.6297690  77.8848140  18.9353210   6.3297830  78.0305320  18.0381030
   7.4008930  77.3253430  18.8426600  17.1063210  76.8656960   3.2006950
  17.0226930  77.2971180   2.3503390  17.8257400  77.3255310   3.6333770
   5.0039210  69.1566020   7.2679060   4.8753840  69.1483920   8.2163980
   4.1801230  69.4949110   6.9170070  13.4971920  73.4079450  14.4787210
  13.8652740  72.5874660  14.8066780  12.6370120  73.4681340  14.8942860
  16.8633950  72.3636390   5.2874770  16.2347110  72.4682060   4.5733000
  16.3685870  72.5833170   6.0768650   8.8317980  74.6422340   6.7032650
   8.1234130  75.1108680   7.1446260   9.1162460  73.9844350   7.3377840
  10.4573910  76.0619040  14.7025180  10.9559160  76.5364860  15.3677030
  10.5996860  75.1382560  14.9095210  12.8633410  71.3673000   8.1428440
  12.7401190  71.3859130   7.1937950  13.8117970  71.4151940   8.2626840
   7.0353000  72.9507420   4.0783360   7.8843530  73.3877570   4.0123550
   6.6684270  73.2627680   4.9055420  17.6640770  72.2787000  15.5453570
  17.1614370  73.0192400  15.8847380  18.4797430  72.6671000  15.2290360
  15.9562780  77.5220180   8.9914930  15.0152920  77.5370410   9.1662620
  16.2706850  76.7356140   9.4375230   4.6291180  76.6364850   3.2351780
   4.7094770  75.6892360   3.3469180   5.5210930  76.9671730   3.3412440
   4.1885060  76.6009360  19.3658020   4.2290400  76.3023230  20.2743250
   5.0430560  77.0016970  19.2065540   6.1290870  75.1801460  17.3332510
   5.5987330  74.6892410  16.7055850   6.7978940  75.6085660  16.7990440
  15.4991100  76.9867080  19.1012850  16.0811870  76.2319400  19.0133330
  15.6752870  77.5174520  18.3244330   6.6163170  72.1463830  17.4129800
   6.5220040  71.5284580  16.6880670   6.0360560  72.8730120  17.1859710
   9.3824610  70.7037070  14.4457190   8.9341910  70.7261330  13.6002740
   8.7489810  70.3056090  15.0427490  12.1248060  77.3307580  16.4507470
  12.2444270  76.7348720  17.1902310  12.9842060  77.3677270  16.0308770
  14.4635960  77.8844770  15.0269980  13.9371180  78.4087390  14.4235120
  14.8067300  78.5172160  15.6579710   8.8916830  73.8728930  17.7083290
   9.4816520  73.5644780  18.3961110   8.0737070  73.4008680  17.8643190
  13.7110260  73.4894740  17.9416310  13.0225780  72.8276280  17.8766300
  14.4316280  73.0433010  18.3864770  14.3410660  70.0846370   4.0006570
  14.6212950  69.2414270   4.3565990  13.5676390  70.3169480   4.5145320
   8.8790080  71.3173380   2.4453770   8.5312080  70.6397370   1.8656220
   9.0802850  70.8562890   3.2597160  15.1686160  72.6402320   3.0636630
  15.5871040  72.4533300   2.2233290  14.8622220  71.7881370   3.3739560
  18.6675890  77.5526460   6.7612430  18.2919490  76.7854390   6.3293720
  17.9379010  77.9349160   7.2487360   3.2571650  78.2313600  13.3821480
   3.6244690  78.1441000  14.2617500   2.6882470  77.4680150  13.2828340
  18.0575510  76.6997980  16.3951950  17.8261600  76.4710730  15.4949900
  18.3180060  77.6197530  16.3496840   2.8087650  75.1422690  17.2879900
   1.9143700  75.1089450  17.6273610   3.3485200  75.3409480  18.0531150
  16.4963580  71.9254410  19.1731650  17.3733760  71.9337810  19.5565650
  16.5084420  71.1885250  18.5624000  17.9426850  75.7783950  10.0619670
  18.4664330  75.2846600   9.4309840  18.5286270  75.9134310  10.8067240
  18.1216570  75.8623820  13.5839220  17.1719280  75.8287360  13.6984210
  18.3029580  76.7723930  13.3488990   3.9761010  74.1125500   2.6937850
   4.6852710  73.6908720   2.2085130   3.2600950  74.1800730   2.0621200
  17.4326820  75.0357300   6.0012080  17.9285940  74.8028170   6.7860960
  17.2342890  74.1969140   5.5849720   3.3127360  69.4171020  11.6363120
   3.9603550  68.8668400  11.1958280   3.7329200  69.6714170  12.4578930
  18.8613980  73.6718250   8.5349760  18.7513260  73.5174290   9.4732030
  19.6221570  73.1439190   8.2925170  17.2079700  69.6112380  14.9932760
  17.8451920  70.2246520  15.3591950  17.3554590  69.6473040  14.0481990
  19.7504250  71.5026170   1.7755900  20.6753560  71.3707350   1.5674190
  19.7280040  71.5818990   2.7292350  19.8242740  72.2736830   4.4012610
  19.0294240  72.2081950   4.9305520  20.0286020  73.2087470   4.3897960
   3.0659360  69.5726690  14.3788440   2.7174180  70.0290510  15.1446620
   2.7347060  68.6783820  14.4610870  10.5784180  70.7638570  17.9007860
  10.5173070  71.3560400  18.6503270  11.5184560  70.6564530  17.7558120
  13.2158740  70.4208630  17.5400150  13.8299150  70.7387920  16.8781230
  13.7608300  69.9357220  18.1596010   3.7380000  69.1002890  17.6539210
   4.2862990  68.9190940  16.8905320   3.8035310  68.3097000  18.1895520
  13.9566780  68.9840770  13.8669440  13.0826620  69.3175880  13.6642370
  13.8477530  68.5113950  14.6921310  14.8638760  71.1911640  15.2511160
  14.5352120  70.3763400  14.8712890  15.8121060  71.1481450  15.1276850
  11.7041600  69.9010610  12.8062350  10.9213390  70.3756110  13.0859110
  11.4104530  68.9965440  12.6975530  16.2562670  70.6033710  10.8511440
  16.6970760  70.5478810  10.0033040  15.9870260  71.5191720  10.9221620
  18.1201240  70.2348950   8.8620260  18.0589640  69.2910170   8.7151280
  18.8993270  70.3429040   9.4073720   3.0482010  70.2058090   5.3276070
   3.8061370  70.3186970   4.7540100   2.5859180  71.0427290   5.2819500
   9.5895820  72.3197360   8.3178380   8.7770330  71.9454250   7.9774260
  10.0937460  71.5642440   8.6199570  14.0920800  68.9839810   9.5561450
  14.6950170  69.5560020  10.0309970  13.3513790  69.5479250   9.3335350
  17.2355400  69.3861370   4.8301730  17.4306030  70.2844820   5.0969160
  16.4485270  69.1548450   5.3234680   5.4207160  70.7322140   3.8678040
   5.9499920  69.9451940   3.7385990   6.0535480  71.4113330   4.1013570
   7.6145000  70.4697280   6.9223430   6.9847740  69.7684590   7.0893560
   7.0750140  71.2301410   6.7056590   7.7400560  69.7481260  19.3575920
   7.4584830  70.2514860  18.5936740   8.1220260  68.9503010  18.9918050
  14.3416020  69.1634840  19.9356390  14.2281470  69.4829450  20.8307910
  15.1585760  69.5647350  19.6393670  13.2474170  58.4083820  46.6221600
  13.1668220  57.4938430  46.3513310  12.8338590  58.9050890  45.9161310
  11.3792210  60.1862840  48.5030870  10.6034310  59.7063280  48.7929440
  12.0305140  59.5068490  48.3287030   5.3958040  60.4982650  49.3806630
   4.5642920  60.2431360  49.7803140   6.0039020  60.5693420  50.1164550
  15.3999640  64.5923030  47.2830000  14.9381170  63.8210270  47.6117170
  16.2125190  64.6189100  47.7882450   5.3759300  64.5322740  49.5764650
   5.6787340  63.6420480  49.3974870   6.1202890  65.0892960  49.3486900
   3.8049990  55.4584540  43.1649020   2.9166690  55.8000510  43.0628900
   4.0891180  55.2584860  42.2729850   1.7683000  58.0590190  49.0488720
   2.3399110  57.2912390  49.0492360   1.7684540  58.3578950  48.1395330
  11.6262950  66.8781040  46.9033990  11.0074390  67.3338540  46.3328430
  12.4814730  67.0332500  46.5023690  10.8201200  62.8620030  48.5101030
  10.7509480  61.9209970  48.3490160  11.5821060  62.9521440  49.0823600
   3.0107870  53.4674550  50.8357650   2.8310710  52.5700300  51.1160410
   2.6087950  54.0146420  51.5104600  11.8506370  55.6690410  48.7369960
  12.2271190  54.7962290  48.6243630  11.7525880  56.0049110  47.8460400
   5.9811380  54.0416040  44.1987400   6.0878130  54.9419770  44.5056160
   5.0703740  53.9934010  43.9082050  15.6330490  53.1640850  45.6698300
  16.4540110  52.6737420  45.7123780  15.6664570  53.7538510  46.4230140
   3.6294540  55.9635050  49.4439990   4.3104650  56.2273420  50.0627390
   3.3142590  55.1235920  49.7778000   7.8219110  57.0102410  48.5312580
   8.3297330  57.5083380  49.1717600   8.3532350  56.2337610  48.3551940
  19.9230040  55.1807600  52.2341930  19.2182210  55.5689310  51.7157040
  20.1887960  55.8757890  52.8362860   6.1055210  51.6500970  52.7976000
   6.1073650  52.1673360  51.9921900   5.2759520  51.1731150  52.7745930
  12.4926300  61.7620280  44.2965900  11.8743570  62.2269730  43.7328620
  13.0049550  62.4547760  44.7135410   7.3558060  61.2896150  50.9749500
   7.0227440  61.9165070  51.6170570   7.5324740  61.8158030  50.1951170
  15.8691970  55.1041230  48.4425840  15.1647540  55.3926120  49.0228950
  16.2304130  55.9141340  48.0825400   5.7870540  53.3610930  50.8046450
   6.1287350  54.2052980  50.5100320   4.8486350  53.5094670  50.9211790
   6.5677160  63.2576950  52.7898680   7.1851160  63.9328030  52.5083130
   5.7070280  63.6664930  52.6986180  17.4854750  64.7216360  50.7053320
  16.8018270  65.3915470  50.6969990  18.0249040  64.9197010  49.9398180
  18.9378890  54.5496020  48.8335050  17.9903800  54.5835000  48.9650480
  19.2628880  55.3634970  49.2184410   9.4698430  50.8493200  47.1291040
   9.7773410  50.2940090  46.4126540   8.5399130  50.9837660  46.9464030
  15.0213490  66.5660490  49.4198500  15.0340650  66.1622780  48.5520760
  14.4688710  67.3407780  49.3159930  16.3158910  63.2876710  44.5088670
  16.2055240  62.3451040  44.6338090  16.3127160  63.6492350  45.3951430
  14.4198930  61.4690330  50.7481110  14.8367720  61.2550440  49.9134570
  15.1438750  61.7263120  51.3189730  11.8579190  58.9142030  43.8651160
  10.9308470  58.8479410  44.0939630  12.0104010  59.8522160  43.7506400
  11.8448270  55.1859030  40.8618320  10.9051940  55.3472990  40.9470780
  12.1631530  55.9044710  40.3154310  18.3661030  59.8677550  50.8397350
  17.5379660  59.9370640  50.3647480  18.9611510  60.4531860  50.3713180
  15.8876480  60.4762330  44.3686410  15.2688900  60.1381880  43.7212710
  15.8700930  59.8322090  45.0765600  15.3303040  56.6546870  51.7852220
  14.9174220  57.4800580  52.0392210  14.5978990  56.0691910  51.5928580
   7.4635830  59.4406770  46.6470890   7.0592830  58.7284020  46.1516790
   7.5498950  59.0960010  47.5358930   7.9317530  63.1274330  48.8110100
   7.6345820  62.5219800  48.1317880   8.8817350  63.1651640  48.6999460
   6.1764450  56.2149980  50.4269930   6.7279040  56.3245320  49.6523180
   6.6907960  56.5887580  51.1425160  16.0203140  66.7006200  52.4733200
  15.5433700  67.5078390  52.2805810  15.3364930  66.0484530  52.6259410
   7.0235960  62.8656020  55.4617900   6.1264490  63.0895990  55.7091300
   7.0488830  62.9890960  54.5129300  14.0641180  59.7149140  41.3759160
  14.5034460  58.8771570  41.2296980  14.7769600  60.3478540  41.4623300
   5.8507180  59.7369340  54.0375270   5.7114950  60.6092140  54.4062670
   4.9688540  59.3942150  53.8923210  12.1736560  64.6545210  45.3440400
  12.6132470  65.3969540  44.9295790  12.1123450  64.8971780  46.2679360
   7.6487530  65.6791040  56.2460420   7.6202960  66.0833990  55.3788850
   7.4852500  64.7501400  56.0832020  17.6458320  50.9691950  39.6900200
  17.3330980  51.0618780  40.5899270  18.4070790  51.5472980  39.6397630
   4.1640460  58.3351750  44.1477540   4.0438060  59.0613840  43.5358810
   3.8541350  57.5654660  43.6705450   1.8025830  61.5066890  49.9546180
   1.8806250  61.6415660  49.0101900   2.4167510  60.7982780  50.1474300
   3.0473460  63.2067080  46.3652360   2.6401540  63.3481670  45.5105960
   3.9386470  62.9227240  46.1623570  19.0035600  63.6530990  54.7024600
  19.1298660  63.4142870  53.7841780  19.0456980  62.8215530  55.1746680
  12.8652340  67.3558990  53.2719410  13.3797010  67.2667000  54.0741840
  12.0221420  67.7018690  53.5647320  14.8406740  67.6414330  42.7003410
  14.6807880  67.3517270  43.5985240  14.6753450  66.8654460  42.1648640
   7.3195120  67.4212860  44.4775030   7.1437600  66.5048400  44.2642830
   6.4650860  67.7800150  44.7172830  14.5432870  65.1501890  41.2601410
  13.8498030  65.1479180  40.6003690  15.2855730  64.7261210  40.8295580
  14.1082800  66.7764600  45.3349900  14.5639750  65.9953980  45.6488520
  14.4475320  67.4871420  45.8791080  18.8559610  55.7063450  55.6674340
  18.2403880  56.2143120  55.1389800  18.5356030  54.8061780  55.6100280
   1.8585350  62.5481060  52.4940640   2.0216390  62.0786420  51.6760010
   2.3237800  62.0404620  53.1589480   6.6304120  51.6786820  47.5301210
   6.1872270  52.4596360  47.1985730   7.1889110  52.0016710  48.2372150
  10.9173930  54.5455340  53.1336530  10.4553300  54.7538360  53.9456470
  10.5152040  53.7314690  52.8307200  15.9178440  55.7664290  54.2633190
  15.0672030  55.4670040  54.5842260  15.7580230  56.0106300  53.3517010
  13.0128150  57.2666040  56.3631980  13.3381560  56.4329790  56.0234210
  13.8008480  57.7894560  56.5110310   9.7462940  51.2997520  42.4107040
   9.1217120  51.2957390  43.1360350   9.6593060  50.4328480  42.0143010
   8.6680020  52.2234150  49.3890810   8.9652350  53.1296980  49.3082830
   9.2165580  51.7352930  48.7750380   6.4218340  56.8020390  45.2582460
   6.1959260  56.5857560  46.1629080   5.6410870  57.2348850  44.9128430
  13.6516100  56.8083760  43.8573110  13.0524990  57.5319560  43.6736730
  14.1995710  56.7460540  43.0749560   8.8617550  57.7005970  55.9242730
   8.7661150  56.7600700  55.7743130   9.7049530  57.9221040  55.5290800
  12.2580970  55.4447300  45.8876390  12.6510540  55.7619500  45.0745080
  12.6197820  54.5659180  46.0020910   3.9928090  54.1119640  54.0776510
   3.5991480  54.9594850  54.2849290   3.3046490  53.4746010  54.2685150
  12.8436110  58.0353050  49.9827170  12.1117230  58.5439860  50.3317270
  12.4460450  57.2183030  49.6815950   9.2813500  54.7107250  48.3879660
   9.2849560  54.2697200  47.5384200  10.1764620  55.0324580  48.4951480
   5.1315880  54.5933740  47.3473870   4.7915930  55.0708970  48.1040920
   4.3693200  54.1398860  46.9874970   9.3433650  55.7119330  41.3786420
   9.4646470  55.6705810  42.3272240   8.9582160  56.5743480  41.2233150
  13.3062020  53.4886730  49.3950110  13.3234760  53.9395380  50.2391960
  13.0577600  52.5892370  49.6083550   8.3555150  58.0220470  40.7769720
   7.7872050  57.5738720  40.1505630   9.0644150  58.3813250  40.2434870
  16.7332770  50.9018910  55.2336490  17.0578540  50.1708570  55.7594470
  16.7689280  50.5832550  54.3317480   3.4324330  61.9232490  54.6536450
   3.0479120  61.2826160  55.2519410   3.7436520  62.6268610  55.2231180
   9.5821470  58.7709030  50.1345070   9.9491600  58.2967600  50.8806410
   9.3926530  59.6450600  50.4753410   2.4461960  53.5152720  46.2638540
   2.1608880  53.1508390  47.1017160   2.3840820  52.7833180  45.6501680
   7.3720840  57.8117670  52.4529280   7.0677910  58.6909650  52.6779640
   8.3267300  57.8717460  52.4886720   5.9002630  62.0178660  43.0496130
   5.1264890  61.4776280  42.8894850   6.6297260  61.4985270  42.7113890
  16.6590610  61.0144020  48.8422520  17.3789730  61.5099310  48.4518630
  16.4572430  60.3361910  48.1976390  12.1200550  52.4081980  42.9851910
  11.3065160  51.9095150  42.9097220  11.9262500  53.2480230  42.5688260
  12.0409410  61.0853080  54.7291520  11.9746720  60.1648750  54.4749110
  11.4114550  61.1828520  55.4436160  14.8348940  56.7801630  41.2814070
  15.7228560  57.0918860  41.1065410  14.8054030  55.9073880  40.8894650
   5.9440030  61.6859040  46.6874940   6.4618700  60.8827300  46.6331830
   5.4924050  61.6238180  47.5291770  10.8309530  62.9525320  41.9602240
  11.1725230  63.6967550  41.4645560  10.0022240  63.2656440  42.3227070
   3.4284570  58.6520410  53.6000640   3.0699510  59.3174260  54.1873980
   3.1339130  57.8203960  53.9713260   6.6297690  59.1104650  56.4840190
   6.3297830  59.2561830  55.5868010   7.4008930  58.5509940  56.3913580
  11.9726140  63.9073650  54.4795320  11.9870680  62.9754610  54.2614230
  11.2651240  63.9933410  55.1185090  17.1063210  58.0913470  40.7493930
  17.0226930  58.5227690  39.8990370  17.8257400  58.5511820  41.1820750
  18.1837350  60.5480990  53.8263900  17.4585540  61.1409770  53.6293290
  18.7112810  60.5404530  53.0277270  18.1350460  64.9455730  43.4776060
  17.4926620  64.2911350  43.7519780  17.7481120  65.3510820  42.7016730
  13.7136940  62.2741160  47.3247750  14.0660760  61.6769290  46.6649120
  12.8299270  61.9485390  47.4956000   9.8000220  63.0338850  44.7318160
  10.4871350  63.5808060  45.1125750   9.0132640  63.5779580  44.7667770
   9.1027430  60.0384880  44.3443520   9.5590210  60.8490130  44.5703710
   8.7515640  59.7208020  45.1762010  11.4060040  65.5491220  51.5735820
  12.0502260  65.7550600  52.2509240  11.7689480  64.7879620  51.1206670
   5.0039210  50.3822530  44.8166040   4.8753840  50.3740430  45.7650960
   4.1801230  50.7205620  44.4657050  12.6792120  63.5523570  50.2913270
  13.3214350  62.8516730  50.4045440  13.2041470  64.3322010  50.1110160
  16.5247840  63.8372190  40.0152410  16.2985420  63.1202630  40.6077050
  16.1344040  63.5884630  39.1774160  14.4529740  64.3518470  53.4949330
  14.7885980  64.9385160  54.1727250  13.5330080  64.2211180  53.7247120
   2.3063870  67.8639050  40.7896870   2.6661510  68.4628390  40.1354140
   2.1656210  68.4098940  41.5631900  16.1064090  61.7544130  41.6766570
  15.8185790  62.2156820  42.4644450  16.9016260  61.2941900  41.9450790
   2.2905730  66.1293910  55.2639270   2.3996850  65.1888650  55.1234660
   1.6386290  66.3948660  54.6153000  10.2818320  64.4009800  56.6637390
   9.9615190  63.6819040  57.2083080   9.6076680  65.0764870  56.7373450
   8.3232490  65.2470250  41.6070540   8.3142590  65.9799940  40.9915050
   7.4030850  65.0001830  41.6997500   3.9239130  60.4685140  42.3517300
   3.3167080  61.2084040  42.3612600   4.3988480  60.5584500  41.5255500
  13.4971920  54.6335960  52.0274190  13.8652740  53.8131170  52.3553760
  12.6370120  54.6937850  52.4429840  16.8633950  53.5892900  42.8361750
  16.2347110  53.6938570  42.1219980  16.3685870  53.8089680  43.6255630
  11.3092090  65.3098490  40.2695730  11.4104070  65.1062480  39.3397710
  10.4093830  65.0556770  40.4743510   8.8317980  55.8678850  44.2519630
   8.1234130  56.3365190  44.6933240   9.1162460  55.2100860  44.8864820
  10.4573910  57.2875550  52.2512160  10.9559160  57.7621370  52.9164010
  10.5996860  56.3639070  52.4582190  12.8633410  52.5929510  45.6915420
  12.7401190  52.6115640  44.7424930  13.8117970  52.6408450  45.8113820
   9.9510200  67.8284810  44.9643400  10.2051700  67.7906200  44.0422770
   9.0022680  67.7018140  44.9571650   7.0353000  54.1763930  41.6270340
   7.8843530  54.6134080  41.5610530   6.6684270  54.4884190  42.4542400
  17.6640770  53.5043510  53.0940550  17.1614370  54.2448910  53.4334360
  18.4797430  53.8927510  52.7777340  15.9562780  58.7476690  46.5401910
  15.0152920  58.7626920  46.7149600  16.2706850  57.9612650  46.9862210
   5.9344420  60.4296290  40.1005870   6.7007690  60.3177650  40.6631300
   6.0119110  59.7334260  39.4482640   4.6291180  57.8621360  40.7838760
   4.7094770  56.9148870  40.8956160   5.5210930  58.1928240  40.8899420
  17.9588360  65.9185540  48.2156170  18.0835780  66.7416710  48.6879980
  18.8253920  65.7076270  47.8680320   5.4305890  68.0116750  47.8873300
   6.1668370  67.4632210  48.1581870   5.8146810  68.8772760  47.7479290
   8.5408200  67.1847060  39.7098870   9.3336810  67.4735890  39.2580660
   8.0212550  66.7539230  39.0311350  14.7029170  67.0322980  55.6343700
  15.6550920  66.9481000  55.5843940  14.5557390  67.6964690  56.3077490
  17.5938370  66.4117190  41.1335610  17.3079880  65.9982330  40.3189790
  17.3957920  67.3404900  41.0136130   9.0585600  62.4050470  39.5741220
   8.9536240  61.7902820  40.3002600   8.8909820  61.8816360  38.7904230
   9.2099920  61.0907270  55.5530450   8.4445590  61.6592270  55.4685120
   9.3915880  60.7983480  54.6598680  12.2988330  61.4670500  40.1783210
  11.7498430  61.9139800  40.8225950  12.9207590  60.9619750  40.7020880
  16.3523270  62.8212600  56.1105470  17.0932740  63.1588360  55.6072930
  15.5895950  62.9904660  55.5575240   7.9663450  60.4261420  42.0748510
   8.3879870  60.2601290  42.9179900   8.0914290  59.6161650  41.5803650
   6.1290870  56.4057970  54.8819490   5.5987330  55.9148920  54.2542830
   6.7978940  56.8342170  54.3477420  10.4791090  59.4499030  39.3225610
  10.9996750  58.7348050  38.9566760  11.1259490  60.0884900  39.6226120
  15.0268930  60.8727430  54.6460680  15.4409950  61.0272510  55.4951100
  14.0919930  60.9982650  54.8086460  15.4991100  58.2123590  56.6499830
  16.0811870  57.4575910  56.5620310  15.6752870  58.7431030  55.8731310
   6.6163170  53.3720340  54.9616780   6.5220040  52.7541090  54.2367650
   6.0360560  54.0986630  54.7346690   9.3824610  51.9293580  51.9944170
   8.9341910  51.9517840  51.1489720   8.7489810  51.5312600  52.5914470
   9.7884160  60.8247910  52.6156610  10.2072270  61.6680640  52.4432850
   8.8692790  60.9619950  52.3863390  12.1248060  58.5564090  53.9994450
  12.2444270  57.9605230  54.7389290  12.9842060  58.5933780  53.5795750
  14.4635960  59.1101280  52.5756960  13.9371180  59.6343900  51.9722100
  14.8067300  59.7428670  53.2066690   6.8622350  56.4994650  39.0206670
   6.6611410  55.6362010  39.3820010   6.6914400  56.4128010  38.0828270
   7.6391580  67.1300920  53.7314340   7.1012670  67.8546980  53.4123040
   7.8925540  66.6531260  52.9411680   8.8916830  55.0985440  55.2570270
   9.4816520  54.7901290  55.9448090   8.0737070  54.6265190  55.4130170
  13.7110260  54.7151250  55.4903290  13.0225780  54.0532790  55.4253280
  14.4316280  54.2689520  55.9351750  14.3410660  51.3102880  41.5493550
  14.6212950  50.4670780  41.9052970  13.5676390  51.5425990  42.0632300
   5.6605150  53.5995270  39.0084550   5.9631050  53.6062700  38.1003700
   6.3999740  53.2493130  39.5052210  10.4953790  68.3652130  53.9900990
  10.4212490  69.2687270  54.2973360   9.5932630  68.0464030  53.9623060
   8.8790080  52.5429890  39.9940750   8.5312080  51.8653880  39.4143200
   9.0802850  52.0819400  40.8084140  11.0439120  67.5310640  41.6127350
  11.9389910  67.8695610  41.6346110  11.0756750  66.8090050  40.9851630
   4.6835280  62.9037690  39.8414350   5.1210150  63.4467360  40.4971930
   5.1683010  62.0784640  39.8510690   1.8981080  65.6926720  47.2934610
   2.2284090  64.8247780  47.0613250   2.3272080  65.8985240  48.1239570
   6.4943000  64.0235730  44.9536580   6.1938540  63.9000700  45.8540490
   6.3880490  63.1644320  44.5452310   2.3871290  66.5597310  50.0316240
   1.9502280  66.7398110  50.8640390   2.9548970  67.3171930  49.8897960
  18.0233470  66.0614310  54.3193550  17.4235460  66.1206870  53.5757470
  18.1527370  65.1219290  54.4490400  19.2634920  63.8032130  39.6563260
  18.4327880  63.8708780  40.1270490  19.4406750  64.6936250  39.3530120
  18.7191380  60.5479610  42.1597460  19.4810290  61.1176260  42.2657150
  18.7345750  59.9806810  42.9305770  19.7251350  61.4029710  47.0039390
  20.0960180  60.6197030  46.5975360  20.3653280  62.0918810  46.8256690
  16.7085110  62.7866290  52.4169710  15.8944950  63.2163450  52.6795500
  17.1159310  63.3984700  51.8038760  18.7710550  60.8413980  39.3169980
  19.0459390  61.7492860  39.1889200  18.5821290  60.7776510  40.2531970
  15.1686160  53.8658830  40.6123610  15.5871040  53.6789810  39.7720270
  14.8622220  53.0137880  40.9226540  18.6675890  58.7782970  44.3099410
  18.2919490  58.0110900  43.8780700  17.9379010  59.1605670  44.7974340
   3.2571650  59.4570110  50.9308460   3.6244690  59.3697510  51.8104480
   2.6882470  58.6936660  50.8315320  18.0575510  57.9254490  53.9438930
  17.8261600  57.6967240  53.0436880  18.3180060  58.8454040  53.8983820
   2.8087650  56.3679200  54.8366880   1.9143700  56.3345960  55.1760590
   3.3485200  56.5665990  55.6018130  16.4963580  53.1510920  56.7218630
  17.3733760  53.1594320  57.1052630  16.5084420  52.4141760  56.1110980
  17.9426850  57.0040460  47.6106650  18.4664330  56.5103110  46.9796820
  18.5286270  57.1390820  48.3554220  18.1216570  57.0880330  51.1326200
  17.1719280  57.0543870  51.2471190  18.3029580  57.9980440  50.8975970
   3.9761010  55.3382010  40.2424830   4.6852710  54.9165230  39.7572110
   3.2600950  55.4057240  39.6108180   3.6235170  51.3921340  39.2827480
   4.3463300  51.9330280  39.6008700   3.8959690  51.1184760  38.4069020
  17.4326820  56.2613810  43.5499060  17.9285940  56.0284680  44.3347940
  17.2342890  55.4225650  43.1336700   3.3127360  50.6427530  49.1850100
   3.9603550  50.0924910  48.7445260   3.7329200  50.8970680  50.0065910
  18.8613980  54.8974760  46.0836740  18.7513260  54.7430800  47.0219010
  19.6221570  54.3695700  45.8412150  17.2079700  50.8368890  52.5419740
  17.8451920  51.4503030  52.9078930  17.3554590  50.8729550  51.5968970
  19.7504250  52.7282680  39.3242880  20.6753560  52.5963860  39.1161170
  19.7280040  52.8075500  40.2779330  19.8242740  53.4993340  41.9499590
  19.0294240  53.4338460  42.4792500  20.0286020  54.4343980  41.9384940
  16.7661160  67.5384890  45.9437980  17.3620230  67.2169460  45.2672400
  17.0239310  67.0656710  46.7351250   3.0659360  50.7983200  51.9275420
   2.7174180  51.2547020  52.6933600   2.7347060  49.9040330  52.0097850
   4.6723730  63.9702800  56.0928610   4.6293360  63.5995710  56.9743070
   4.8034740  64.9080370  56.2330430   8.3729760  65.5262390  51.6938330
   8.1321120  65.7936950  50.8068850   9.3132400  65.6968120  51.7489190
  10.5784180  51.9895080  55.4494840  10.5173070  52.5816910  56.1990250
  11.5184560  51.8821040  55.3045100  13.2158740  51.6465140  55.0887130
  13.8299150  51.9644430  54.4268210  13.7608300  51.1613730  55.7082990
  19.6333920  67.5456770  52.4948970  19.1392200  67.9425640  51.7776100
  19.0247210  66.9205980  52.8886250   3.7380000  50.3259400  55.2026190
   4.2862990  50.1447450  54.4392300   3.8035310  49.5353510  55.7382500
   4.5111760  66.9165050  53.2126390   3.9172080  66.7849750  53.9516430
   4.5035600  66.0803190  52.7468490  13.9566780  50.2097280  51.4156420
  13.0826620  50.5432390  51.2129350  13.8477530  49.7370460  52.2408290
  14.8638760  52.4168150  52.7998140  14.5352120  51.6019910  52.4199870
  15.8121060  52.3737960  52.6763830  17.3173370  68.1880190  49.7735710
  16.8576340  68.9396000  49.3993730  16.6885830  67.4686660  49.7150510
   4.1423990  64.2823430  52.1634430   3.4158050  63.6628720  52.0960380
   4.2033140  64.6764040  51.2932510   7.7469090  66.4968430  48.9483840
   8.2634110  65.8855790  48.4232100   8.3966470  66.9997210  49.4394850
  10.4864590  67.3876920  49.7752820  10.7742400  67.1331220  48.8985830
  10.9987810  66.8354280  50.3658390  11.7041600  51.1267120  50.3549330
  10.9213390  51.6012620  50.6346090  11.4104530  50.2221950  50.2462510
  16.2562670  51.8290220  48.3998420  16.6970760  51.7735320  47.5520020
  15.9870260  52.7448230  48.4708600  18.1201240  51.4605460  46.4107240
  18.0589640  50.5166680  46.2638260  18.8993270  51.5685550  46.9560700
   3.0482010  51.4314600  42.8763050   3.8061370  51.5443480  42.3027080
   2.5859180  52.2683800  42.8306480   9.5895820  53.5453870  45.8665360
   8.7770330  53.1710760  45.5261240  10.0937460  52.7898950  46.1686550
  14.0920800  50.2096320  47.1048430  14.6950170  50.7816530  47.5796950
  13.3513790  50.7735760  46.8822330  17.2355400  50.6117880  42.3788710
  17.4306030  51.5101330  42.6456140  16.4485270  50.3804960  42.8721660
   4.0316690  66.2931050  42.8181330   3.5064310  66.6739080  42.1143290
   3.9561270  66.9181820  43.5391040   5.4207160  51.9578650  41.4165020
   5.9499920  51.1708450  41.2872970   6.0535480  52.6369840  41.6500550
   7.6145000  51.6953790  44.4710410   6.9847740  50.9941100  44.6380540
   7.0750140  52.4557920  44.2543570  10.5536950  68.3093020  57.1421020
  11.4804260  68.0737290  57.1856980  10.5387380  69.1365020  56.6607050
  18.7882010  67.8518590  44.1395270  18.9634200  67.1656330  43.4956190
  18.0903580  68.3765640  43.7471940   7.7400560  50.9737770  56.9062900
   7.4584830  51.4771370  56.1423720   8.1220260  50.1759520  56.5405030
   6.6309660  68.2413430  41.6930580   7.3628480  67.9572710  41.1454470
   6.8903330  68.0026710  42.5829960   5.7924450  64.3578160  41.6976910
   5.1633330  64.8263260  42.2462740   5.9072280  63.5127380  42.1323100
  13.2474170  58.4083820  27.8478110  13.1668220  57.4938430  27.5769820
  12.8338590  58.9050890  27.1417820  11.3792210  60.1862840  29.7287380
  10.6034310  59.7063280  30.0185950  12.0305140  59.5068490  29.5543540
   5.3958040  60.4982650  30.6063140   4.5642920  60.2431360  31.0059650
   6.0039020  60.5693420  31.3421060  15.3999640  64.5923030  28.5086510
  14.9381170  63.8210270  28.8373680  16.2125190  64.6189100  29.0138960
   5.3759300  64.5322740  30.8021160   5.6787340  63.6420480  30.6231380
   6.1202890  65.0892960  30.5743410   3.8049990  55.4584540  24.3905530
   2.9166690  55.8000510  24.2885410   4.0891180  55.2584860  23.4986360
   1.7683000  58.0590190  30.2745230   2.3399110  57.2912390  30.2748870
   1.7684540  58.3578950  29.3651840  11.6262950  66.8781040  28.1290500
  11.0074390  67.3338540  27.5584940  12.4814730  67.0332500  27.7280200
  10.8201200  62.8620030  29.7357540  10.7509480  61.9209970  29.5746670
  11.5821060  62.9521440  30.3080110   3.0107870  53.4674550  32.0614160
   2.8310710  52.5700300  32.3416920   2.6087950  54.0146420  32.7361110
  11.8506370  55.6690410  29.9626470  12.2271190  54.7962290  29.8500140
  11.7525880  56.0049110  29.0716910   5.9811380  54.0416040  25.4243910
   6.0878130  54.9419770  25.7312670   5.0703740  53.9934010  25.1338560
  15.6330490  53.1640850  26.8954810  16.4540110  52.6737420  26.9380290
  15.6664570  53.7538510  27.6486650   3.6294540  55.9635050  30.6696500
   4.3104650  56.2273420  31.2883900   3.3142590  55.1235920  31.0034510
   7.8219110  57.0102410  29.7569090   8.3297330  57.5083380  30.3974110
   8.3532350  56.2337610  29.5808450   6.1055210  51.6500970  34.0232510
   6.1073650  52.1673360  33.2178410   5.2759520  51.1731150  34.0002440
  12.4926300  61.7620280  25.5222410  11.8743570  62.2269730  24.9585130
  13.0049550  62.4547760  25.9391920   7.3558060  61.2896150  32.2006010
   7.0227440  61.9165070  32.8427080   7.5324740  61.8158030  31.4207680
  15.8691970  55.1041230  29.6682350  15.1647540  55.3926120  30.2485460
  16.2304130  55.9141340  29.3081910   5.7870540  53.3610930  32.0302960
   6.1287350  54.2052980  31.7356830   4.8486350  53.5094670  32.1468300
   6.5677160  63.2576950  34.0155190   7.1851160  63.9328030  33.7339640
   5.7070280  63.6664930  33.9242690  17.4854750  64.7216360  31.9309830
  16.8018270  65.3915470  31.9226500  18.0249040  64.9197010  31.1654690
  18.9378890  54.5496020  30.0591560  17.9903800  54.5835000  30.1906990
  19.2628880  55.3634970  30.4440920   9.4698430  50.8493200  28.3547550
   9.7773410  50.2940090  27.6383050   8.5399130  50.9837660  28.1720540
  15.0213490  66.5660490  30.6455010  15.0340650  66.1622780  29.7777270
  14.4688710  67.3407780  30.5416440  16.3158910  63.2876710  25.7345180
  16.2055240  62.3451040  25.8594600  16.3127160  63.6492350  26.6207940
  14.4198930  61.4690330  31.9737620  14.8367720  61.2550440  31.1391080
  15.1438750  61.7263120  32.5446240  11.8579190  58.9142030  25.0907670
  10.9308470  58.8479410  25.3196140  12.0104010  59.8522160  24.9762910
  11.8448270  55.1859030  22.0874830  10.9051940  55.3472990  22.1727290
  12.1631530  55.9044710  21.5410820  15.8876480  60.4762330  25.5942920
  15.2688900  60.1381880  24.9469220  15.8700930  59.8322090  26.3022110
  15.3303040  56.6546870  33.0108730  14.9174220  57.4800580  33.2648720
  14.5978990  56.0691910  32.8185090   7.4635830  59.4406770  27.8727400
   7.0592830  58.7284020  27.3773300   7.5498950  59.0960010  28.7615440
   7.9317530  63.1274330  30.0366610   7.6345820  62.5219800  29.3574390
   8.8817350  63.1651640  29.9255970   6.1764450  56.2149980  31.6526440
   6.7279040  56.3245320  30.8779690   6.6907960  56.5887580  32.3681670
  16.0203140  66.7006200  33.6989710  15.5433700  67.5078390  33.5062320
  15.3364930  66.0484530  33.8515920   7.0235960  62.8656020  36.6874410
   6.1264490  63.0895990  36.9347810   7.0488830  62.9890960  35.7385810
  14.0641180  59.7149140  22.6015670  14.5034460  58.8771570  22.4553490
  14.7769600  60.3478540  22.6879810   5.8507180  59.7369340  35.2631780
   5.7114950  60.6092140  35.6319180   4.9688540  59.3942150  35.1179720
  12.1736560  64.6545210  26.5696910  12.6132470  65.3969540  26.1552300
  12.1123450  64.8971780  27.4935870   7.6487530  65.6791040  37.4716930
   7.6202960  66.0833990  36.6045360   7.4852500  64.7501400  37.3088530
  17.6458320  50.9691950  20.9156710  17.3330980  51.0618780  21.8155780
  18.4070790  51.5472980  20.8654140   4.1640460  58.3351750  25.3734050
   4.0438060  59.0613840  24.7615320   3.8541350  57.5654660  24.8961960
  19.6002350  66.4618140  38.7681100  20.0762070  66.9401030  39.4470180
  20.2209510  66.3935630  38.0426600   1.8025830  61.5066890  31.1802690
   1.8806250  61.6415660  30.2358410   2.4167510  60.7982780  31.3730810
   3.0473460  63.2067080  27.5908870   2.6401540  63.3481670  26.7362470
   3.9386470  62.9227240  27.3880080  19.0035600  63.6530990  35.9281110
  19.1298660  63.4142870  35.0098290  19.0456980  62.8215530  36.4003190
  12.8652340  67.3558990  34.4975920  13.3797010  67.2667000  35.2998350
  12.0221420  67.7018690  34.7903830  14.8406740  67.6414330  23.9259920
  14.6807880  67.3517270  24.8241750  14.6753450  66.8654460  23.3905150
   7.3195120  67.4212860  25.7031540   7.1437600  66.5048400  25.4899340
   6.4650860  67.7800150  25.9429340  14.5432870  65.1501890  22.4857920
  13.8498030  65.1479180  21.8260200  15.2855730  64.7261210  22.0552090
  14.1082800  66.7764600  26.5606410  14.5639750  65.9953980  26.8745030
  14.4475320  67.4871420  27.1047590  18.8559610  55.7063450  36.8930850
  18.2403880  56.2143120  36.3646310  18.5356030  54.8061780  36.8356790
   1.8585350  62.5481060  33.7197150   2.0216390  62.0786420  32.9016520
   2.3237800  62.0404620  34.3845990   6.6304120  51.6786820  28.7557720
   6.1872270  52.4596360  28.4242240   7.1889110  52.0016710  29.4628660
  10.9173930  54.5455340  34.3593040  10.4553300  54.7538360  35.1712980
  10.5152040  53.7314690  34.0563710  15.9178440  55.7664290  35.4889700
  15.0672030  55.4670040  35.8098770  15.7580230  56.0106300  34.5773520
  13.0128150  57.2666040  37.5888490  13.3381560  56.4329790  37.2490720
  13.8008480  57.7894560  37.7366820   9.7462940  51.2997520  23.6363550
   9.1217120  51.2957390  24.3616860   9.6593060  50.4328480  23.2399520
   8.6680020  52.2234150  30.6147320   8.9652350  53.1296980  30.5339340
   9.2165580  51.7352930  30.0006890   6.4218340  56.8020390  26.4838970
   6.1959260  56.5857560  27.3885590   5.6410870  57.2348850  26.1384940
  13.6516100  56.8083760  25.0829620  13.0524990  57.5319560  24.8993240
  14.1995710  56.7460540  24.3006070   8.8617550  57.7005970  37.1499240
   8.7661150  56.7600700  36.9999640   9.7049530  57.9221040  36.7547310
  12.2580970  55.4447300  27.1132900  12.6510540  55.7619500  26.3001590
  12.6197820  54.5659180  27.2277420   3.9928090  54.1119640  35.3033020
   3.5991480  54.9594850  35.5105800   3.3046490  53.4746010  35.4941660
  10.5673140  54.1954610  38.3729760   9.8771460  54.0026810  39.0075850
  11.3105440  54.4789250  38.9054060  12.8436110  58.0353050  31.2083680
  12.1117230  58.5439860  31.5573780  12.4460450  57.2183030  30.9072460
   9.2813500  54.7107250  29.6136170   9.2849560  54.2697200  28.7640710
  10.1764620  55.0324580  29.7207990   5.1315880  54.5933740  28.5730380
   4.7915930  55.0708970  29.3297430   4.3693200  54.1398860  28.2131480
   9.3433650  55.7119330  22.6042930   9.4646470  55.6705810  23.5528750
   8.9582160  56.5743480  22.4489660  13.3062020  53.4886730  30.6206620
  13.3234760  53.9395380  31.4648470  13.0577600  52.5892370  30.8340060
   8.3555150  58.0220470  22.0026230   7.7872050  57.5738720  21.3762140
   9.0644150  58.3813250  21.4691380  16.7332770  50.9018910  36.4593000
  17.0578540  50.1708570  36.9850980  16.7689280  50.5832550  35.5573990
   3.4324330  61.9232490  35.8792960   3.0479120  61.2826160  36.4775920
   3.7436520  62.6268610  36.4487690   9.5821470  58.7709030  31.3601580
   9.9491600  58.2967600  32.1062920   9.3926530  59.6450600  31.7009920
   2.4461960  53.5152720  27.4895050   2.1608880  53.1508390  28.3273670
   2.3840820  52.7833180  26.8758190   7.3720840  57.8117670  33.6785790
   7.0677910  58.6909650  33.9036150   8.3267300  57.8717460  33.7143230
   5.9002630  62.0178660  24.2752640   5.1264890  61.4776280  24.1151360
   6.6297260  61.4985270  23.9370400  16.6590610  61.0144020  30.0679030
  17.3789730  61.5099310  29.6775140  16.4572430  60.3361910  29.4232900
  12.1200550  52.4081980  24.2108420  11.3065160  51.9095150  24.1353730
  11.9262500  53.2480230  23.7944770  12.0409410  61.0853080  35.9548030
  11.9746720  60.1648750  35.7005620  11.4114550  61.1828520  36.6692670
  14.8348940  56.7801630  22.5070580  15.7228560  57.0918860  22.3321920
  14.8054030  55.9073880  22.1151160   5.9440030  61.6859040  27.9131450
   6.4618700  60.8827300  27.8588340   5.4924050  61.6238180  28.7548280
  10.8309530  62.9525320  23.1858750  11.1725230  63.6967550  22.6902070
  10.0022240  63.2656440  23.5483580   3.4284570  58.6520410  34.8257150
   3.0699510  59.3174260  35.4130490   3.1339130  57.8203960  35.1969770
   6.6297690  59.1104650  37.7096700   6.3297830  59.2561830  36.8124520
   7.4008930  58.5509940  37.6170090  11.9726140  63.9073650  35.7051830
  11.9870680  62.9754610  35.4870740  11.2651240  63.9933410  36.3441600
  17.1063210  58.0913470  21.9750440  17.0226930  58.5227690  21.1246880
  17.8257400  58.5511820  22.4077260  18.1350460  64.9455730  24.7032570
  17.4926620  64.2911350  24.9776290  17.7481120  65.3510820  23.9273240
  13.7136940  62.2741160  28.5504260  14.0660760  61.6769290  27.8905630
  12.8299270  61.9485390  28.7212510   9.8000220  63.0338850  25.9574670
  10.4871350  63.5808060  26.3382260   9.0132640  63.5779580  25.9924280
   9.1027430  60.0384880  25.5700030   9.5590210  60.8490130  25.7960220
   8.7515640  59.7208020  26.4018520  11.4060040  65.5491220  32.7992330
  12.0502260  65.7550600  33.4765750  11.7689480  64.7879620  32.3463180
   5.0039210  50.3822530  26.0422550   4.8753840  50.3740430  26.9907470
   4.1801230  50.7205620  25.6913560  12.6792120  63.5523570  31.5169780
  13.3214350  62.8516730  31.6301950  13.2041470  64.3322010  31.3366670
  16.5247840  63.8372190  21.2408920  16.2985420  63.1202630  21.8333560
  16.1344040  63.5884630  20.4030670  14.4529740  64.3518470  34.7205840
  14.7885980  64.9385160  35.3983760  13.5330080  64.2211180  34.9503630
   2.3063870  67.8639050  22.0153380   2.6661510  68.4628390  21.3610650
   2.1656210  68.4098940  22.7888410  16.1064090  61.7544130  22.9023080
  15.8185790  62.2156820  23.6900960  16.9016260  61.2941900  23.1707300
   2.2905730  66.1293910  36.4895780   2.3996850  65.1888650  36.3491170
   1.6386290  66.3948660  35.8409510  10.2818320  64.4009800  37.8893900
   9.9615190  63.6819040  38.4339590   9.6076680  65.0764870  37.9629960
   8.3232490  65.2470250  22.8327050   8.3142590  65.9799940  22.2171560
   7.4030850  65.0001830  22.9254010   3.9239130  60.4685140  23.5773810
   3.3167080  61.2084040  23.5869110   4.3988480  60.5584500  22.7512010
  13.4971920  54.6335960  33.2530700  13.8652740  53.8131170  33.5810270
  12.6370120  54.6937850  33.6686350  16.8633950  53.5892900  24.0618260
  16.2347110  53.6938570  23.3476490  16.3685870  53.8089680  24.8512140
  11.3092090  65.3098490  21.4952240  11.4104070  65.1062480  20.5654220
  10.4093830  65.0556770  21.7000020   8.8317980  55.8678850  25.4776140
   8.1234130  56.3365190  25.9189750   9.1162460  55.2100860  26.1121330
  10.4573910  57.2875550  33.4768670  10.9559160  57.7621370  34.1420520
  10.5996860  56.3639070  33.6838700  12.8633410  52.5929510  26.9171930
  12.7401190  52.6115640  25.9681440  13.8117970  52.6408450  27.0370330
   9.9510200  67.8284810  26.1899910  10.2051700  67.7906200  25.2679280
   9.0022680  67.7018140  26.1828160   7.0353000  54.1763930  22.8526850
   7.8843530  54.6134080  22.7867040   6.6684270  54.4884190  23.6798910
  17.6640770  53.5043510  34.3197060  17.1614370  54.2448910  34.6590870
  18.4797430  53.8927510  34.0033850  15.9562780  58.7476690  27.7658420
  15.0152920  58.7626920  27.9406110  16.2706850  57.9612650  28.2118720
   5.9344420  60.4296290  21.3262380   6.7007690  60.3177650  21.8887810
   6.0119110  59.7334260  20.6739150   4.6291180  57.8621360  22.0095270
   4.7094770  56.9148870  22.1212670   5.5210930  58.1928240  22.1155930
  17.9588360  65.9185540  29.4412680  18.0835780  66.7416710  29.9136490
  18.8253920  65.7076270  29.0936830   5.4305890  68.0116750  29.1129810
   6.1668370  67.4632210  29.3838380   5.8146810  68.8772760  28.9735800
   4.4364170  67.1962820  38.3015390   5.2376900  67.5174870  38.7150790
   3.9215990  66.8358400  39.0235300   8.5408200  67.1847060  20.9355380
   9.3336810  67.4735890  20.4837170   8.0212550  66.7539230  20.2567860
  13.2728800  63.3042690  38.2490800  12.6666960  63.3274290  37.5086550
  12.9682910  62.5725730  38.7858050  14.7029170  67.0322980  36.8600210
  15.6550920  66.9481000  36.8100450  14.5557390  67.6964690  37.5334000
  17.5938370  66.4117190  22.3592120  17.3079880  65.9982330  21.5446300
  17.3957920  67.3404900  22.2392640   9.0585600  62.4050470  20.7997730
   8.9536240  61.7902820  21.5259110   8.8909820  61.8816360  20.0160740
   9.2099920  61.0907270  36.7786960   8.4445590  61.6592270  36.6941630
   9.3915880  60.7983480  35.8855190  12.2988330  61.4670500  21.4039720
  11.7498430  61.9139800  22.0482460  12.9207590  60.9619750  21.9277390
  16.3523270  62.8212600  37.3361980  17.0932740  63.1588360  36.8329440
  15.5895950  62.9904660  36.7831750   4.1885060  57.8265870  38.1401510
   4.2290400  57.5279740  39.0486740   5.0430560  58.2273480  37.9809030
   7.9663450  60.4261420  23.3005020   8.3879870  60.2601290  24.1436410
   8.0914290  59.6161650  22.8060160   6.1290870  56.4057970  36.1076000
   5.5987330  55.9148920  35.4799340   6.7978940  56.8342170  35.5733930
  10.4791090  59.4499030  20.5482120  10.9996750  58.7348050  20.1823270
  11.1259490  60.0884900  20.8482630  15.0268930  60.8727430  35.8717190
  15.4409950  61.0272510  36.7207610  14.0919930  60.9982650  36.0342970
  15.4991100  58.2123590  37.8756340  16.0811870  57.4575910  37.7876820
  15.6752870  58.7431030  37.0987820   6.6163170  53.3720340  36.1873290
   6.5220040  52.7541090  35.4624160   6.0360560  54.0986630  35.9603200
   9.3824610  51.9293580  33.2200680   8.9341910  51.9517840  32.3746230
   8.7489810  51.5312600  33.8170980   9.7884160  60.8247910  33.8413120
  10.2072270  61.6680640  33.6689360   8.8692790  60.9619950  33.6119900
  12.1248060  58.5564090  35.2250960  12.2444270  57.9605230  35.9645800
  12.9842060  58.5933780  34.8052260  14.4635960  59.1101280  33.8013470
  13.9371180  59.6343900  33.1978610  14.8067300  59.7428670  34.4323200
   6.8622350  56.4994650  20.2463180   6.6611410  55.6362010  20.6076520
   6.6914400  56.4128010  19.3084780   7.6391580  67.1300920  34.9570850
   7.1012670  67.8546980  34.6379550   7.8925540  66.6531260  34.1668190
   8.8916830  55.0985440  36.4826780   9.4816520  54.7901290  37.1704600
   8.0737070  54.6265190  36.6386680  13.7110260  54.7151250  36.7159800
  13.0225780  54.0532790  36.6509790  14.4316280  54.2689520  37.1608260
  14.3410660  51.3102880  22.7750060  14.6212950  50.4670780  23.1309480
  13.5676390  51.5425990  23.2888810   5.6605150  53.5995270  20.2341060
   5.9631050  53.6062700  19.3260210   6.3999740  53.2493130  20.7308720
  10.4953790  68.3652130  35.2157500  10.4212490  69.2687270  35.5229870
   9.5932630  68.0464030  35.1879570   8.8790080  52.5429890  21.2197260
   8.5312080  51.8653880  20.6399710   9.0802850  52.0819400  22.0340650
  11.0439120  67.5310640  22.8383860  11.9389910  67.8695610  22.8602620
  11.0756750  66.8090050  22.2108140   4.6835280  62.9037690  21.0670860
   5.1210150  63.4467360  21.7228440   5.1683010  62.0784640  21.0767200
   1.8981080  65.6926720  28.5191120   2.2284090  64.8247780  28.2869760
   2.3272080  65.8985240  29.3496080   6.4943000  64.0235730  26.1793090
   6.1938540  63.9000700  27.0797000   6.3880490  63.1644320  25.7708820
   2.3871290  66.5597310  31.2572750   1.9502280  66.7398110  32.0896900
   2.9548970  67.3171930  31.1154470  18.0233470  66.0614310  35.5450060
  17.4235460  66.1206870  34.8013980  18.1527370  65.1219290  35.6746910
  19.2634920  63.8032130  20.8819770  18.4327880  63.8708780  21.3527000
  19.4406750  64.6936250  20.5786630  18.7191380  60.5479610  23.3853970
  19.4810290  61.1176260  23.4913660  18.7345750  59.9806810  24.1562280
  19.7251350  61.4029710  28.2295900  20.0960180  60.6197030  27.8231870
  20.3653280  62.0918810  28.0513200  16.7085110  62.7866290  33.6426220
  15.8944950  63.2163450  33.9052010  17.1159310  63.3984700  33.0295270
  18.7710550  60.8413980  20.5426490  19.0459390  61.7492860  20.4145710
  18.5821290  60.7776510  21.4788480  15.1686160  53.8658830  21.8380120
  15.5871040  53.6789810  20.9976780  14.8622220  53.0137880  22.1483050
  18.6675890  58.7782970  25.5355920  18.2919490  58.0110900  25.1037210
  17.9379010  59.1605670  26.0230850   3.2571650  59.4570110  32.1564970
   3.6244690  59.3697510  33.0360990   2.6882470  58.6936660  32.0571830
   2.8087650  56.3679200  36.0623390   1.9143700  56.3345960  36.4017100
   3.3485200  56.5665990  36.8274640  16.4963580  53.1510920  37.9475140
  17.3733760  53.1594320  38.3309140  16.5084420  52.4141760  37.3367490
  17.9426850  57.0040460  28.8363160  18.4664330  56.5103110  28.2053330
  18.5286270  57.1390820  29.5810730   3.9761010  55.3382010  21.4681340
   4.6852710  54.9165230  20.9828620   3.2600950  55.4057240  20.8364690
   3.6235170  51.3921340  20.5083990   4.3463300  51.9330280  20.8265210
   3.8959690  51.1184760  19.6325530  17.4326820  56.2613810  24.7755570
  17.9285940  56.0284680  25.5604450  17.2342890  55.4225650  24.3593210
   3.3127360  50.6427530  30.4106610   3.9603550  50.0924910  29.9701770
   3.7329200  50.8970680  31.2322420  18.8613980  54.8974760  27.3093250
  18.7513260  54.7430800  28.2475520  19.6221570  54.3695700  27.0668660
  17.2079700  50.8368890  33.7676250  17.8451920  51.4503030  34.1335440
  17.3554590  50.8729550  32.8225480  19.7504250  52.7282680  20.5499390
  20.6753560  52.5963860  20.3417680  19.7280040  52.8075500  21.5035840
  19.8242740  53.4993340  23.1756100  19.0294240  53.4338460  23.7049010
  20.0286020  54.4343980  23.1641450  16.7661160  67.5384890  27.1694490
  17.3620230  67.2169460  26.4928910  17.0239310  67.0656710  27.9607760
   3.0659360  50.7983200  33.1531930   2.7174180  51.2547020  33.9190110
   2.7347060  49.9040330  33.2354360   4.6723730  63.9702800  37.3185120
   4.6293360  63.5995710  38.1999580   4.8034740  64.9080370  37.4586940
   8.3729760  65.5262390  32.9194840   8.1321120  65.7936950  32.0325360
   9.3132400  65.6968120  32.9745700  10.5784180  51.9895080  36.6751350
  10.5173070  52.5816910  37.4246760  11.5184560  51.8821040  36.5301610
  13.2158740  51.6465140  36.3143640  13.8299150  51.9644430  35.6524720
  13.7608300  51.1613730  36.9339500  19.6333920  67.5456770  33.7205480
  19.1392200  67.9425640  33.0032610  19.0247210  66.9205980  34.1142760
   3.7380000  50.3259400  36.4282700   4.2862990  50.1447450  35.6648810
   3.8035310  49.5353510  36.9639010   4.5111760  66.9165050  34.4382900
   3.9172080  66.7849750  35.1772940   4.5035600  66.0803190  33.9725000
  13.9566780  50.2097280  32.6412930  13.0826620  50.5432390  32.4385860
  13.8477530  49.7370460  33.4664800  14.8638760  52.4168150  34.0254650
  14.5352120  51.6019910  33.6456380  15.8121060  52.3737960  33.9020340
  17.3173370  68.1880190  30.9992220  16.8576340  68.9396000  30.6250240
  16.6885830  67.4686660  30.9407020   4.1423990  64.2823430  33.3890940
   3.4158050  63.6628720  33.3216890   4.2033140  64.6764040  32.5189020
   7.7469090  66.4968430  30.1740350   8.2634110  65.8855790  29.6488610
   8.3966470  66.9997210  30.6651360  10.4864590  67.3876920  31.0009330
  10.7742400  67.1331220  30.1242340  10.9987810  66.8354280  31.5914900
  11.7041600  51.1267120  31.5805840  10.9213390  51.6012620  31.8602600
  11.4104530  50.2221950  31.4719020  16.2562670  51.8290220  29.6254930
  16.6970760  51.7735320  28.7776530  15.9870260  52.7448230  29.6965110
  18.1201240  51.4605460  27.6363750  18.0589640  50.5166680  27.4894770
  18.8993270  51.5685550  28.1817210   3.0482010  51.4314600  24.1019560
   3.8061370  51.5443480  23.5283590   2.5859180  52.2683800  24.0562990
   9.5895820  53.5453870  27.0921870   8.7770330  53.1710760  26.7517750
  10.0937460  52.7898950  27.3943060  14.0920800  50.2096320  28.3304940
  14.6950170  50.7816530  28.8053460  13.3513790  50.7735760  28.1078840
  17.2355400  50.6117880  23.6045220  17.4306030  51.5101330  23.8712650
  16.4485270  50.3804960  24.0978170   4.0316690  66.2931050  24.0437840
   3.5064310  66.6739080  23.3399800   3.9561270  66.9181820  24.7647550
   5.4207160  51.9578650  22.6421530   5.9499920  51.1708450  22.5129480
   6.0535480  52.6369840  22.8757060   7.6145000  51.6953790  25.6966920
   6.9847740  50.9941100  25.8637050   7.0750140  52.4557920  25.4800080
  10.5536950  68.3093020  38.3677530  11.4804260  68.0737290  38.4113490
  10.5387380  69.1365020  37.8863560  18.7882010  67.8518590  25.3651780
  18.9634200  67.1656330  24.7212700  18.0903580  68.3765640  24.9728450
   7.7400560  50.9737770  38.1319410   7.4584830  51.4771370  37.3680230
   8.1220260  50.1759520  37.7661540   6.6309660  68.2413430  22.9187090
   7.3628480  67.9572710  22.3710980   6.8903330  68.0026710  23.8086470
   5.7924450  64.3578160  22.9233420   5.1633330  64.8263260  23.4719250
   5.9072280  63.5127380  23.3579610  14.3416020  50.3891350  38.7099880
  14.2281470  50.7085960  39.6051400  15.1585760  50.7903860  38.4137160
  17.1214510  67.5362880  38.1918570  17.9139830  67.0412110  37.9844530
  17.4147660  68.2153020  38.7994180  13.2474170  58.4083820   9.0734620
  13.1668220  57.4938430   8.8026330  12.8338590  58.9050890   8.3674330
  11.3792210  60.1862840  10.9543890  10.6034310  59.7063280  11.2442460
  12.0305140  59.5068490  10.7800050   5.3958040  60.4982650  11.8319650
   4.5642920  60.2431360  12.2316160   6.0039020  60.5693420  12.5677570
  15.3999640  64.5923030   9.7343020  14.9381170  63.8210270  10.0630190
  16.2125190  64.6189100  10.2395470   5.3759300  64.5322740  12.0277670
   5.6787340  63.6420480  11.8487890   6.1202890  65.0892960  11.7999920
   3.8049990  55.4584540   5.6162040   2.9166690  55.8000510   5.5141920
   4.0891180  55.2584860   4.7242870   1.7683000  58.0590190  11.5001740
   2.3399110  57.2912390  11.5005380   1.7684540  58.3578950  10.5908350
  11.6262950  66.8781040   9.3547010  11.0074390  67.3338540   8.7841450
  12.4814730  67.0332500   8.9536710  10.8201200  62.8620030  10.9614050
  10.7509480  61.9209970  10.8003180  11.5821060  62.9521440  11.5336620
   3.0107870  53.4674550  13.2870670   2.8310710  52.5700300  13.5673430
   2.6087950  54.0146420  13.9617620  11.8506370  55.6690410  11.1882980
  12.2271190  54.7962290  11.0756650  11.7525880  56.0049110  10.2973420
   5.9811380  54.0416040   6.6500420   6.0878130  54.9419770   6.9569180
   5.0703740  53.9934010   6.3595070  15.6330490  53.1640850   8.1211320
  16.4540110  52.6737420   8.1636800  15.6664570  53.7538510   8.8743160
   3.6294540  55.9635050  11.8953010   4.3104650  56.2273420  12.5140410
   3.3142590  55.1235920  12.2291020   7.8219110  57.0102410  10.9825600
   8.3297330  57.5083380  11.6230620   8.3532350  56.2337610  10.8064960
  19.9230040  55.1807600  14.6854950  19.2182210  55.5689310  14.1670060
  20.1887960  55.8757890  15.2875880   6.1055210  51.6500970  15.2489020
   6.1073650  52.1673360  14.4434920   5.2759520  51.1731150  15.2258950
  12.4926300  61.7620280   6.7478920  11.8743570  62.2269730   6.1841640
  13.0049550  62.4547760   7.1648430   7.3558060  61.2896150  13.4262520
   7.0227440  61.9165070  14.0683590   7.5324740  61.8158030  12.6464190
  15.8691970  55.1041230  10.8938860  15.1647540  55.3926120  11.4741970
  16.2304130  55.9141340  10.5338420   5.7870540  53.3610930  13.2559470
   6.1287350  54.2052980  12.9613340   4.8486350  53.5094670  13.3724810
   6.5677160  63.2576950  15.2411700   7.1851160  63.9328030  14.9596150
   5.7070280  63.6664930  15.1499200  17.4854750  64.7216360  13.1566340
  16.8018270  65.3915470  13.1483010  18.0249040  64.9197010  12.3911200
  18.9378890  54.5496020  11.2848070  17.9903800  54.5835000  11.4163500
  19.2628880  55.3634970  11.6697430   9.4698430  50.8493200   9.5804060
   9.7773410  50.2940090   8.8639560   8.5399130  50.9837660   9.3977050
  15.0213490  66.5660490  11.8711520  15.0340650  66.1622780  11.0033780
  14.4688710  67.3407780  11.7672950  16.3158910  63.2876710   6.9601690
  16.2055240  62.3451040   7.0851110  16.3127160  63.6492350   7.8464450
  14.4198930  61.4690330  13.1994130  14.8367720  61.2550440  12.3647590
  15.1438750  61.7263120  13.7702750  11.8579190  58.9142030   6.3164180
  10.9308470  58.8479410   6.5452650  12.0104010  59.8522160   6.2019420
  11.8448270  55.1859030   3.3131340  10.9051940  55.3472990   3.3983800
  12.1631530  55.9044710   2.7667330  18.3661030  59.8677550  13.2910370
  17.5379660  59.9370640  12.8160500  18.9611510  60.4531860  12.8226200
  15.8876480  60.4762330   6.8199430  15.2688900  60.1381880   6.1725730
  15.8700930  59.8322090   7.5278620  15.3303040  56.6546870  14.2365240
  14.9174220  57.4800580  14.4905230  14.5978990  56.0691910  14.0441600
   7.4635830  59.4406770   9.0983910   7.0592830  58.7284020   8.6029810
   7.5498950  59.0960010   9.9871950   7.9317530  63.1274330  11.2623120
   7.6345820  62.5219800  10.5830900   8.8817350  63.1651640  11.1512480
   6.1764450  56.2149980  12.8782950   6.7279040  56.3245320  12.1036200
   6.6907960  56.5887580  13.5938180  16.0203140  66.7006200  14.9246220
  15.5433700  67.5078390  14.7318830  15.3364930  66.0484530  15.0772430
   7.0235960  62.8656020  17.9130920   6.1264490  63.0895990  18.1604320
   7.0488830  62.9890960  16.9642320  14.0641180  59.7149140   3.8272180
  14.5034460  58.8771570   3.6810000  14.7769600  60.3478540   3.9136320
   5.8507180  59.7369340  16.4888290   5.7114950  60.6092140  16.8575690
   4.9688540  59.3942150  16.3436230  12.1736560  64.6545210   7.7953420
  12.6132470  65.3969540   7.3808810  12.1123450  64.8971780   8.7192380
   7.6487530  65.6791040  18.6973440   7.6202960  66.0833990  17.8301870
   7.4852500  64.7501400  18.5345040  17.6458320  50.9691950   2.1413220
  17.3330980  51.0618780   3.0412290  18.4070790  51.5472980   2.0910650
   4.1640460  58.3351750   6.5990560   4.0438060  59.0613840   5.9871830
   3.8541350  57.5654660   6.1218470  19.6002350  66.4618140  19.9937610
  20.0762070  66.9401030  20.6726690  20.2209510  66.3935630  19.2683110
   1.8025830  61.5066890  12.4059200   1.8806250  61.6415660  11.4614920
   2.4167510  60.7982780  12.5987320   3.0473460  63.2067080   8.8165380
   2.6401540  63.3481670   7.9618980   3.9386470  62.9227240   8.6136590
  19.0035600  63.6530990  17.1537620  19.1298660  63.4142870  16.2354800
  19.0456980  62.8215530  17.6259700  12.8652340  67.3558990  15.7232430
  13.3797010  67.2667000  16.5254860  12.0221420  67.7018690  16.0160340
  14.8406740  67.6414330   5.1516430  14.6807880  67.3517270   6.0498260
  14.6753450  66.8654460   4.6161660   7.3195120  67.4212860   6.9288050
   7.1437600  66.5048400   6.7155850   6.4650860  67.7800150   7.1685850
  14.5432870  65.1501890   3.7114430  13.8498030  65.1479180   3.0516710
  15.2855730  64.7261210   3.2808600  14.1082800  66.7764600   7.7862920
  14.5639750  65.9953980   8.1001540  14.4475320  67.4871420   8.3304100
  18.8559610  55.7063450  18.1187360  18.2403880  56.2143120  17.5902820
  18.5356030  54.8061780  18.0613300   1.8585350  62.5481060  14.9453660
   2.0216390  62.0786420  14.1273030   2.3237800  62.0404620  15.6102500
   6.6304120  51.6786820   9.9814230   6.1872270  52.4596360   9.6498750
   7.1889110  52.0016710  10.6885170  10.9173930  54.5455340  15.5849550
  10.4553300  54.7538360  16.3969490  10.5152040  53.7314690  15.2820220
  15.9178440  55.7664290  16.7146210  15.0672030  55.4670040  17.0355280
  15.7580230  56.0106300  15.8030030  13.0128150  57.2666040  18.8145000
  13.3381560  56.4329790  18.4747230  13.8008480  57.7894560  18.9623330
   9.7462940  51.2997520   4.8620060   9.1217120  51.2957390   5.5873370
   9.6593060  50.4328480   4.4656030   8.6680020  52.2234150  11.8403830
   8.9652350  53.1296980  11.7595850   9.2165580  51.7352930  11.2263400
   6.4218340  56.8020390   7.7095480   6.1959260  56.5857560   8.6142100
   5.6410870  57.2348850   7.3641450  13.6516100  56.8083760   6.3086130
  13.0524990  57.5319560   6.1249750  14.1995710  56.7460540   5.5262580
   8.8617550  57.7005970  18.3755750   8.7661150  56.7600700  18.2256150
   9.7049530  57.9221040  17.9803820  12.2580970  55.4447300   8.3389410
  12.6510540  55.7619500   7.5258100  12.6197820  54.5659180   8.4533930
   3.9928090  54.1119640  16.5289530   3.5991480  54.9594850  16.7362310
   3.3046490  53.4746010  16.7198170  10.5673140  54.1954610  19.5986270
   9.8771460  54.0026810  20.2332360  11.3105440  54.4789250  20.1310570
  12.8436110  58.0353050  12.4340190  12.1117230  58.5439860  12.7830290
  12.4460450  57.2183030  12.1328970   9.2813500  54.7107250  10.8392680
   9.2849560  54.2697200   9.9897220  10.1764620  55.0324580  10.9464500
   5.1315880  54.5933740   9.7986890   4.7915930  55.0708970  10.5553940
   4.3693200  54.1398860   9.4387990   9.3433650  55.7119330   3.8299440
   9.4646470  55.6705810   4.7785260   8.9582160  56.5743480   3.6746170
  13.3062020  53.4886730  11.8463130  13.3234760  53.9395380  12.6904980
  13.0577600  52.5892370  12.0596570   8.3555150  58.0220470   3.2282740
   7.7872050  57.5738720   2.6018650   9.0644150  58.3813250   2.6947890
  16.7332770  50.9018910  17.6849510  17.0578540  50.1708570  18.2107490
  16.7689280  50.5832550  16.7830500   3.4324330  61.9232490  17.1049470
   3.0479120  61.2826160  17.7032430   3.7436520  62.6268610  17.6744200
   9.5821470  58.7709030  12.5858090   9.9491600  58.2967600  13.3319430
   9.3926530  59.6450600  12.9266430   2.4461960  53.5152720   8.7151560
   2.1608880  53.1508390   9.5530180   2.3840820  52.7833180   8.1014700
   7.3720840  57.8117670  14.9042300   7.0677910  58.6909650  15.1292660
   8.3267300  57.8717460  14.9399740   5.9002630  62.0178660   5.5009150
   5.1264890  61.4776280   5.3407870   6.6297260  61.4985270   5.1626910
  16.6590610  61.0144020  11.2935540  17.3789730  61.5099310  10.9031650
  16.4572430  60.3361910  10.6489410  12.1200550  52.4081980   5.4364930
  11.3065160  51.9095150   5.3610240  11.9262500  53.2480230   5.0201280
  12.0409410  61.0853080  17.1804540  11.9746720  60.1648750  16.9262130
  11.4114550  61.1828520  17.8949180  14.8348940  56.7801630   3.7327090
  15.7228560  57.0918860   3.5578430  14.8054030  55.9073880   3.3407670
   5.9440030  61.6859040   9.1387960   6.4618700  60.8827300   9.0844850
   5.4924050  61.6238180   9.9804790  10.8309530  62.9525320   4.4115260
  11.1725230  63.6967550   3.9158580  10.0022240  63.2656440   4.7740090
   3.4284570  58.6520410  16.0513660   3.0699510  59.3174260  16.6387000
   3.1339130  57.8203960  16.4226280   6.6297690  59.1104650  18.9353210
   6.3297830  59.2561830  18.0381030   7.4008930  58.5509940  18.8426600
  11.9726140  63.9073650  16.9308340  11.9870680  62.9754610  16.7127250
  11.2651240  63.9933410  17.5698110  17.1063210  58.0913470   3.2006950
  17.0226930  58.5227690   2.3503390  17.8257400  58.5511820   3.6333770
  18.1837350  60.5480990  16.2776920  17.4585540  61.1409770  16.0806310
  18.7112810  60.5404530  15.4790290  18.1350460  64.9455730   5.9289080
  17.4926620  64.2911350   6.2032800  17.7481120  65.3510820   5.1529750
  13.7136940  62.2741160   9.7760770  14.0660760  61.6769290   9.1162140
  12.8299270  61.9485390   9.9469020   9.8000220  63.0338850   7.1831180
  10.4871350  63.5808060   7.5638770   9.0132640  63.5779580   7.2180790
   9.1027430  60.0384880   6.7956540   9.5590210  60.8490130   7.0216730
   8.7515640  59.7208020   7.6275030  11.4060040  65.5491220  14.0248840
  12.0502260  65.7550600  14.7022260  11.7689480  64.7879620  13.5719690
   5.0039210  50.3822530   7.2679060   4.8753840  50.3740430   8.2163980
   4.1801230  50.7205620   6.9170070  12.6792120  63.5523570  12.7426290
  13.3214350  62.8516730  12.8558460  13.2041470  64.3322010  12.5623180
  16.5247840  63.8372190   2.4665430  16.2985420  63.1202630   3.0590070
  16.1344040  63.5884630   1.6287180  14.4529740  64.3518470  15.9462350
  14.7885980  64.9385160  16.6240270  13.5330080  64.2211180  16.1760140
   2.3063870  67.8639050   3.2409890   2.6661510  68.4628390   2.5867160
   2.1656210  68.4098940   4.0144920  16.1064090  61.7544130   4.1279590
  15.8185790  62.2156820   4.9157470  16.9016260  61.2941900   4.3963810
   2.2905730  66.1293910  17.7152290   2.3996850  65.1888650  17.5747680
   1.6386290  66.3948660  17.0666020  10.2818320  64.4009800  19.1150410
   9.9615190  63.6819040  19.6596100   9.6076680  65.0764870  19.1886470
   8.3232490  65.2470250   4.0583560   8.3142590  65.9799940   3.4428070
   7.4030850  65.0001830   4.1510520   3.9239130  60.4685140   4.8030320
   3.3167080  61.2084040   4.8125620   4.3988480  60.5584500   3.9768520
  13.4971920  54.6335960  14.4787210  13.8652740  53.8131170  14.8066780
  12.6370120  54.6937850  14.8942860  16.8633950  53.5892900   5.2874770
  16.2347110  53.6938570   4.5733000  16.3685870  53.8089680   6.0768650
  11.3092090  65.3098490   2.7208750  11.4104070  65.1062480   1.7910730
  10.4093830  65.0556770   2.9256530   8.8317980  55.8678850   6.7032650
   8.1234130  56.3365190   7.1446260   9.1162460  55.2100860   7.3377840
  10.4573910  57.2875550  14.7025180  10.9559160  57.7621370  15.3677030
  10.5996860  56.3639070  14.9095210  12.8633410  52.5929510   8.1428440
  12.7401190  52.6115640   7.1937950  13.8117970  52.6408450   8.2626840
   9.9510200  67.8284810   7.4156420  10.2051700  67.7906200   6.4935790
   9.0022680  67.7018140   7.4084670   7.0353000  54.1763930   4.0783360
   7.8843530  54.6134080   4.0123550   6.6684270  54.4884190   4.9055420
  17.6640770  53.5043510  15.5453570  17.1614370  54.2448910  15.8847380
  18.4797430  53.8927510  15.2290360  15.9562780  58.7476690   8.9914930
  15.0152920  58.7626920   9.1662620  16.2706850  57.9612650   9.4375230
   5.9344420  60.4296290   2.5518890   6.7007690  60.3177650   3.1144320
   6.0119110  59.7334260   1.8995660   4.6291180  57.8621360   3.2351780
   4.7094770  56.9148870   3.3469180   5.5210930  58.1928240   3.3412440
  17.9588360  65.9185540  10.6669190  18.0835780  66.7416710  11.1393000
  18.8253920  65.7076270  10.3193340   5.4305890  68.0116750  10.3386320
   6.1668370  67.4632210  10.6094890   5.8146810  68.8772760  10.1992310
   4.4364170  67.1962820  19.5271900   5.2376900  67.5174870  19.9407300
   3.9215990  66.8358400  20.2491810   8.5408200  67.1847060   2.1611890
   9.3336810  67.4735890   1.7093680   8.0212550  66.7539230   1.4824370
  13.2728800  63.3042690  19.4747310  12.6666960  63.3274290  18.7343060
  12.9682910  62.5725730  20.0114560  14.7029170  67.0322980  18.0856720
  15.6550920  66.9481000  18.0356960  14.5557390  67.6964690  18.7590510
  17.5938370  66.4117190   3.5848630  17.3079880  65.9982330   2.7702810
  17.3957920  67.3404900   3.4649150   9.2099920  61.0907270  18.0043470
   8.4445590  61.6592270  17.9198140   9.3915880  60.7983480  17.1111700
  12.2988330  61.4670500   2.6296230  11.7498430  61.9139800   3.2738970
  12.9207590  60.9619750   3.1533900  16.3523270  62.8212600  18.5618490
  17.0932740  63.1588360  18.0585950  15.5895950  62.9904660  18.0088260
   4.1885060  57.8265870  19.3658020   4.2290400  57.5279740  20.2743250
   5.0430560  58.2273480  19.2065540   7.9663450  60.4261420   4.5261530
   8.3879870  60.2601290   5.3692920   8.0914290  59.6161650   4.0316670
   6.1290870  56.4057970  17.3332510   5.5987330  55.9148920  16.7055850
   6.7978940  56.8342170  16.7990440  15.0268930  60.8727430  17.0973700
  15.4409950  61.0272510  17.9464120  14.0919930  60.9982650  17.2599480
  15.4991100  58.2123590  19.1012850  16.0811870  57.4575910  19.0133330
  15.6752870  58.7431030  18.3244330   6.6163170  53.3720340  17.4129800
   6.5220040  52.7541090  16.6880670   6.0360560  54.0986630  17.1859710
   9.3824610  51.9293580  14.4457190   8.9341910  51.9517840  13.6002740
   8.7489810  51.5312600  15.0427490   9.7884160  60.8247910  15.0669630
  10.2072270  61.6680640  14.8945870   8.8692790  60.9619950  14.8376410
  12.1248060  58.5564090  16.4507470  12.2444270  57.9605230  17.1902310
  12.9842060  58.5933780  16.0308770  14.4635960  59.1101280  15.0269980
  13.9371180  59.6343900  14.4235120  14.8067300  59.7428670  15.6579710
   7.6391580  67.1300920  16.1827360   7.1012670  67.8546980  15.8636060
   7.8925540  66.6531260  15.3924700   8.8916830  55.0985440  17.7083290
   9.4816520  54.7901290  18.3961110   8.0737070  54.6265190  17.8643190
  13.7110260  54.7151250  17.9416310  13.0225780  54.0532790  17.8766300
  14.4316280  54.2689520  18.3864770  14.3410660  51.3102880   4.0006570
  14.6212950  50.4670780   4.3565990  13.5676390  51.5425990   4.5145320
  10.4953790  68.3652130  16.4414010  10.4212490  69.2687270  16.7486380
   9.5932630  68.0464030  16.4136080   8.8790080  52.5429890   2.4453770
   8.5312080  51.8653880   1.8656220   9.0802850  52.0819400   3.2597160
  11.0439120  67.5310640   4.0640370  11.9389910  67.8695610   4.0859130
  11.0756750  66.8090050   3.4364650   4.6835280  62.9037690   2.2927370
   5.1210150  63.4467360   2.9484950   5.1683010  62.0784640   2.3023710
   1.8981080  65.6926720   9.7447630   2.2284090  64.8247780   9.5126270
   2.3272080  65.8985240  10.5752590   6.4943000  64.0235730   7.4049600
   6.1938540  63.9000700   8.3053510   6.3880490  63.1644320   6.9965330
   2.3871290  66.5597310  12.4829260   1.9502280  66.7398110  13.3153410
   2.9548970  67.3171930  12.3410980  18.0233470  66.0614310  16.7706570
  17.4235460  66.1206870  16.0270490  18.1527370  65.1219290  16.9003420
  19.2634920  63.8032130   2.1076280  18.4327880  63.8708780   2.5783510
  19.4406750  64.6936250   1.8043140  18.7191380  60.5479610   4.6110480
  19.4810290  61.1176260   4.7170170  18.7345750  59.9806810   5.3818790
  19.7251350  61.4029710   9.4552410  20.0960180  60.6197030   9.0488380
  20.3653280  62.0918810   9.2769710  16.7085110  62.7866290  14.8682730
  15.8944950  63.2163450  15.1308520  17.1159310  63.3984700  14.2551780
  18.7710550  60.8413980   1.7683000  19.0459390  61.7492860   1.6402220
  18.5821290  60.7776510   2.7044990  15.1686160  53.8658830   3.0636630
  15.5871040  53.6789810   2.2233290  14.8622220  53.0137880   3.3739560
  18.6675890  58.7782970   6.7612430  18.2919490  58.0110900   6.3293720
  17.9379010  59.1605670   7.2487360   3.2571650  59.4570110  13.3821480
   3.6244690  59.3697510  14.2617500   2.6882470  58.6936660  13.2828340
  18.0575510  57.9254490  16.3951950  17.8261600  57.6967240  15.4949900
  18.3180060  58.8454040  16.3496840   2.8087650  56.3679200  17.2879900
   1.9143700  56.3345960  17.6273610   3.3485200  56.5665990  18.0531150
  16.4963580  53.1510920  19.1731650  17.3733760  53.1594320  19.5565650
  16.5084420  52.4141760  18.5624000  17.9426850  57.0040460  10.0619670
  18.4664330  56.5103110   9.4309840  18.5286270  57.1390820  10.8067240
  18.1216570  57.0880330  13.5839220  17.1719280  57.0543870  13.6984210
  18.3029580  57.9980440  13.3488990   3.9761010  55.3382010   2.6937850
   4.6852710  54.9165230   2.2085130   3.2600950  55.4057240   2.0621200
  17.4326820  56.2613810   6.0012080  17.9285940  56.0284680   6.7860960
  17.2342890  55.4225650   5.5849720   3.3127360  50.6427530  11.6363120
   3.9603550  50.0924910  11.1958280   3.7329200  50.8970680  12.4578930
  18.8613980  54.8974760   8.5349760  18.7513260  54.7430800   9.4732030
  19.6221570  54.3695700   8.2925170  17.2079700  50.8368890  14.9932760
  17.8451920  51.4503030  15.3591950  17.3554590  50.8729550  14.0481990
  19.7504250  52.7282680   1.7755900  20.6753560  52.5963860   1.5674190
  19.7280040  52.8075500   2.7292350  19.8242740  53.4993340   4.4012610
  19.0294240  53.4338460   4.9305520  20.0286020  54.4343980   4.3897960
  16.7661160  67.5384890   8.3951000  17.3620230  67.2169460   7.7185420
  17.0239310  67.0656710   9.1864270   3.0659360  50.7983200  14.3788440
   2.7174180  51.2547020  15.1446620   2.7347060  49.9040330  14.4610870
   4.6723730  63.9702800  18.5441630   4.6293360  63.5995710  19.4256090
   4.8034740  64.9080370  18.6843450   8.3729760  65.5262390  14.1451350
   8.1321120  65.7936950  13.2581870   9.3132400  65.6968120  14.2002210
  10.5784180  51.9895080  17.9007860  10.5173070  52.5816910  18.6503270
  11.5184560  51.8821040  17.7558120  13.2158740  51.6465140  17.5400150
  13.8299150  51.9644430  16.8781230  13.7608300  51.1613730  18.1596010
  19.6333920  67.5456770  14.9461990  19.1392200  67.9425640  14.2289120
  19.0247210  66.9205980  15.3399270   3.7380000  50.3259400  17.6539210
   4.2862990  50.1447450  16.8905320   3.8035310  49.5353510  18.1895520
   4.5111760  66.9165050  15.6639410   3.9172080  66.7849750  16.4029450
   4.5035600  66.0803190  15.1981510  13.9566780  50.2097280  13.8669440
  13.0826620  50.5432390  13.6642370  13.8477530  49.7370460  14.6921310
  14.8638760  52.4168150  15.2511160  14.5352120  51.6019910  14.8712890
  15.8121060  52.3737960  15.1276850  17.3173370  68.1880190  12.2248730
  16.8576340  68.9396000  11.8506750  16.6885830  67.4686660  12.1663530
   4.1423990  64.2823430  14.6147450   3.4158050  63.6628720  14.5473400
   4.2033140  64.6764040  13.7445530   7.7469090  66.4968430  11.3996860
   8.2634110  65.8855790  10.8745120   8.3966470  66.9997210  11.8907870
  10.4864590  67.3876920  12.2265840  10.7742400  67.1331220  11.3498850
  10.9987810  66.8354280  12.8171410  11.7041600  51.1267120  12.8062350
  10.9213390  51.6012620  13.0859110  11.4104530  50.2221950  12.6975530
  16.2562670  51.8290220  10.8511440  16.6970760  51.7735320  10.0033040
  15.9870260  52.7448230  10.9221620  18.1201240  51.4605460   8.8620260
  18.0589640  50.5166680   8.7151280  18.8993270  51.5685550   9.4073720
   3.0482010  51.4314600   5.3276070   3.8061370  51.5443480   4.7540100
   2.5859180  52.2683800   5.2819500   9.5895820  53.5453870   8.3178380
   8.7770330  53.1710760   7.9774260  10.0937460  52.7898950   8.6199570
  14.0920800  50.2096320   9.5561450  14.6950170  50.7816530  10.0309970
  13.3513790  50.7735760   9.3335350  17.2355400  50.6117880   4.8301730
  17.4306030  51.5101330   5.0969160  16.4485270  50.3804960   5.3234680
   4.0316690  66.2931050   5.2694350   3.5064310  66.6739080   4.5656310
   3.9561270  66.9181820   5.9904060   5.4207160  51.9578650   3.8678040
   5.9499920  51.1708450   3.7385990   6.0535480  52.6369840   4.1013570
   7.6145000  51.6953790   6.9223430   6.9847740  50.9941100   7.0893560
   7.0750140  52.4557920   6.7056590  10.5536950  68.3093020  19.5934040
  11.4804260  68.0737290  19.6370000  10.5387380  69.1365020  19.1120070
  18.7882010  67.8518590   6.5908290  18.9634200  67.1656330   5.9469210
  18.0903580  68.3765640   6.1984960   7.7400560  50.9737770  19.3575920
   7.4584830  51.4771370  18.5936740   8.1220260  50.1759520  18.9918050
   6.6309660  68.2413430   4.1443600   7.3628480  67.9572710   3.5967490
   6.8903330  68.0026710   5.0342980   5.7924450  64.3578160   4.1489930
   5.1633330  64.8263260   4.6975760   5.9072280  63.5127380   4.5836120
  14.3416020  50.3891350  19.9356390  14.2281470  50.7085960  20.8307910
  15.1585760  50.7903860  19.6393670  17.1214510  67.5362880  19.4175080
  17.9139830  67.0412110  19.2101040  17.4147660  68.2153020  20.0250690
  13.2474170  39.6340330  46.6221600  13.1668220  38.7194940  46.3513310
  12.8338590  40.1307400  45.9161310  11.3792210  41.4119350  48.5030870
  10.6034310  40.9319790  48.7929440  12.0305140  40.7325000  48.3287030
   5.3958040  41.7239160  49.3806630   4.5642920  41.4687870  49.7803140
   6.0039020  41.7949930  50.1164550  15.3999640  45.8179540  47.2830000
  14.9381170  45.0466780  47.6117170  16.2125190  45.8445610  47.7882450
   5.3759300  45.7579250  49.5764650   5.6787340  44.8676990  49.3974870
   6.1202890  46.3149470  49.3486900   3.8049990  36.6841050  43.1649020
   2.9166690  37.0257020  43.0628900   4.0891180  36.4841370  42.2729850
   1.7683000  39.2846700  49.0488720   2.3399110  38.5168900  49.0492360
   1.7684540  39.5835460  48.1395330  11.6262950  48.1037550  46.9033990
  11.0074390  48.5595050  46.3328430  12.4814730  48.2589010  46.5023690
  10.8201200  44.0876540  48.5101030  10.7509480  43.1466480  48.3490160
  11.5821060  44.1777950  49.0823600   3.0107870  34.6931060  50.8357650
   2.8310710  33.7956810  51.1160410   2.6087950  35.2402930  51.5104600
  11.8506370  36.8946920  48.7369960  12.2271190  36.0218800  48.6243630
  11.7525880  37.2305620  47.8460400   5.9811380  35.2672550  44.1987400
   6.0878130  36.1676280  44.5056160   5.0703740  35.2190520  43.9082050
  15.6330490  34.3897360  45.6698300  16.4540110  33.8993930  45.7123780
  15.6664570  34.9795020  46.4230140   3.6294540  37.1891560  49.4439990
   4.3104650  37.4529930  50.0627390   3.3142590  36.3492430  49.7778000
   7.8219110  38.2358920  48.5312580   8.3297330  38.7339890  49.1717600
   8.3532350  37.4594120  48.3551940  19.9230040  36.4064110  52.2341930
  19.2182210  36.7945820  51.7157040  20.1887960  37.1014400  52.8362860
   6.1055210  32.8757480  52.7976000   6.1073650  33.3929870  51.9921900
   5.2759520  32.3987660  52.7745930  12.4926300  42.9876790  44.2965900
  11.8743570  43.4526240  43.7328620  13.0049550  43.6804270  44.7135410
   7.3558060  42.5152660  50.9749500   7.0227440  43.1421580  51.6170570
   7.5324740  43.0414540  50.1951170  15.8691970  36.3297740  48.4425840
  15.1647540  36.6182630  49.0228950  16.2304130  37.1397850  48.0825400
   5.7870540  34.5867440  50.8046450   6.1287350  35.4309490  50.5100320
   4.8486350  34.7351180  50.9211790   6.5677160  44.4833460  52.7898680
   7.1851160  45.1584540  52.5083130   5.7070280  44.8921440  52.6986180
  17.4854750  45.9472870  50.7053320  16.8018270  46.6171980  50.6969990
  18.0249040  46.1453520  49.9398180  18.9378890  35.7752530  48.8335050
  17.9903800  35.8091510  48.9650480  19.2628880  36.5891480  49.2184410
   9.4698430  32.0749710  47.1291040   9.7773410  31.5196600  46.4126540
   8.5399130  32.2094170  46.9464030  15.0213490  47.7917000  49.4198500
  15.0340650  47.3879290  48.5520760  14.4688710  48.5664290  49.3159930
  16.3158910  44.5133220  44.5088670  16.2055240  43.5707550  44.6338090
  16.3127160  44.8748860  45.3951430  14.4198930  42.6946840  50.7481110
  14.8367720  42.4806950  49.9134570  15.1438750  42.9519630  51.3189730
  11.8579190  40.1398540  43.8651160  10.9308470  40.0735920  44.0939630
  12.0104010  41.0778670  43.7506400  11.8448270  36.4115540  40.8618320
  10.9051940  36.5729500  40.9470780  12.1631530  37.1301220  40.3154310
  18.3661030  41.0934060  50.8397350  17.5379660  41.1627150  50.3647480
  18.9611510  41.6788370  50.3713180  15.8876480  41.7018840  44.3686410
  15.2688900  41.3638390  43.7212710  15.8700930  41.0578600  45.0765600
  15.3303040  37.8803380  51.7852220  14.9174220  38.7057090  52.0392210
  14.5978990  37.2948420  51.5928580   7.4635830  40.6663280  46.6470890
   7.0592830  39.9540530  46.1516790   7.5498950  40.3216520  47.5358930
   7.9317530  44.3530840  48.8110100   7.6345820  43.7476310  48.1317880
   8.8817350  44.3908150  48.6999460   6.1764450  37.4406490  50.4269930
   6.7279040  37.5501830  49.6523180   6.6907960  37.8144090  51.1425160
  16.0203140  47.9262710  52.4733200  15.5433700  48.7334900  52.2805810
  15.3364930  47.2741040  52.6259410   7.0235960  44.0912530  55.4617900
   6.1264490  44.3152500  55.7091300   7.0488830  44.2147470  54.5129300
  14.0641180  40.9405650  41.3759160  14.5034460  40.1028080  41.2296980
  14.7769600  41.5735050  41.4623300   5.8507180  40.9625850  54.0375270
   5.7114950  41.8348650  54.4062670   4.9688540  40.6198660  53.8923210
  12.1736560  45.8801720  45.3440400  12.6132470  46.6226050  44.9295790
  12.1123450  46.1228290  46.2679360   7.6487530  46.9047550  56.2460420
   7.6202960  47.3090500  55.3788850   7.4852500  45.9757910  56.0832020
  17.6458320  32.1948460  39.6900200  17.3330980  32.2875290  40.5899270
  18.4070790  32.7729490  39.6397630   4.1640460  39.5608260  44.1477540
   4.0438060  40.2870350  43.5358810   3.8541350  38.7911170  43.6705450
   1.8025830  42.7323400  49.9546180   1.8806250  42.8672170  49.0101900
   2.4167510  42.0239290  50.1474300   3.0473460  44.4323590  46.3652360
   2.6401540  44.5738180  45.5105960   3.9386470  44.1483750  46.1623570
  19.0035600  44.8787500  54.7024600  19.1298660  44.6399380  53.7841780
  19.0456980  44.0472040  55.1746680  12.8652340  48.5815500  53.2719410
  13.3797010  48.4923510  54.0741840  12.0221420  48.9275200  53.5647320
  14.8406740  48.8670840  42.7003410  14.6807880  48.5773780  43.5985240
  14.6753450  48.0910970  42.1648640   7.3195120  48.6469370  44.4775030
   7.1437600  47.7304910  44.2642830   6.4650860  49.0056660  44.7172830
  14.5432870  46.3758400  41.2601410  13.8498030  46.3735690  40.6003690
  15.2855730  45.9517720  40.8295580  14.1082800  48.0021110  45.3349900
  14.5639750  47.2210490  45.6488520  14.4475320  48.7127930  45.8791080
  18.8559610  36.9319960  55.6674340  18.2403880  37.4399630  55.1389800
  18.5356030  36.0318290  55.6100280   1.8585350  43.7737570  52.4940640
   2.0216390  43.3042930  51.6760010   2.3237800  43.2661130  53.1589480
   6.6304120  32.9043330  47.5301210   6.1872270  33.6852870  47.1985730
   7.1889110  33.2273220  48.2372150  10.9173930  35.7711850  53.1336530
  10.4553300  35.9794870  53.9456470  10.5152040  34.9571200  52.8307200
  15.9178440  36.9920800  54.2633190  15.0672030  36.6926550  54.5842260
  15.7580230  37.2362810  53.3517010  13.0128150  38.4922550  56.3631980
  13.3381560  37.6586300  56.0234210  13.8008480  39.0151070  56.5110310
   9.7462940  32.5254030  42.4107040   9.1217120  32.5213900  43.1360350
   9.6593060  31.6584990  42.0143010   8.6680020  33.4490660  49.3890810
   8.9652350  34.3553490  49.3082830   9.2165580  32.9609440  48.7750380
   6.4218340  38.0276900  45.2582460   6.1959260  37.8114070  46.1629080
   5.6410870  38.4605360  44.9128430  13.6516100  38.0340270  43.8573110
  13.0524990  38.7576070  43.6736730  14.1995710  37.9717050  43.0749560
   8.8617550  38.9262480  55.9242730   8.7661150  37.9857210  55.7743130
   9.7049530  39.1477550  55.5290800  12.2580970  36.6703810  45.8876390
  12.6510540  36.9876010  45.0745080  12.6197820  35.7915690  46.0020910
   3.9928090  35.3376150  54.0776510   3.5991480  36.1851360  54.2849290
   3.3046490  34.7002520  54.2685150  12.8436110  39.2609560  49.9827170
  12.1117230  39.7696370  50.3317270  12.4460450  38.4439540  49.6815950
   9.2813500  35.9363760  48.3879660   9.2849560  35.4953710  47.5384200
  10.1764620  36.2581090  48.4951480   5.1315880  35.8190250  47.3473870
   4.7915930  36.2965480  48.1040920   4.3693200  35.3655370  46.9874970
   9.3433650  36.9375840  41.3786420   9.4646470  36.8962320  42.3272240
   8.9582160  37.7999990  41.2233150  13.3062020  34.7143240  49.3950110
  13.3234760  35.1651890  50.2391960  13.0577600  33.8148880  49.6083550
   8.3555150  39.2476980  40.7769720   7.7872050  38.7995230  40.1505630
   9.0644150  39.6069760  40.2434870  16.7332770  32.1275420  55.2336490
  17.0578540  31.3965080  55.7594470  16.7689280  31.8089060  54.3317480
   3.4324330  43.1489000  54.6536450   3.0479120  42.5082670  55.2519410
   3.7436520  43.8525120  55.2231180   9.5821470  39.9965540  50.1345070
   9.9491600  39.5224110  50.8806410   9.3926530  40.8707110  50.4753410
   2.4461960  34.7409230  46.2638540   2.1608880  34.3764900  47.1017160
   2.3840820  34.0089690  45.6501680   7.3720840  39.0374180  52.4529280
   7.0677910  39.9166160  52.6779640   8.3267300  39.0973970  52.4886720
   5.9002630  43.2435170  43.0496130   5.1264890  42.7032790  42.8894850
   6.6297260  42.7241780  42.7113890  16.6590610  42.2400530  48.8422520
  17.3789730  42.7355820  48.4518630  16.4572430  41.5618420  48.1976390
  12.1200550  33.6338490  42.9851910  11.3065160  33.1351660  42.9097220
  11.9262500  34.4736740  42.5688260  12.0409410  42.3109590  54.7291520
  11.9746720  41.3905260  54.4749110  11.4114550  42.4085030  55.4436160
  14.8348940  38.0058140  41.2814070  15.7228560  38.3175370  41.1065410
  14.8054030  37.1330390  40.8894650   5.9440030  42.9115550  46.6874940
   6.4618700  42.1083810  46.6331830   5.4924050  42.8494690  47.5291770
  10.8309530  44.1781830  41.9602240  11.1725230  44.9224060  41.4645560
  10.0022240  44.4912950  42.3227070   3.4284570  39.8776920  53.6000640
   3.0699510  40.5430770  54.1873980   3.1339130  39.0460470  53.9713260
   6.6297690  40.3361160  56.4840190   6.3297830  40.4818340  55.5868010
   7.4008930  39.7766450  56.3913580  11.9726140  45.1330160  54.4795320
  11.9870680  44.2011120  54.2614230  11.2651240  45.2189920  55.1185090
  17.1063210  39.3169980  40.7493930  17.0226930  39.7484200  39.8990370
  17.8257400  39.7768330  41.1820750  18.1837350  41.7737500  53.8263900
  17.4585540  42.3666280  53.6293290  18.7112810  41.7661040  53.0277270
  18.1350460  46.1712240  43.4776060  17.4926620  45.5167860  43.7519780
  17.7481120  46.5767330  42.7016730  13.7136940  43.4997670  47.3247750
  14.0660760  42.9025800  46.6649120  12.8299270  43.1741900  47.4956000
   9.8000220  44.2595360  44.7318160  10.4871350  44.8064570  45.1125750
   9.0132640  44.8036090  44.7667770   9.1027430  41.2641390  44.3443520
   9.5590210  42.0746640  44.5703710   8.7515640  40.9464530  45.1762010
  11.4060040  46.7747730  51.5735820  12.0502260  46.9807110  52.2509240
  11.7689480  46.0136130  51.1206670   5.0039210  31.6079040  44.8166040
   4.8753840  31.5996940  45.7650960   4.1801230  31.9462130  44.4657050
  12.6792120  44.7780080  50.2913270  13.3214350  44.0773240  50.4045440
  13.2041470  45.5578520  50.1110160  16.5247840  45.0628700  40.0152410
  16.2985420  44.3459140  40.6077050  16.1344040  44.8141140  39.1774160
  14.4529740  45.5774980  53.4949330  14.7885980  46.1641670  54.1727250
  13.5330080  45.4467690  53.7247120   2.3063870  49.0895560  40.7896870
   2.6661510  49.6884900  40.1354140   2.1656210  49.6355450  41.5631900
  16.1064090  42.9800640  41.6766570  15.8185790  43.4413330  42.4644450
  16.9016260  42.5198410  41.9450790   2.2905730  47.3550420  55.2639270
   2.3996850  46.4145160  55.1234660   1.6386290  47.6205170  54.6153000
  10.2818320  45.6266310  56.6637390   9.9615190  44.9075550  57.2083080
   9.6076680  46.3021380  56.7373450   8.3232490  46.4726760  41.6070540
   8.3142590  47.2056450  40.9915050   7.4030850  46.2258340  41.6997500
   3.9239130  41.6941650  42.3517300   3.3167080  42.4340550  42.3612600
   4.3988480  41.7841010  41.5255500  13.4971920  35.8592470  52.0274190
  13.8652740  35.0387680  52.3553760  12.6370120  35.9194360  52.4429840
  16.8633950  34.8149410  42.8361750  16.2347110  34.9195080  42.1219980
  16.3685870  35.0346190  43.6255630  11.3092090  46.5355000  40.2695730
  11.4104070  46.3318990  39.3397710  10.4093830  46.2813280  40.4743510
   8.8317980  37.0935360  44.2519630   8.1234130  37.5621700  44.6933240
   9.1162460  36.4357370  44.8864820  10.4573910  38.5132060  52.2512160
  10.9559160  38.9877880  52.9164010  10.5996860  37.5895580  52.4582190
  12.8633410  33.8186020  45.6915420  12.7401190  33.8372150  44.7424930
  13.8117970  33.8664960  45.8113820   9.9510200  49.0541320  44.9643400
  10.2051700  49.0162710  44.0422770   9.0022680  48.9274650  44.9571650
   7.0353000  35.4020440  41.6270340   7.8843530  35.8390590  41.5610530
   6.6684270  35.7140700  42.4542400  17.6640770  34.7300020  53.0940550
  17.1614370  35.4705420  53.4334360  18.4797430  35.1184020  52.7777340
  15.9562780  39.9733200  46.5401910  15.0152920  39.9883430  46.7149600
  16.2706850  39.1869160  46.9862210   5.9344420  41.6552800  40.1005870
   6.7007690  41.5434160  40.6631300   6.0119110  40.9590770  39.4482640
   4.6291180  39.0877870  40.7838760   4.7094770  38.1405380  40.8956160
   5.5210930  39.4184750  40.8899420  17.9588360  47.1442050  48.2156170
  18.0835780  47.9673220  48.6879980  18.8253920  46.9332780  47.8680320
   5.4305890  49.2373260  47.8873300   6.1668370  48.6888720  48.1581870
   5.8146810  50.1029270  47.7479290   8.5408200  48.4103570  39.7098870
   9.3336810  48.6992400  39.2580660   8.0212550  47.9795740  39.0311350
  14.7029170  48.2579490  55.6343700  15.6550920  48.1737510  55.5843940
  14.5557390  48.9221200  56.3077490  17.5938370  47.6373700  41.1335610
  17.3079880  47.2238840  40.3189790  17.3957920  48.5661410  41.0136130
   9.0585600  43.6306980  39.5741220   8.9536240  43.0159330  40.3002600
   8.8909820  43.1072870  38.7904230   9.2099920  42.3163780  55.5530450
   8.4445590  42.8848780  55.4685120   9.3915880  42.0239990  54.6598680
  12.2988330  42.6927010  40.1783210  11.7498430  43.1396310  40.8225950
  12.9207590  42.1876260  40.7020880  16.3523270  44.0469110  56.1105470
  17.0932740  44.3844870  55.6072930  15.5895950  44.2161170  55.5575240
   7.9663450  41.6517930  42.0748510   8.3879870  41.4857800  42.9179900
   8.0914290  40.8418160  41.5803650   6.1290870  37.6314480  54.8819490
   5.5987330  37.1405430  54.2542830   6.7978940  38.0598680  54.3477420
  10.4791090  40.6755540  39.3225610  10.9996750  39.9604560  38.9566760
  11.1259490  41.3141410  39.6226120  15.0268930  42.0983940  54.6460680
  15.4409950  42.2529020  55.4951100  14.0919930  42.2239160  54.8086460
  15.4991100  39.4380100  56.6499830  16.0811870  38.6832420  56.5620310
  15.6752870  39.9687540  55.8731310   6.6163170  34.5976850  54.9616780
   6.5220040  33.9797600  54.2367650   6.0360560  35.3243140  54.7346690
   9.3824610  33.1550090  51.9944170   8.9341910  33.1774350  51.1489720
   8.7489810  32.7569110  52.5914470   9.7884160  42.0504420  52.6156610
  10.2072270  42.8937150  52.4432850   8.8692790  42.1876460  52.3863390
  12.1248060  39.7820600  53.9994450  12.2444270  39.1861740  54.7389290
  12.9842060  39.8190290  53.5795750  14.4635960  40.3357790  52.5756960
  13.9371180  40.8600410  51.9722100  14.8067300  40.9685180  53.2066690
   6.8622350  37.7251160  39.0206670   6.6611410  36.8618520  39.3820010
   6.6914400  37.6384520  38.0828270   7.6391580  48.3557430  53.7314340
   7.1012670  49.0803490  53.4123040   7.8925540  47.8787770  52.9411680
   8.8916830  36.3241950  55.2570270   9.4816520  36.0157800  55.9448090
   8.0737070  35.8521700  55.4130170  13.7110260  35.9407760  55.4903290
  13.0225780  35.2789300  55.4253280  14.4316280  35.4946030  55.9351750
  14.3410660  32.5359390  41.5493550  14.6212950  31.6927290  41.9052970
  13.5676390  32.7682500  42.0632300   5.6605150  34.8251780  39.0084550
   5.9631050  34.8319210  38.1003700   6.3999740  34.4749640  39.5052210
  10.4953790  49.5908640  53.9900990  10.4212490  50.4943780  54.2973360
   9.5932630  49.2720540  53.9623060   8.8790080  33.7686400  39.9940750
   8.5312080  33.0910390  39.4143200   9.0802850  33.3075910  40.8084140
  11.0439120  48.7567150  41.6127350  11.9389910  49.0952120  41.6346110
  11.0756750  48.0346560  40.9851630   4.6835280  44.1294200  39.8414350
   5.1210150  44.6723870  40.4971930   5.1683010  43.3041150  39.8510690
   1.8981080  46.9183230  47.2934610   2.2284090  46.0504290  47.0613250
   2.3272080  47.1241750  48.1239570   6.4943000  45.2492240  44.9536580
   6.1938540  45.1257210  45.8540490   6.3880490  44.3900830  44.5452310
   2.3871290  47.7853820  50.0316240   1.9502280  47.9654620  50.8640390
   2.9548970  48.5428440  49.8897960  18.0233470  47.2870820  54.3193550
  17.4235460  47.3463380  53.5757470  18.1527370  46.3475800  54.4490400
  19.2634920  45.0288640  39.6563260  18.4327880  45.0965290  40.1270490
  19.4406750  45.9192760  39.3530120  18.7191380  41.7736120  42.1597460
  19.4810290  42.3432770  42.2657150  18.7345750  41.2063320  42.9305770
  19.7251350  42.6286220  47.0039390  20.0960180  41.8453540  46.5975360
  20.3653280  43.3175320  46.8256690  16.7085110  44.0122800  52.4169710
  15.8944950  44.4419960  52.6795500  17.1159310  44.6241210  51.8038760
  18.7710550  42.0670490  39.3169980  19.0459390  42.9749370  39.1889200
  18.5821290  42.0033020  40.2531970  15.1686160  35.0915340  40.6123610
  15.5871040  34.9046320  39.7720270  14.8622220  34.2394390  40.9226540
  18.6675890  40.0039480  44.3099410  18.2919490  39.2367410  43.8780700
  17.9379010  40.3862180  44.7974340   3.2571650  40.6826620  50.9308460
   3.6244690  40.5954020  51.8104480   2.6882470  39.9193170  50.8315320
  18.0575510  39.1511000  53.9438930  17.8261600  38.9223750  53.0436880
  18.3180060  40.0710550  53.8983820   2.8087650  37.5935710  54.8366880
   1.9143700  37.5602470  55.1760590   3.3485200  37.7922500  55.6018130
  16.4963580  34.3767430  56.7218630  17.3733760  34.3850830  57.1052630
  16.5084420  33.6398270  56.1110980  17.9426850  38.2296970  47.6106650
  18.4664330  37.7359620  46.9796820  18.5286270  38.3647330  48.3554220
  18.1216570  38.3136840  51.1326200  17.1719280  38.2800380  51.2471190
  18.3029580  39.2236950  50.8975970   3.9761010  36.5638520  40.2424830
   4.6852710  36.1421740  39.7572110   3.2600950  36.6313750  39.6108180
   3.6235170  32.6177850  39.2827480   4.3463300  33.1586790  39.6008700
   3.8959690  32.3441270  38.4069020  17.4326820  37.4870320  43.5499060
  17.9285940  37.2541190  44.3347940  17.2342890  36.6482160  43.1336700
   3.3127360  31.8684040  49.1850100   3.9603550  31.3181420  48.7445260
   3.7329200  32.1227190  50.0065910  18.8613980  36.1231270  46.0836740
  18.7513260  35.9687310  47.0219010  19.6221570  35.5952210  45.8412150
  17.2079700  32.0625400  52.5419740  17.8451920  32.6759540  52.9078930
  17.3554590  32.0986060  51.5968970  19.7504250  33.9539190  39.3242880
  20.6753560  33.8220370  39.1161170  19.7280040  34.0332010  40.2779330
  19.8242740  34.7249850  41.9499590  19.0294240  34.6594970  42.4792500
  20.0286020  35.6600490  41.9384940  16.7661160  48.7641400  45.9437980
  17.3620230  48.4425970  45.2672400  17.0239310  48.2913220  46.7351250
   3.0659360  32.0239710  51.9275420   2.7174180  32.4803530  52.6933600
   2.7347060  31.1296840  52.0097850   4.6723730  45.1959310  56.0928610
   4.6293360  44.8252220  56.9743070   4.8034740  46.1336880  56.2330430
   8.3729760  46.7518900  51.6938330   8.1321120  47.0193460  50.8068850
   9.3132400  46.9224630  51.7489190  10.5784180  33.2151590  55.4494840
  10.5173070  33.8073420  56.1990250  11.5184560  33.1077550  55.3045100
  13.2158740  32.8721650  55.0887130  13.8299150  33.1900940  54.4268210
  13.7608300  32.3870240  55.7082990  19.6333920  48.7713280  52.4948970
  19.1392200  49.1682150  51.7776100  19.0247210  48.1462490  52.8886250
   3.7380000  31.5515910  55.2026190   4.2862990  31.3703960  54.4392300
   3.8035310  30.7610020  55.7382500   4.5111760  48.1421560  53.2126390
   3.9172080  48.0106260  53.9516430   4.5035600  47.3059700  52.7468490
  13.9566780  31.4353790  51.4156420  13.0826620  31.7688900  51.2129350
  13.8477530  30.9626970  52.2408290  14.8638760  33.6424660  52.7998140
  14.5352120  32.8276420  52.4199870  15.8121060  33.5994470  52.6763830
  17.3173370  49.4136700  49.7735710  16.8576340  50.1652510  49.3993730
  16.6885830  48.6943170  49.7150510   4.1423990  45.5079940  52.1634430
   3.4158050  44.8885230  52.0960380   4.2033140  45.9020550  51.2932510
   7.7469090  47.7224940  48.9483840   8.2634110  47.1112300  48.4232100
   8.3966470  48.2253720  49.4394850  10.4864590  48.6133430  49.7752820
  10.7742400  48.3587730  48.8985830  10.9987810  48.0610790  50.3658390
  11.7041600  32.3523630  50.3549330  10.9213390  32.8269130  50.6346090
  11.4104530  31.4478460  50.2462510  16.2562670  33.0546730  48.3998420
  16.6970760  32.9991830  47.5520020  15.9870260  33.9704740  48.4708600
  18.1201240  32.6861970  46.4107240  18.0589640  31.7423190  46.2638260
  18.8993270  32.7942060  46.9560700   3.0482010  32.6571110  42.8763050
   3.8061370  32.7699990  42.3027080   2.5859180  33.4940310  42.8306480
   9.5895820  34.7710380  45.8665360   8.7770330  34.3967270  45.5261240
  10.0937460  34.0155460  46.1686550  14.0920800  31.4352830  47.1048430
  14.6950170  32.0073040  47.5796950  13.3513790  31.9992270  46.8822330
  17.2355400  31.8374390  42.3788710  17.4306030  32.7357840  42.6456140
  16.4485270  31.6061470  42.8721660   4.0316690  47.5187560  42.8181330
   3.5064310  47.8995590  42.1143290   3.9561270  48.1438330  43.5391040
   5.4207160  33.1835160  41.4165020   5.9499920  32.3964960  41.2872970
   6.0535480  33.8626350  41.6500550   7.6145000  32.9210300  44.4710410
   6.9847740  32.2197610  44.6380540   7.0750140  33.6814430  44.2543570
  10.5536950  49.5349530  57.1421020  11.4804260  49.2993800  57.1856980
  10.5387380  50.3621530  56.6607050  18.7882010  49.0775100  44.1395270
  18.9634200  48.3912840  43.4956190  18.0903580  49.6022150  43.7471940
   7.7400560  32.1994280  56.9062900   7.4584830  32.7027880  56.1423720
   8.1220260  31.4016030  56.5405030   6.6309660  49.4669940  41.6930580
   7.3628480  49.1829220  41.1454470   6.8903330  49.2283220  42.5829960
   5.7924450  45.5834670  41.6976910   5.1633330  46.0519770  42.2462740
   5.9072280  44.7383890  42.1323100  13.2474170  39.6340330  27.8478110
  13.1668220  38.7194940  27.5769820  12.8338590  40.1307400  27.1417820
  11.3792210  41.4119350  29.7287380  10.6034310  40.9319790  30.0185950
  12.0305140  40.7325000  29.5543540   5.3958040  41.7239160  30.6063140
   4.5642920  41.4687870  31.0059650   6.0039020  41.7949930  31.3421060
   5.3759300  45.7579250  30.8021160   5.6787340  44.8676990  30.6231380
   6.1202890  46.3149470  30.5743410   3.8049990  36.6841050  24.3905530
   2.9166690  37.0257020  24.2885410   4.0891180  36.4841370  23.4986360
   1.7683000  39.2846700  30.2745230   2.3399110  38.5168900  30.2748870
   1.7684540  39.5835460  29.3651840  11.6262950  48.1037550  28.1290500
  11.0074390  48.5595050  27.5584940  12.4814730  48.2589010  27.7280200
  10.8201200  44.0876540  29.7357540  10.7509480  43.1466480  29.5746670
  11.5821060  44.1777950  30.3080110   3.0107870  34.6931060  32.0614160
   2.8310710  33.7956810  32.3416920   2.6087950  35.2402930  32.7361110
  11.8506370  36.8946920  29.9626470  12.2271190  36.0218800  29.8500140
  11.7525880  37.2305620  29.0716910   5.9811380  35.2672550  25.4243910
   6.0878130  36.1676280  25.7312670   5.0703740  35.2190520  25.1338560
  15.6330490  34.3897360  26.8954810  16.4540110  33.8993930  26.9380290
  15.6664570  34.9795020  27.6486650   3.6294540  37.1891560  30.6696500
   4.3104650  37.4529930  31.2883900   3.3142590  36.3492430  31.0034510
   7.8219110  38.2358920  29.7569090   8.3297330  38.7339890  30.3974110
   8.3532350  37.4594120  29.5808450  19.9230040  36.4064110  33.4598440
  19.2182210  36.7945820  32.9413550  20.1887960  37.1014400  34.0619370
   6.1055210  32.8757480  34.0232510   6.1073650  33.3929870  33.2178410
   5.2759520  32.3987660  34.0002440  12.4926300  42.9876790  25.5222410
  11.8743570  43.4526240  24.9585130  13.0049550  43.6804270  25.9391920
   7.3558060  42.5152660  32.2006010   7.0227440  43.1421580  32.8427080
   7.5324740  43.0414540  31.4207680  15.8691970  36.3297740  29.6682350
  15.1647540  36.6182630  30.2485460  16.2304130  37.1397850  29.3081910
   5.7870540  34.5867440  32.0302960   6.1287350  35.4309490  31.7356830
   4.8486350  34.7351180  32.1468300   6.5677160  44.4833460  34.0155190
   7.1851160  45.1584540  33.7339640   5.7070280  44.8921440  33.9242690
  17.4854750  45.9472870  31.9309830  16.8018270  46.6171980  31.9226500
  18.0249040  46.1453520  31.1654690  18.9378890  35.7752530  30.0591560
  17.9903800  35.8091510  30.1906990  19.2628880  36.5891480  30.4440920
   9.4698430  32.0749710  28.3547550   9.7773410  31.5196600  27.6383050
   8.5399130  32.2094170  28.1720540  15.0213490  47.7917000  30.6455010
  15.0340650  47.3879290  29.7777270  14.4688710  48.5664290  30.5416440
  14.4198930  42.6946840  31.9737620  14.8367720  42.4806950  31.1391080
  15.1438750  42.9519630  32.5446240  11.8579190  40.1398540  25.0907670
  10.9308470  40.0735920  25.3196140  12.0104010  41.0778670  24.9762910
  11.8448270  36.4115540  22.0874830  10.9051940  36.5729500  22.1727290
  12.1631530  37.1301220  21.5410820  18.3661030  41.0934060  32.0653860
  17.5379660  41.1627150  31.5903990  18.9611510  41.6788370  31.5969690
  15.8876480  41.7018840  25.5942920  15.2688900  41.3638390  24.9469220
  15.8700930  41.0578600  26.3022110  15.3303040  37.8803380  33.0108730
  14.9174220  38.7057090  33.2648720  14.5978990  37.2948420  32.8185090
   7.4635830  40.6663280  27.8727400   7.0592830  39.9540530  27.3773300
   7.5498950  40.3216520  28.7615440   7.9317530  44.3530840  30.0366610
   7.6345820  43.7476310  29.3574390   8.8817350  44.3908150  29.9255970
   6.1764450  37.4406490  31.6526440   6.7279040  37.5501830  30.8779690
   6.6907960  37.8144090  32.3681670  16.0203140  47.9262710  33.6989710
  15.5433700  48.7334900  33.5062320  15.3364930  47.2741040  33.8515920
   7.0235960  44.0912530  36.6874410   6.1264490  44.3152500  36.9347810
   7.0488830  44.2147470  35.7385810  14.0641180  40.9405650  22.6015670
  14.5034460  40.1028080  22.4553490  14.7769600  41.5735050  22.6879810
   5.8507180  40.9625850  35.2631780   5.7114950  41.8348650  35.6319180
   4.9688540  40.6198660  35.1179720  12.1736560  45.8801720  26.5696910
  12.6132470  46.6226050  26.1552300  12.1123450  46.1228290  27.4935870
   7.6487530  46.9047550  37.4716930   7.6202960  47.3090500  36.6045360
   7.4852500  45.9757910  37.3088530  17.6458320  32.1948460  20.9156710
  17.3330980  32.2875290  21.8155780  18.4070790  32.7729490  20.8654140
   4.1640460  39.5608260  25.3734050   4.0438060  40.2870350  24.7615320
   3.8541350  38.7911170  24.8961960  19.6002350  47.6874650  38.7681100
  20.0762070  48.1657540  39.4470180  20.2209510  47.6192140  38.0426600
   1.8025830  42.7323400  31.1802690   1.8806250  42.8672170  30.2358410
   2.4167510  42.0239290  31.3730810   3.0473460  44.4323590  27.5908870
   2.6401540  44.5738180  26.7362470   3.9386470  44.1483750  27.3880080
  19.0035600  44.8787500  35.9281110  19.1298660  44.6399380  35.0098290
  19.0456980  44.0472040  36.4003190  12.8652340  48.5815500  34.4975920
  13.3797010  48.4923510  35.2998350  12.0221420  48.9275200  34.7903830
  14.8406740  48.8670840  23.9259920  14.6807880  48.5773780  24.8241750
  14.6753450  48.0910970  23.3905150   7.3195120  48.6469370  25.7031540
   7.1437600  47.7304910  25.4899340   6.4650860  49.0056660  25.9429340
  14.5432870  46.3758400  22.4857920  13.8498030  46.3735690  21.8260200
  15.2855730  45.9517720  22.0552090  14.1082800  48.0021110  26.5606410
  14.5639750  47.2210490  26.8745030  14.4475320  48.7127930  27.1047590
  18.8559610  36.9319960  36.8930850  18.2403880  37.4399630  36.3646310
  18.5356030  36.0318290  36.8356790   1.8585350  43.7737570  33.7197150
   2.0216390  43.3042930  32.9016520   2.3237800  43.2661130  34.3845990
   6.6304120  32.9043330  28.7557720   6.1872270  33.6852870  28.4242240
   7.1889110  33.2273220  29.4628660  10.9173930  35.7711850  34.3593040
  10.4553300  35.9794870  35.1712980  10.5152040  34.9571200  34.0563710
  15.9178440  36.9920800  35.4889700  15.0672030  36.6926550  35.8098770
  15.7580230  37.2362810  34.5773520  13.0128150  38.4922550  37.5888490
  13.3381560  37.6586300  37.2490720  13.8008480  39.0151070  37.7366820
   9.7462940  32.5254030  23.6363550   9.1217120  32.5213900  24.3616860
   9.6593060  31.6584990  23.2399520   8.6680020  33.4490660  30.6147320
   8.9652350  34.3553490  30.5339340   9.2165580  32.9609440  30.0006890
   6.4218340  38.0276900  26.4838970   6.1959260  37.8114070  27.3885590
   5.6410870  38.4605360  26.1384940  13.6516100  38.0340270  25.0829620
  13.0524990  38.7576070  24.8993240  14.1995710  37.9717050  24.3006070
   8.8617550  38.9262480  37.1499240   8.7661150  37.9857210  36.9999640
   9.7049530  39.1477550  36.7547310  12.2580970  36.6703810  27.1132900
  12.6510540  36.9876010  26.3001590  12.6197820  35.7915690  27.2277420
   3.9928090  35.3376150  35.3033020   3.5991480  36.1851360  35.5105800
   3.3046490  34.7002520  35.4941660  10.5673140  35.4211120  38.3729760
   9.8771460  35.2283320  39.0075850  11.3105440  35.7045760  38.9054060
  12.8436110  39.2609560  31.2083680  12.1117230  39.7696370  31.5573780
  12.4460450  38.4439540  30.9072460   9.2813500  35.9363760  29.6136170
   9.2849560  35.4953710  28.7640710  10.1764620  36.2581090  29.7207990
   5.1315880  35.8190250  28.5730380   4.7915930  36.2965480  29.3297430
   4.3693200  35.3655370  28.2131480   9.3433650  36.9375840  22.6042930
   9.4646470  36.8962320  23.5528750   8.9582160  37.7999990  22.4489660
  13.3062020  34.7143240  30.6206620  13.3234760  35.1651890  31.4648470
  13.0577600  33.8148880  30.8340060   8.3555150  39.2476980  22.0026230
   7.7872050  38.7995230  21.3762140   9.0644150  39.6069760  21.4691380
  16.7332770  32.1275420  36.4593000  17.0578540  31.3965080  36.9850980
  16.7689280  31.8089060  35.5573990   3.4324330  43.1489000  35.8792960
   3.0479120  42.5082670  36.4775920   3.7436520  43.8525120  36.4487690
   9.5821470  39.9965540  31.3601580   9.9491600  39.5224110  32.1062920
   9.3926530  40.8707110  31.7009920   2.4461960  34.7409230  27.4895050
   2.1608880  34.3764900  28.3273670   2.3840820  34.0089690  26.8758190
   7.3720840  39.0374180  33.6785790   7.0677910  39.9166160  33.9036150
   8.3267300  39.0973970  33.7143230   5.9002630  43.2435170  24.2752640
   5.1264890  42.7032790  24.1151360   6.6297260  42.7241780  23.9370400
  12.1200550  33.6338490  24.2108420  11.3065160  33.1351660  24.1353730
  11.9262500  34.4736740  23.7944770  12.0409410  42.3109590  35.9548030
  11.9746720  41.3905260  35.7005620  11.4114550  42.4085030  36.6692670
  14.8348940  38.0058140  22.5070580  15.7228560  38.3175370  22.3321920
  14.8054030  37.1330390  22.1151160   5.9440030  42.9115550  27.9131450
   6.4618700  42.1083810  27.8588340   5.4924050  42.8494690  28.7548280
  10.8309530  44.1781830  23.1858750  11.1725230  44.9224060  22.6902070
  10.0022240  44.4912950  23.5483580   3.4284570  39.8776920  34.8257150
   3.0699510  40.5430770  35.4130490   3.1339130  39.0460470  35.1969770
   6.6297690  40.3361160  37.7096700   6.3297830  40.4818340  36.8124520
   7.4008930  39.7766450  37.6170090  11.9726140  45.1330160  35.7051830
  11.9870680  44.2011120  35.4870740  11.2651240  45.2189920  36.3441600
  17.1063210  39.3169980  21.9750440  17.0226930  39.7484200  21.1246880
  17.8257400  39.7768330  22.4077260  18.1837350  41.7737500  35.0520410
  17.4585540  42.3666280  34.8549800  18.7112810  41.7661040  34.2533780
  13.7136940  43.4997670  28.5504260  14.0660760  42.9025800  27.8905630
  12.8299270  43.1741900  28.7212510   9.8000220  44.2595360  25.9574670
  10.4871350  44.8064570  26.3382260   9.0132640  44.8036090  25.9924280
   9.1027430  41.2641390  25.5700030   9.5590210  42.0746640  25.7960220
   8.7515640  40.9464530  26.4018520  11.4060040  46.7747730  32.7992330
  12.0502260  46.9807110  33.4765750  11.7689480  46.0136130  32.3463180
   5.0039210  31.6079040  26.0422550   4.8753840  31.5996940  26.9907470
   4.1801230  31.9462130  25.6913560  12.6792120  44.7780080  31.5169780
  13.3214350  44.0773240  31.6301950  13.2041470  45.5578520  31.3366670
  16.5247840  45.0628700  21.2408920  16.2985420  44.3459140  21.8333560
  16.1344040  44.8141140  20.4030670  14.4529740  45.5774980  34.7205840
  14.7885980  46.1641670  35.3983760  13.5330080  45.4467690  34.9503630
   2.3063870  49.0895560  22.0153380   2.6661510  49.6884900  21.3610650
   2.1656210  49.6355450  22.7888410  16.1064090  42.9800640  22.9023080
  15.8185790  43.4413330  23.6900960  16.9016260  42.5198410  23.1707300
   2.2905730  47.3550420  36.4895780   2.3996850  46.4145160  36.3491170
   1.6386290  47.6205170  35.8409510  10.2818320  45.6266310  37.8893900
   9.9615190  44.9075550  38.4339590   9.6076680  46.3021380  37.9629960
   8.3232490  46.4726760  22.8327050   8.3142590  47.2056450  22.2171560
   7.4030850  46.2258340  22.9254010   3.9239130  41.6941650  23.5773810
   3.3167080  42.4340550  23.5869110   4.3988480  41.7841010  22.7512010
  13.4971920  35.8592470  33.2530700  13.8652740  35.0387680  33.5810270
  12.6370120  35.9194360  33.6686350  16.8633950  34.8149410  24.0618260
  16.2347110  34.9195080  23.3476490  16.3685870  35.0346190  24.8512140
  11.3092090  46.5355000  21.4952240  11.4104070  46.3318990  20.5654220
  10.4093830  46.2813280  21.7000020   8.8317980  37.0935360  25.4776140
   8.1234130  37.5621700  25.9189750   9.1162460  36.4357370  26.1121330
  10.4573910  38.5132060  33.4768670  10.9559160  38.9877880  34.1420520
  10.5996860  37.5895580  33.6838700  12.8633410  33.8186020  26.9171930
  12.7401190  33.8372150  25.9681440  13.8117970  33.8664960  27.0370330
   9.9510200  49.0541320  26.1899910  10.2051700  49.0162710  25.2679280
   9.0022680  48.9274650  26.1828160   7.0353000  35.4020440  22.8526850
   7.8843530  35.8390590  22.7867040   6.6684270  35.7140700  23.6798910
  17.6640770  34.7300020  34.3197060  17.1614370  35.4705420  34.6590870
  18.4797430  35.1184020  34.0033850  15.9562780  39.9733200  27.7658420
  15.0152920  39.9883430  27.9406110  16.2706850  39.1869160  28.2118720
   5.9344420  41.6552800  21.3262380   6.7007690  41.5434160  21.8887810
   6.0119110  40.9590770  20.6739150   4.6291180  39.0877870  22.0095270
   4.7094770  38.1405380  22.1212670   5.5210930  39.4184750  22.1155930
   5.4305890  49.2373260  29.1129810   6.1668370  48.6888720  29.3838380
   5.8146810  50.1029270  28.9735800   4.4364170  48.4219330  38.3015390
   5.2376900  48.7431380  38.7150790   3.9215990  48.0614910  39.0235300
   8.5408200  48.4103570  20.9355380   9.3336810  48.6992400  20.4837170
   8.0212550  47.9795740  20.2567860  13.2728800  44.5299200  38.2490800
  12.6666960  44.5530800  37.5086550  12.9682910  43.7982240  38.7858050
  14.7029170  48.2579490  36.8600210  15.6550920  48.1737510  36.8100450
  14.5557390  48.9221200  37.5334000  17.5938370  47.6373700  22.3592120
  17.3079880  47.2238840  21.5446300  17.3957920  48.5661410  22.2392640
   9.0585600  43.6306980  20.7997730   8.9536240  43.0159330  21.5259110
   8.8909820  43.1072870  20.0160740   9.2099920  42.3163780  36.7786960
   8.4445590  42.8848780  36.6941630   9.3915880  42.0239990  35.8855190
  12.2988330  42.6927010  21.4039720  11.7498430  43.1396310  22.0482460
  12.9207590  42.1876260  21.9277390  16.3523270  44.0469110  37.3361980
  17.0932740  44.3844870  36.8329440  15.5895950  44.2161170  36.7831750
   4.1885060  39.0522380  38.1401510   4.2290400  38.7536250  39.0486740
   5.0430560  39.4529990  37.9809030   7.9663450  41.6517930  23.3005020
   8.3879870  41.4857800  24.1436410   8.0914290  40.8418160  22.8060160
   6.1290870  37.6314480  36.1076000   5.5987330  37.1405430  35.4799340
   6.7978940  38.0598680  35.5733930  10.4791090  40.6755540  20.5482120
  10.9996750  39.9604560  20.1823270  11.1259490  41.3141410  20.8482630
  15.0268930  42.0983940  35.8717190  15.4409950  42.2529020  36.7207610
  14.0919930  42.2239160  36.0342970  15.4991100  39.4380100  37.8756340
  16.0811870  38.6832420  37.7876820  15.6752870  39.9687540  37.0987820
   6.6163170  34.5976850  36.1873290   6.5220040  33.9797600  35.4624160
   6.0360560  35.3243140  35.9603200   9.3824610  33.1550090  33.2200680
   8.9341910  33.1774350  32.3746230   8.7489810  32.7569110  33.8170980
   9.7884160  42.0504420  33.8413120  10.2072270  42.8937150  33.6689360
   8.8692790  42.1876460  33.6119900  12.1248060  39.7820600  35.2250960
  12.2444270  39.1861740  35.9645800  12.9842060  39.8190290  34.8052260
  14.4635960  40.3357790  33.8013470  13.9371180  40.8600410  33.1978610
  14.8067300  40.9685180  34.4323200   6.8622350  37.7251160  20.2463180
   6.6611410  36.8618520  20.6076520   6.6914400  37.6384520  19.3084780
   7.6391580  48.3557430  34.9570850   7.1012670  49.0803490  34.6379550
   7.8925540  47.8787770  34.1668190   8.8916830  36.3241950  36.4826780
   9.4816520  36.0157800  37.1704600   8.0737070  35.8521700  36.6386680
  13.7110260  35.9407760  36.7159800  13.0225780  35.2789300  36.6509790
  14.4316280  35.4946030  37.1608260  14.3410660  32.5359390  22.7750060
  14.6212950  31.6927290  23.1309480  13.5676390  32.7682500  23.2888810
   5.6605150  34.8251780  20.2341060   5.9631050  34.8319210  19.3260210
   6.3999740  34.4749640  20.7308720  10.4953790  49.5908640  35.2157500
  10.4212490  50.4943780  35.5229870   9.5932630  49.2720540  35.1879570
   8.8790080  33.7686400  21.2197260   8.5312080  33.0910390  20.6399710
   9.0802850  33.3075910  22.0340650  11.0439120  48.7567150  22.8383860
  11.9389910  49.0952120  22.8602620  11.0756750  48.0346560  22.2108140
   4.6835280  44.1294200  21.0670860   5.1210150  44.6723870  21.7228440
   5.1683010  43.3041150  21.0767200   1.8981080  46.9183230  28.5191120
   2.2284090  46.0504290  28.2869760   2.3272080  47.1241750  29.3496080
   6.4943000  45.2492240  26.1793090   6.1938540  45.1257210  27.0797000
   6.3880490  44.3900830  25.7708820   2.3871290  47.7853820  31.2572750
   1.9502280  47.9654620  32.0896900   2.9548970  48.5428440  31.1154470
  18.0233470  47.2870820  35.5450060  17.4235460  47.3463380  34.8013980
  18.1527370  46.3475800  35.6746910  19.2634920  45.0288640  20.8819770
  18.4327880  45.0965290  21.3527000  19.4406750  45.9192760  20.5786630
  18.7191380  41.7736120  23.3853970  19.4810290  42.3432770  23.4913660
  18.7345750  41.2063320  24.1562280  16.7085110  44.0122800  33.6426220
  15.8944950  44.4419960  33.9052010  17.1159310  44.6241210  33.0295270
  18.7710550  42.0670490  20.5426490  19.0459390  42.9749370  20.4145710
  18.5821290  42.0033020  21.4788480  15.1686160  35.0915340  21.8380120
  15.5871040  34.9046320  20.9976780  14.8622220  34.2394390  22.1483050
  18.6675890  40.0039480  25.5355920  18.2919490  39.2367410  25.1037210
  17.9379010  40.3862180  26.0230850   3.2571650  40.6826620  32.1564970
   3.6244690  40.5954020  33.0360990   2.6882470  39.9193170  32.0571830
  18.0575510  39.1511000  35.1695440  17.8261600  38.9223750  34.2693390
  18.3180060  40.0710550  35.1240330   2.8087650  37.5935710  36.0623390
   1.9143700  37.5602470  36.4017100   3.3485200  37.7922500  36.8274640
  16.4963580  34.3767430  37.9475140  17.3733760  34.3850830  38.3309140
  16.5084420  33.6398270  37.3367490  17.9426850  38.2296970  28.8363160
  18.4664330  37.7359620  28.2053330  18.5286270  38.3647330  29.5810730
  18.1216570  38.3136840  32.3582710  17.1719280  38.2800380  32.4727700
  18.3029580  39.2236950  32.1232480   3.9761010  36.5638520  21.4681340
   4.6852710  36.1421740  20.9828620   3.2600950  36.6313750  20.8364690
   3.6235170  32.6177850  20.5083990   4.3463300  33.1586790  20.8265210
   3.8959690  32.3441270  19.6325530  17.4326820  37.4870320  24.7755570
  17.9285940  37.2541190  25.5604450  17.2342890  36.6482160  24.3593210
   3.3127360  31.8684040  30.4106610   3.9603550  31.3181420  29.9701770
   3.7329200  32.1227190  31.2322420  18.8613980  36.1231270  27.3093250
  18.7513260  35.9687310  28.2475520  19.6221570  35.5952210  27.0668660
  17.2079700  32.0625400  33.7676250  17.8451920  32.6759540  34.1335440
  17.3554590  32.0986060  32.8225480  19.7504250  33.9539190  20.5499390
  20.6753560  33.8220370  20.3417680  19.7280040  34.0332010  21.5035840
  16.7661160  48.7641400  27.1694490  17.3620230  48.4425970  26.4928910
  17.0239310  48.2913220  27.9607760   3.0659360  32.0239710  33.1531930
   2.7174180  32.4803530  33.9190110   2.7347060  31.1296840  33.2354360
   4.6723730  45.1959310  37.3185120   4.6293360  44.8252220  38.1999580
   4.8034740  46.1336880  37.4586940   8.3729760  46.7518900  32.9194840
   8.1321120  47.0193460  32.0325360   9.3132400  46.9224630  32.9745700
  10.5784180  33.2151590  36.6751350  10.5173070  33.8073420  37.4246760
  11.5184560  33.1077550  36.5301610  13.2158740  32.8721650  36.3143640
  13.8299150  33.1900940  35.6524720  13.7608300  32.3870240  36.9339500
   3.7380000  31.5515910  36.4282700   4.2862990  31.3703960  35.6648810
   3.8035310  30.7610020  36.9639010   4.5111760  48.1421560  34.4382900
   3.9172080  48.0106260  35.1772940   4.5035600  47.3059700  33.9725000
  13.9566780  31.4353790  32.6412930  13.0826620  31.7688900  32.4385860
  13.8477530  30.9626970  33.4664800  14.8638760  33.6424660  34.0254650
  14.5352120  32.8276420  33.6456380  15.8121060  33.5994470  33.9020340
  17.3173370  49.4136700  30.9992220  16.8576340  50.1652510  30.6250240
  16.6885830  48.6943170  30.9407020   4.1423990  45.5079940  33.3890940
   3.4158050  44.8885230  33.3216890   4.2033140  45.9020550  32.5189020
   7.7469090  47.7224940  30.1740350   8.2634110  47.1112300  29.6488610
   8.3966470  48.2253720  30.6651360  10.4864590  48.6133430  31.0009330
  10.7742400  48.3587730  30.1242340  10.9987810  48.0610790  31.5914900
  11.7041600  32.3523630  31.5805840  10.9213390  32.8269130  31.8602600
  11.4104530  31.4478460  31.4719020  16.2562670  33.0546730  29.6254930
  16.6970760  32.9991830  28.7776530  15.9870260  33.9704740  29.6965110
  18.1201240  32.6861970  27.6363750  18.0589640  31.7423190  27.4894770
  18.8993270  32.7942060  28.1817210   3.0482010  32.6571110  24.1019560
   3.8061370  32.7699990  23.5283590   2.5859180  33.4940310  24.0562990
   9.5895820  34.7710380  27.0921870   8.7770330  34.3967270  26.7517750
  10.0937460  34.0155460  27.3943060  14.0920800  31.4352830  28.3304940
  14.6950170  32.0073040  28.8053460  13.3513790  31.9992270  28.1078840
  17.2355400  31.8374390  23.6045220  17.4306030  32.7357840  23.8712650
  16.4485270  31.6061470  24.0978170   4.0316690  47.5187560  24.0437840
   3.5064310  47.8995590  23.3399800   3.9561270  48.1438330  24.7647550
   5.4207160  33.1835160  22.6421530   5.9499920  32.3964960  22.5129480
   6.0535480  33.8626350  22.8757060   7.6145000  32.9210300  25.6966920
   6.9847740  32.2197610  25.8637050   7.0750140  33.6814430  25.4800080
  10.5536950  49.5349530  38.3677530  11.4804260  49.2993800  38.4113490
  10.5387380  50.3621530  37.8863560  18.7882010  49.0775100  25.3651780
  18.9634200  48.3912840  24.7212700  18.0903580  49.6022150  24.9728450
   7.7400560  32.1994280  38.1319410   7.4584830  32.7027880  37.3680230
   8.1220260  31.4016030  37.7661540   6.6309660  49.4669940  22.9187090
   7.3628480  49.1829220  22.3710980   6.8903330  49.2283220  23.8086470
   5.7924450  45.5834670  22.9233420   5.1633330  46.0519770  23.4719250
   5.9072280  44.7383890  23.3579610  14.3416020  31.6147860  38.7099880
  14.2281470  31.9342470  39.6051400  15.1585760  32.0160370  38.4137160
  17.1214510  48.7619390  38.1918570  17.9139830  48.2668620  37.9844530
  17.4147660  49.4409530  38.7994180  13.2474170  39.6340330   9.0734620
  13.1668220  38.7194940   8.8026330  12.8338590  40.1307400   8.3674330
  11.3792210  41.4119350  10.9543890  10.6034310  40.9319790  11.2442460
  12.0305140  40.7325000  10.7800050   5.3958040  41.7239160  11.8319650
   4.5642920  41.4687870  12.2316160   6.0039020  41.7949930  12.5677570
  15.3999640  45.8179540   9.7343020  14.9381170  45.0466780  10.0630190
  16.2125190  45.8445610  10.2395470   5.3759300  45.7579250  12.0277670
   5.6787340  44.8676990  11.8487890   6.1202890  46.3149470  11.7999920
   3.8049990  36.6841050   5.6162040   2.9166690  37.0257020   5.5141920
   4.0891180  36.4841370   4.7242870   1.7683000  39.2846700  11.5001740
   2.3399110  38.5168900  11.5005380   1.7684540  39.5835460  10.5908350
  11.6262950  48.1037550   9.3547010  11.0074390  48.5595050   8.7841450
  12.4814730  48.2589010   8.9536710  10.8201200  44.0876540  10.9614050
  10.7509480  43.1466480  10.8003180  11.5821060  44.1777950  11.5336620
   3.0107870  34.6931060  13.2870670   2.8310710  33.7956810  13.5673430
   2.6087950  35.2402930  13.9617620  11.8506370  36.8946920  11.1882980
  12.2271190  36.0218800  11.0756650  11.7525880  37.2305620  10.2973420
   5.9811380  35.2672550   6.6500420   6.0878130  36.1676280   6.9569180
   5.0703740  35.2190520   6.3595070  15.6330490  34.3897360   8.1211320
  16.4540110  33.8993930   8.1636800  15.6664570  34.9795020   8.8743160
   3.6294540  37.1891560  11.8953010   4.3104650  37.4529930  12.5140410
   3.3142590  36.3492430  12.2291020   7.8219110  38.2358920  10.9825600
   8.3297330  38.7339890  11.6230620   8.3532350  37.4594120  10.8064960
  19.9230040  36.4064110  14.6854950  19.2182210  36.7945820  14.1670060
  20.1887960  37.1014400  15.2875880   6.1055210  32.8757480  15.2489020
   6.1073650  33.3929870  14.4434920   5.2759520  32.3987660  15.2258950
  12.4926300  42.9876790   6.7478920  11.8743570  43.4526240   6.1841640
  13.0049550  43.6804270   7.1648430   7.3558060  42.5152660  13.4262520
   7.0227440  43.1421580  14.0683590   7.5324740  43.0414540  12.6464190
  15.8691970  36.3297740  10.8938860  15.1647540  36.6182630  11.4741970
  16.2304130  37.1397850  10.5338420   5.7870540  34.5867440  13.2559470
   6.1287350  35.4309490  12.9613340   4.8486350  34.7351180  13.3724810
   6.5677160  44.4833460  15.2411700   7.1851160  45.1584540  14.9596150
   5.7070280  44.8921440  15.1499200  17.4854750  45.9472870  13.1566340
  16.8018270  46.6171980  13.1483010  18.0249040  46.1453520  12.3911200
  18.9378890  35.7752530  11.2848070  17.9903800  35.8091510  11.4163500
  19.2628880  36.5891480  11.6697430   9.4698430  32.0749710   9.5804060
   9.7773410  31.5196600   8.8639560   8.5399130  32.2094170   9.3977050
  15.0213490  47.7917000  11.8711520  15.0340650  47.3879290  11.0033780
  14.4688710  48.5664290  11.7672950  16.3158910  44.5133220   6.9601690
  16.2055240  43.5707550   7.0851110  16.3127160  44.8748860   7.8464450
  14.4198930  42.6946840  13.1994130  14.8367720  42.4806950  12.3647590
  15.1438750  42.9519630  13.7702750  11.8579190  40.1398540   6.3164180
  10.9308470  40.0735920   6.5452650  12.0104010  41.0778670   6.2019420
  11.8448270  36.4115540   3.3131340  10.9051940  36.5729500   3.3983800
  12.1631530  37.1301220   2.7667330  18.3661030  41.0934060  13.2910370
  17.5379660  41.1627150  12.8160500  18.9611510  41.6788370  12.8226200
  15.8876480  41.7018840   6.8199430  15.2688900  41.3638390   6.1725730
  15.8700930  41.0578600   7.5278620  15.3303040  37.8803380  14.2365240
  14.9174220  38.7057090  14.4905230  14.5978990  37.2948420  14.0441600
   7.4635830  40.6663280   9.0983910   7.0592830  39.9540530   8.6029810
   7.5498950  40.3216520   9.9871950   7.9317530  44.3530840  11.2623120
   7.6345820  43.7476310  10.5830900   8.8817350  44.3908150  11.1512480
   6.1764450  37.4406490  12.8782950   6.7279040  37.5501830  12.1036200
   6.6907960  37.8144090  13.5938180  16.0203140  47.9262710  14.9246220
  15.5433700  48.7334900  14.7318830  15.3364930  47.2741040  15.0772430
   7.0235960  44.0912530  17.9130920   6.1264490  44.3152500  18.1604320
   7.0488830  44.2147470  16.9642320  14.0641180  40.9405650   3.8272180
  14.5034460  40.1028080   3.6810000  14.7769600  41.5735050   3.9136320
   5.8507180  40.9625850  16.4888290   5.7114950  41.8348650  16.8575690
   4.9688540  40.6198660  16.3436230  12.1736560  45.8801720   7.7953420
  12.6132470  46.6226050   7.3808810  12.1123450  46.1228290   8.7192380
   7.6487530  46.9047550  18.6973440   7.6202960  47.3090500  17.8301870
   7.4852500  45.9757910  18.5345040  17.6458320  32.1948460   2.1413220
  17.3330980  32.2875290   3.0412290  18.4070790  32.7729490   2.0910650
   4.1640460  39.5608260   6.5990560   4.0438060  40.2870350   5.9871830
   3.8541350  38.7911170   6.1218470  19.6002350  47.6874650  19.9937610
  20.0762070  48.1657540  20.6726690  20.2209510  47.6192140  19.2683110
   1.8025830  42.7323400  12.4059200   1.8806250  42.8672170  11.4614920
   2.4167510  42.0239290  12.5987320   3.0473460  44.4323590   8.8165380
   2.6401540  44.5738180   7.9618980   3.9386470  44.1483750   8.6136590
  19.0035600  44.8787500  17.1537620  19.1298660  44.6399380  16.2354800
  19.0456980  44.0472040  17.6259700  12.8652340  48.5815500  15.7232430
  13.3797010  48.4923510  16.5254860  12.0221420  48.9275200  16.0160340
  14.8406740  48.8670840   5.1516430  14.6807880  48.5773780   6.0498260
  14.6753450  48.0910970   4.6161660   7.3195120  48.6469370   6.9288050
   7.1437600  47.7304910   6.7155850   6.4650860  49.0056660   7.1685850
  14.5432870  46.3758400   3.7114430  13.8498030  46.3735690   3.0516710
  15.2855730  45.9517720   3.2808600  14.1082800  48.0021110   7.7862920
  14.5639750  47.2210490   8.1001540  14.4475320  48.7127930   8.3304100
  18.8559610  36.9319960  18.1187360  18.2403880  37.4399630  17.5902820
  18.5356030  36.0318290  18.0613300   1.8585350  43.7737570  14.9453660
   2.0216390  43.3042930  14.1273030   2.3237800  43.2661130  15.6102500
   6.6304120  32.9043330   9.9814230   6.1872270  33.6852870   9.6498750
   7.1889110  33.2273220  10.6885170  10.9173930  35.7711850  15.5849550
  10.4553300  35.9794870  16.3969490  10.5152040  34.9571200  15.2820220
  15.9178440  36.9920800  16.7146210  15.0672030  36.6926550  17.0355280
  15.7580230  37.2362810  15.8030030  13.0128150  38.4922550  18.8145000
  13.3381560  37.6586300  18.4747230  13.8008480  39.0151070  18.9623330
   9.7462940  32.5254030   4.8620060   9.1217120  32.5213900   5.5873370
   9.6593060  31.6584990   4.4656030   8.6680020  33.4490660  11.8403830
   8.9652350  34.3553490  11.7595850   9.2165580  32.9609440  11.2263400
   6.4218340  38.0276900   7.7095480   6.1959260  37.8114070   8.6142100
   5.6410870  38.4605360   7.3641450  13.6516100  38.0340270   6.3086130
  13.0524990  38.7576070   6.1249750  14.1995710  37.9717050   5.5262580
   8.8617550  38.9262480  18.3755750   8.7661150  37.9857210  18.2256150
   9.7049530  39.1477550  17.9803820  12.2580970  36.6703810   8.3389410
  12.6510540  36.9876010   7.5258100  12.6197820  35.7915690   8.4533930
   3.9928090  35.3376150  16.5289530   3.5991480  36.1851360  16.7362310
   3.3046490  34.7002520  16.7198170  10.5673140  35.4211120  19.5986270
   9.8771460  35.2283320  20.2332360  11.3105440  35.7045760  20.1310570
  12.8436110  39.2609560  12.4340190  12.1117230  39.7696370  12.7830290
  12.4460450  38.4439540  12.1328970   9.2813500  35.9363760  10.8392680
   9.2849560  35.4953710   9.9897220  10.1764620  36.2581090  10.9464500
   5.1315880  35.8190250   9.7986890   4.7915930  36.2965480  10.5553940
   4.3693200  35.3655370   9.4387990   9.3433650  36.9375840   3.8299440
   9.4646470  36.8962320   4.7785260   8.9582160  37.7999990   3.6746170
  13.3062020  34.7143240  11.8463130  13.3234760  35.1651890  12.6904980
  13.0577600  33.8148880  12.0596570   8.3555150  39.2476980   3.2282740
   7.7872050  38.7995230   2.6018650   9.0644150  39.6069760   2.6947890
  16.7332770  32.1275420  17.6849510  17.0578540  31.3965080  18.2107490
  16.7689280  31.8089060  16.7830500   3.4324330  43.1489000  17.1049470
   3.0479120  42.5082670  17.7032430   3.7436520  43.8525120  17.6744200
   9.5821470  39.9965540  12.5858090   9.9491600  39.5224110  13.3319430
   9.3926530  40.8707110  12.9266430   2.4461960  34.7409230   8.7151560
   2.1608880  34.3764900   9.5530180   2.3840820  34.0089690   8.1014700
   7.3720840  39.0374180  14.9042300   7.0677910  39.9166160  15.1292660
   8.3267300  39.0973970  14.9399740   5.9002630  43.2435170   5.5009150
   5.1264890  42.7032790   5.3407870   6.6297260  42.7241780   5.1626910
  16.6590610  42.2400530  11.2935540  17.3789730  42.7355820  10.9031650
  16.4572430  41.5618420  10.6489410  12.1200550  33.6338490   5.4364930
  11.3065160  33.1351660   5.3610240  11.9262500  34.4736740   5.0201280
  12.0409410  42.3109590  17.1804540  11.9746720  41.3905260  16.9262130
  11.4114550  42.4085030  17.8949180  14.8348940  38.0058140   3.7327090
  15.7228560  38.3175370   3.5578430  14.8054030  37.1330390   3.3407670
   5.9440030  42.9115550   9.1387960   6.4618700  42.1083810   9.0844850
   5.4924050  42.8494690   9.9804790  10.8309530  44.1781830   4.4115260
  11.1725230  44.9224060   3.9158580  10.0022240  44.4912950   4.7740090
   3.4284570  39.8776920  16.0513660   3.0699510  40.5430770  16.6387000
   3.1339130  39.0460470  16.4226280   6.6297690  40.3361160  18.9353210
   6.3297830  40.4818340  18.0381030   7.4008930  39.7766450  18.8426600
  11.9726140  45.1330160  16.9308340  11.9870680  44.2011120  16.7127250
  11.2651240  45.2189920  17.5698110  17.1063210  39.3169980   3.2006950
  17.0226930  39.7484200   2.3503390  17.8257400  39.7768330   3.6333770
  18.1837350  41.7737500  16.2776920  17.4585540  42.3666280  16.0806310
  18.7112810  41.7661040  15.4790290  18.1350460  46.1712240   5.9289080
  17.4926620  45.5167860   6.2032800  17.7481120  46.5767330   5.1529750
  13.7136940  43.4997670   9.7760770  14.0660760  42.9025800   9.1162140
  12.8299270  43.1741900   9.9469020   9.8000220  44.2595360   7.1831180
  10.4871350  44.8064570   7.5638770   9.0132640  44.8036090   7.2180790
   9.1027430  41.2641390   6.7956540   9.5590210  42.0746640   7.0216730
   8.7515640  40.9464530   7.6275030  11.4060040  46.7747730  14.0248840
  12.0502260  46.9807110  14.7022260  11.7689480  46.0136130  13.5719690
   5.0039210  31.6079040   7.2679060   4.8753840  31.5996940   8.2163980
   4.1801230  31.9462130   6.9170070  12.6792120  44.7780080  12.7426290
  13.3214350  44.0773240  12.8558460  13.2041470  45.5578520  12.5623180
  16.5247840  45.0628700   2.4665430  16.2985420  44.3459140   3.0590070
  16.1344040  44.8141140   1.6287180  14.4529740  45.5774980  15.9462350
  14.7885980  46.1641670  16.6240270  13.5330080  45.4467690  16.1760140
   2.3063870  49.0895560   3.2409890   2.6661510  49.6884900   2.5867160
   2.1656210  49.6355450   4.0144920  16.1064090  42.9800640   4.1279590
  15.8185790  43.4413330   4.9157470  16.9016260  42.5198410   4.3963810
   2.2905730  47.3550420  17.7152290   2.3996850  46.4145160  17.5747680
   1.6386290  47.6205170  17.0666020  10.2818320  45.6266310  19.1150410
   9.9615190  44.9075550  19.6596100   9.6076680  46.3021380  19.1886470
   8.3232490  46.4726760   4.0583560   8.3142590  47.2056450   3.4428070
   7.4030850  46.2258340   4.1510520   3.9239130  41.6941650   4.8030320
   3.3167080  42.4340550   4.8125620   4.3988480  41.7841010   3.9768520
  13.4971920  35.8592470  14.4787210  13.8652740  35.0387680  14.8066780
  12.6370120  35.9194360  14.8942860  16.8633950  34.8149410   5.2874770
  16.2347110  34.9195080   4.5733000  16.3685870  35.0346190   6.0768650
  11.3092090  46.5355000   2.7208750  11.4104070  46.3318990   1.7910730
  10.4093830  46.2813280   2.9256530   8.8317980  37.0935360   6.7032650
   8.1234130  37.5621700   7.1446260   9.1162460  36.4357370   7.3377840
  10.4573910  38.5132060  14.7025180  10.9559160  38.9877880  15.3677030
  10.5996860  37.5895580  14.9095210  12.8633410  33.8186020   8.1428440
  12.7401190  33.8372150   7.1937950  13.8117970  33.8664960   8.2626840
   9.9510200  49.0541320   7.4156420  10.2051700  49.0162710   6.4935790
   9.0022680  48.9274650   7.4084670   7.0353000  35.4020440   4.0783360
   7.8843530  35.8390590   4.0123550   6.6684270  35.7140700   4.9055420
  17.6640770  34.7300020  15.5453570  17.1614370  35.4705420  15.8847380
  18.4797430  35.1184020  15.2290360  15.9562780  39.9733200   8.9914930
  15.0152920  39.9883430   9.1662620  16.2706850  39.1869160   9.4375230
   5.9344420  41.6552800   2.5518890   6.7007690  41.5434160   3.1144320
   6.0119110  40.9590770   1.8995660   4.6291180  39.0877870   3.2351780
   4.7094770  38.1405380   3.3469180   5.5210930  39.4184750   3.3412440
  17.9588360  47.1442050  10.6669190  18.0835780  47.9673220  11.1393000
  18.8253920  46.9332780  10.3193340   5.4305890  49.2373260  10.3386320
   6.1668370  48.6888720  10.6094890   5.8146810  50.1029270  10.1992310
   4.4364170  48.4219330  19.5271900   5.2376900  48.7431380  19.9407300
   3.9215990  48.0614910  20.2491810   8.5408200  48.4103570   2.1611890
   9.3336810  48.6992400   1.7093680   8.0212550  47.9795740   1.4824370
  13.2728800  44.5299200  19.4747310  12.6666960  44.5530800  18.7343060
  12.9682910  43.7982240  20.0114560  14.7029170  48.2579490  18.0856720
  15.6550920  48.1737510  18.0356960  14.5557390  48.9221200  18.7590510
  17.5938370  47.6373700   3.5848630  17.3079880  47.2238840   2.7702810
  17.3957920  48.5661410   3.4649150   9.2099920  42.3163780  18.0043470
   8.4445590  42.8848780  17.9198140   9.3915880  42.0239990  17.1111700
  12.2988330  42.6927010   2.6296230  11.7498430  43.1396310   3.2738970
  12.9207590  42.1876260   3.1533900  16.3523270  44.0469110  18.5618490
  17.0932740  44.3844870  18.0585950  15.5895950  44.2161170  18.0088260
   4.1885060  39.0522380  19.3658020   4.2290400  38.7536250  20.2743250
   5.0430560  39.4529990  19.2065540   7.9663450  41.6517930   4.5261530
   8.3879870  41.4857800   5.3692920   8.0914290  40.8418160   4.0316670
   6.1290870  37.6314480  17.3332510   5.5987330  37.1405430  16.7055850
   6.7978940  38.0598680  16.7990440  15.0268930  42.0983940  17.0973700
  15.4409950  42.2529020  17.9464120  14.0919930  42.2239160  17.2599480
  15.4991100  39.4380100  19.1012850  16.0811870  38.6832420  19.0133330
  15.6752870  39.9687540  18.3244330   6.6163170  34.5976850  17.4129800
   6.5220040  33.9797600  16.6880670   6.0360560  35.3243140  17.1859710
   9.3824610  33.1550090  14.4457190   8.9341910  33.1774350  13.6002740
   8.7489810  32.7569110  15.0427490   9.7884160  42.0504420  15.0669630
  10.2072270  42.8937150  14.8945870   8.8692790  42.1876460  14.8376410
  12.1248060  39.7820600  16.4507470  12.2444270  39.1861740  17.1902310
  12.9842060  39.8190290  16.0308770  14.4635960  40.3357790  15.0269980
  13.9371180  40.8600410  14.4235120  14.8067300  40.9685180  15.6579710
   7.6391580  48.3557430  16.1827360   7.1012670  49.0803490  15.8636060
   7.8925540  47.8787770  15.3924700   8.8916830  36.3241950  17.7083290
   9.4816520  36.0157800  18.3961110   8.0737070  35.8521700  17.8643190
  13.7110260  35.9407760  17.9416310  13.0225780  35.2789300  17.8766300
  14.4316280  35.4946030  18.3864770  14.3410660  32.5359390   4.0006570
  14.6212950  31.6927290   4.3565990  13.5676390  32.7682500   4.5145320
  10.4953790  49.5908640  16.4414010  10.4212490  50.4943780  16.7486380
   9.5932630  49.2720540  16.4136080   8.8790080  33.7686400   2.4453770
   8.5312080  33.0910390   1.8656220   9.0802850  33.3075910   3.2597160
  11.0439120  48.7567150   4.0640370  11.9389910  49.0952120   4.0859130
  11.0756750  48.0346560   3.4364650   4.6835280  44.1294200   2.2927370
   5.1210150  44.6723870   2.9484950   5.1683010  43.3041150   2.3023710
   1.8981080  46.9183230   9.7447630   2.2284090  46.0504290   9.5126270
   2.3272080  47.1241750  10.5752590   6.4943000  45.2492240   7.4049600
   6.1938540  45.1257210   8.3053510   6.3880490  44.3900830   6.9965330
   2.3871290  47.7853820  12.4829260   1.9502280  47.9654620  13.3153410
   2.9548970  48.5428440  12.3410980  18.0233470  47.2870820  16.7706570
  17.4235460  47.3463380  16.0270490  18.1527370  46.3475800  16.9003420
  19.2634920  45.0288640   2.1076280  18.4327880  45.0965290   2.5783510
  19.4406750  45.9192760   1.8043140  18.7191380  41.7736120   4.6110480
  19.4810290  42.3432770   4.7170170  18.7345750  41.2063320   5.3818790
  19.7251350  42.6286220   9.4552410  20.0960180  41.8453540   9.0488380
  20.3653280  43.3175320   9.2769710  16.7085110  44.0122800  14.8682730
  15.8944950  44.4419960  15.1308520  17.1159310  44.6241210  14.2551780
  18.7710550  42.0670490   1.7683000  19.0459390  42.9749370   1.6402220
  18.5821290  42.0033020   2.7044990  15.1686160  35.0915340   3.0636630
  15.5871040  34.9046320   2.2233290  14.8622220  34.2394390   3.3739560
  18.6675890  40.0039480   6.7612430  18.2919490  39.2367410   6.3293720
  17.9379010  40.3862180   7.2487360   3.2571650  40.6826620  13.3821480
   3.6244690  40.5954020  14.2617500   2.6882470  39.9193170  13.2828340
  18.0575510  39.1511000  16.3951950  17.8261600  38.9223750  15.4949900
  18.3180060  40.0710550  16.3496840   2.8087650  37.5935710  17.2879900
   1.9143700  37.5602470  17.6273610   3.3485200  37.7922500  18.0531150
  16.4963580  34.3767430  19.1731650  17.3733760  34.3850830  19.5565650
  16.5084420  33.6398270  18.5624000  17.9426850  38.2296970  10.0619670
  18.4664330  37.7359620   9.4309840  18.5286270  38.3647330  10.8067240
  18.1216570  38.3136840  13.5839220  17.1719280  38.2800380  13.6984210
  18.3029580  39.2236950  13.3488990   3.9761010  36.5638520   2.6937850
   4.6852710  36.1421740   2.2085130   3.2600950  36.6313750   2.0621200
  17.4326820  37.4870320   6.0012080  17.9285940  37.2541190   6.7860960
  17.2342890  36.6482160   5.5849720   3.3127360  31.8684040  11.6363120
   3.9603550  31.3181420  11.1958280   3.7329200  32.1227190  12.4578930
  18.8613980  36.1231270   8.5349760  18.7513260  35.9687310   9.4732030
  19.6221570  35.5952210   8.2925170  17.2079700  32.0625400  14.9932760
  17.8451920  32.6759540  15.3591950  17.3554590  32.0986060  14.0481990
  19.7504250  33.9539190   1.7755900  20.6753560  33.8220370   1.5674190
  19.7280040  34.0332010   2.7292350  19.8242740  34.7249850   4.4012610
  19.0294240  34.6594970   4.9305520  20.0286020  35.6600490   4.3897960
  16.7661160  48.7641400   8.3951000  17.3620230  48.4425970   7.7185420
  17.0239310  48.2913220   9.1864270   3.0659360  32.0239710  14.3788440
   2.7174180  32.4803530  15.1446620   2.7347060  31.1296840  14.4610870
   4.6723730  45.1959310  18.5441630   4.6293360  44.8252220  19.4256090
   4.8034740  46.1336880  18.6843450   8.3729760  46.7518900  14.1451350
   8.1321120  47.0193460  13.2581870   9.3132400  46.9224630  14.2002210
  10.5784180  33.2151590  17.9007860  10.5173070  33.8073420  18.6503270
  11.5184560  33.1077550  17.7558120  13.2158740  32.8721650  17.5400150
  13.8299150  33.1900940  16.8781230  13.7608300  32.3870240  18.1596010
  19.6333920  48.7713280  14.9461990  19.1392200  49.1682150  14.2289120
  19.0247210  48.1462490  15.3399270   3.7380000  31.5515910  17.6539210
   4.2862990  31.3703960  16.8905320   3.8035310  30.7610020  18.1895520
   4.5111760  48.1421560  15.6639410   3.9172080  48.0106260  16.4029450
   4.5035600  47.3059700  15.1981510  13.9566780  31.4353790  13.8669440
  13.0826620  31.7688900  13.6642370  13.8477530  30.9626970  14.6921310
  14.8638760  33.6424660  15.2511160  14.5352120  32.8276420  14.8712890
  15.8121060  33.5994470  15.1276850  17.3173370  49.4136700  12.2248730
  16.8576340  50.1652510  11.8506750  16.6885830  48.6943170  12.1663530
   4.1423990  45.5079940  14.6147450   3.4158050  44.8885230  14.5473400
   4.2033140  45.9020550  13.7445530   7.7469090  47.7224940  11.3996860
   8.2634110  47.1112300  10.8745120   8.3966470  48.2253720  11.8907870
  10.4864590  48.6133430  12.2265840  10.7742400  48.3587730  11.3498850
  10.9987810  48.0610790  12.8171410  11.7041600  32.3523630  12.8062350
  10.9213390  32.8269130  13.0859110  11.4104530  31.4478460  12.6975530
  16.2562670  33.0546730  10.8511440  16.6970760  32.9991830  10.0033040
  15.9870260  33.9704740  10.9221620  18.1201240  32.6861970   8.8620260
  18.0589640  31.7423190   8.7151280  18.8993270  32.7942060   9.4073720
   3.0482010  32.6571110   5.3276070   3.8061370  32.7699990   4.7540100
   2.5859180  33.4940310   5.2819500   9.5895820  34.7710380   8.3178380
   8.7770330  34.3967270   7.9774260  10.0937460  34.0155460   8.6199570
  14.0920800  31.4352830   9.5561450  14.6950170  32.0073040  10.0309970
  13.3513790  31.9992270   9.3335350  17.2355400  31.8374390   4.8301730
  17.4306030  32.7357840   5.0969160  16.4485270  31.6061470   5.3234680
   4.0316690  47.5187560   5.2694350   3.5064310  47.8995590   4.5656310
   3.9561270  48.1438330   5.9904060   5.4207160  33.1835160   3.8678040
   5.9499920  32.3964960   3.7385990   6.0535480  33.8626350   4.1013570
   7.6145000  32.9210300   6.9223430   6.9847740  32.2197610   7.0893560
   7.0750140  33.6814430   6.7056590  10.5536950  49.5349530  19.5934040
  11.4804260  49.2993800  19.6370000  10.5387380  50.3621530  19.1120070
  18.7882010  49.0775100   6.5908290  18.9634200  48.3912840   5.9469210
  18.0903580  49.6022150   6.1984960   7.7400560  32.1994280  19.3575920
   7.4584830  32.7027880  18.5936740   8.1220260  31.4016030  18.9918050
   6.6309660  49.4669940   4.1443600   7.3628480  49.1829220   3.5967490
   6.8903330  49.2283220   5.0342980   5.7924450  45.5834670   4.1489930
   5.1633330  46.0519770   4.6975760   5.9072280  44.7383890   4.5836120
  14.3416020  31.6147860  19.9356390  14.2281470  31.9342470  20.8307910
  15.1585760  32.0160370  19.6393670  17.1214510  48.7619390  19.4175080
  17.9139830  48.2668620  19.2101040  17.4147660  49.4409530  20.0250690
  13.2474170  20.8596840  46.6221600  13.1668220  19.9451450  46.3513310
  12.8338590  21.3563910  45.9161310  11.3792210  22.6375860  48.5030870
  10.6034310  22.1576300  48.7929440  12.0305140  21.9581510  48.3287030
   5.3958040  22.9495670  49.3806630   4.5642920  22.6944380  49.7803140
   6.0039020  23.0206440  50.1164550  15.3999640  27.0436050  47.2830000
  14.9381170  26.2723290  47.6117170  16.2125190  27.0702120  47.7882450
   5.3759300  26.9835760  49.5764650   5.6787340  26.0933500  49.3974870
   6.1202890  27.5405980  49.3486900   3.8049990  17.9097560  43.1649020
   2.9166690  18.2513530  43.0628900   4.0891180  17.7097880  42.2729850
   1.7683000  20.5103210  49.0488720   2.3399110  19.7425410  49.0492360
   1.7684540  20.8091970  48.1395330  11.6262950  29.3294060  46.9033990
  11.0074390  29.7851560  46.3328430  12.4814730  29.4845520  46.5023690
  10.8201200  25.3133050  48.5101030  10.7509480  24.3722990  48.3490160
  11.5821060  25.4034460  49.0823600   3.0107870  15.9187570  50.8357650
   2.8310710  15.0213320  51.1160410   2.6087950  16.4659440  51.5104600
  11.8506370  18.1203430  48.7369960  12.2271190  17.2475310  48.6243630
  11.7525880  18.4562130  47.8460400   5.9811380  16.4929060  44.1987400
   6.0878130  17.3932790  44.5056160   5.0703740  16.4447030  43.9082050
  15.6330490  15.6153870  45.6698300  16.4540110  15.1250440  45.7123780
  15.6664570  16.2051530  46.4230140   3.6294540  18.4148070  49.4439990
   4.3104650  18.6786440  50.0627390   3.3142590  17.5748940  49.7778000
   7.8219110  19.4615430  48.5312580   8.3297330  19.9596400  49.1717600
   8.3532350  18.6850630  48.3551940  19.9230040  17.6320620  52.2341930
  19.2182210  18.0202330  51.7157040  20.1887960  18.3270910  52.8362860
   6.1055210  14.1013990  52.7976000   6.1073650  14.6186380  51.9921900
   5.2759520  13.6244170  52.7745930  12.4926300  24.2133300  44.2965900
  11.8743570  24.6782750  43.7328620  13.0049550  24.9060780  44.7135410
   7.3558060  23.7409170  50.9749500   7.0227440  24.3678090  51.6170570
   7.5324740  24.2671050  50.1951170  15.8691970  17.5554250  48.4425840
  15.1647540  17.8439140  49.0228950  16.2304130  18.3654360  48.0825400
   5.7870540  15.8123950  50.8046450   6.1287350  16.6566000  50.5100320
   4.8486350  15.9607690  50.9211790   6.5677160  25.7089970  52.7898680
   7.1851160  26.3841050  52.5083130   5.7070280  26.1177950  52.6986180
  17.4854750  27.1729380  50.7053320  16.8018270  27.8428490  50.6969990
  18.0249040  27.3710030  49.9398180  18.9378890  17.0009040  48.8335050
  17.9903800  17.0348020  48.9650480  19.2628880  17.8147990  49.2184410
   9.4698430  13.3006220  47.1291040   9.7773410  12.7453110  46.4126540
   8.5399130  13.4350680  46.9464030  15.0213490  29.0173510  49.4198500
  15.0340650  28.6135800  48.5520760  14.4688710  29.7920800  49.3159930
  16.3158910  25.7389730  44.5088670  16.2055240  24.7964060  44.6338090
  16.3127160  26.1005370  45.3951430  14.4198930  23.9203350  50.7481110
  14.8367720  23.7063460  49.9134570  15.1438750  24.1776140  51.3189730
  11.8579190  21.3655050  43.8651160  10.9308470  21.2992430  44.0939630
  12.0104010  22.3035180  43.7506400  11.8448270  17.6372050  40.8618320
  10.9051940  17.7986010  40.9470780  12.1631530  18.3557730  40.3154310
  18.3661030  22.3190570  50.8397350  17.5379660  22.3883660  50.3647480
  18.9611510  22.9044880  50.3713180  15.8876480  22.9275350  44.3686410
  15.2688900  22.5894900  43.7212710  15.8700930  22.2835110  45.0765600
  15.3303040  19.1059890  51.7852220  14.9174220  19.9313600  52.0392210
  14.5978990  18.5204930  51.5928580   7.4635830  21.8919790  46.6470890
   7.0592830  21.1797040  46.1516790   7.5498950  21.5473030  47.5358930
   7.9317530  25.5787350  48.8110100   7.6345820  24.9732820  48.1317880
   8.8817350  25.6164660  48.6999460   6.1764450  18.6663000  50.4269930
   6.7279040  18.7758340  49.6523180   6.6907960  19.0400600  51.1425160
  16.0203140  29.1519220  52.4733200  15.5433700  29.9591410  52.2805810
  15.3364930  28.4997550  52.6259410   7.0235960  25.3169040  55.4617900
   6.1264490  25.5409010  55.7091300   7.0488830  25.4403980  54.5129300
  14.0641180  22.1662160  41.3759160  14.5034460  21.3284590  41.2296980
  14.7769600  22.7991560  41.4623300   5.8507180  22.1882360  54.0375270
   5.7114950  23.0605160  54.4062670   4.9688540  21.8455170  53.8923210
  12.1736560  27.1058230  45.3440400  12.6132470  27.8482560  44.9295790
  12.1123450  27.3484800  46.2679360   7.6487530  28.1304060  56.2460420
   7.6202960  28.5347010  55.3788850   7.4852500  27.2014420  56.0832020
  17.6458320  13.4204970  39.6900200  17.3330980  13.5131800  40.5899270
  18.4070790  13.9986000  39.6397630   4.1640460  20.7864770  44.1477540
   4.0438060  21.5126860  43.5358810   3.8541350  20.0167680  43.6705450
   1.8025830  23.9579910  49.9546180   1.8806250  24.0928680  49.0101900
   2.4167510  23.2495800  50.1474300   3.0473460  25.6580100  46.3652360
   2.6401540  25.7994690  45.5105960   3.9386470  25.3740260  46.1623570
  19.0035600  26.1044010  54.7024600  19.1298660  25.8655890  53.7841780
  19.0456980  25.2728550  55.1746680  12.8652340  29.8072010  53.2719410
  13.3797010  29.7180020  54.0741840  12.0221420  30.1531710  53.5647320
  14.8406740  30.0927350  42.7003410  14.6807880  29.8030290  43.5985240
  14.6753450  29.3167480  42.1648640   7.3195120  29.8725880  44.4775030
   7.1437600  28.9561420  44.2642830   6.4650860  30.2313170  44.7172830
  14.5432870  27.6014910  41.2601410  13.8498030  27.5992200  40.6003690
  15.2855730  27.1774230  40.8295580  14.1082800  29.2277620  45.3349900
  14.5639750  28.4467000  45.6488520  14.4475320  29.9384440  45.8791080
  18.8559610  18.1576470  55.6674340  18.2403880  18.6656140  55.1389800
  18.5356030  17.2574800  55.6100280   1.8585350  24.9994080  52.4940640
   2.0216390  24.5299440  51.6760010   2.3237800  24.4917640  53.1589480
   6.6304120  14.1299840  47.5301210   6.1872270  14.9109380  47.1985730
   7.1889110  14.4529730  48.2372150  10.9173930  16.9968360  53.1336530
  10.4553300  17.2051380  53.9456470  10.5152040  16.1827710  52.8307200
  15.9178440  18.2177310  54.2633190  15.0672030  17.9183060  54.5842260
  15.7580230  18.4619320  53.3517010  13.0128150  19.7179060  56.3631980
  13.3381560  18.8842810  56.0234210  13.8008480  20.2407580  56.5110310
   9.7462940  13.7510540  42.4107040   9.1217120  13.7470410  43.1360350
   9.6593060  12.8841500  42.0143010   8.6680020  14.6747170  49.3890810
   8.9652350  15.5810000  49.3082830   9.2165580  14.1865950  48.7750380
   6.4218340  19.2533410  45.2582460   6.1959260  19.0370580  46.1629080
   5.6410870  19.6861870  44.9128430  13.6516100  19.2596780  43.8573110
  13.0524990  19.9832580  43.6736730  14.1995710  19.1973560  43.0749560
   8.8617550  20.1518990  55.9242730   8.7661150  19.2113720  55.7743130
   9.7049530  20.3734060  55.5290800  12.2580970  17.8960320  45.8876390
  12.6510540  18.2132520  45.0745080  12.6197820  17.0172200  46.0020910
   3.9928090  16.5632660  54.0776510   3.5991480  17.4107870  54.2849290
   3.3046490  15.9259030  54.2685150  12.8436110  20.4866070  49.9827170
  12.1117230  20.9952880  50.3317270  12.4460450  19.6696050  49.6815950
   9.2813500  17.1620270  48.3879660   9.2849560  16.7210220  47.5384200
  10.1764620  17.4837600  48.4951480   5.1315880  17.0446760  47.3473870
   4.7915930  17.5221990  48.1040920   4.3693200  16.5911880  46.9874970
   9.3433650  18.1632350  41.3786420   9.4646470  18.1218830  42.3272240
   8.9582160  19.0256500  41.2233150  13.3062020  15.9399750  49.3950110
  13.3234760  16.3908400  50.2391960  13.0577600  15.0405390  49.6083550
   8.3555150  20.4733490  40.7769720   7.7872050  20.0251740  40.1505630
   9.0644150  20.8326270  40.2434870  16.7332770  13.3531930  55.2336490
  17.0578540  12.6221590  55.7594470  16.7689280  13.0345570  54.3317480
   3.4324330  24.3745510  54.6536450   3.0479120  23.7339180  55.2519410
   3.7436520  25.0781630  55.2231180   9.5821470  21.2222050  50.1345070
   9.9491600  20.7480620  50.8806410   9.3926530  22.0963620  50.4753410
   2.4461960  15.9665740  46.2638540   2.1608880  15.6021410  47.1017160
   2.3840820  15.2346200  45.6501680   7.3720840  20.2630690  52.4529280
   7.0677910  21.1422670  52.6779640   8.3267300  20.3230480  52.4886720
   5.9002630  24.4691680  43.0496130   5.1264890  23.9289300  42.8894850
   6.6297260  23.9498290  42.7113890  16.6590610  23.4657040  48.8422520
  17.3789730  23.9612330  48.4518630  16.4572430  22.7874930  48.1976390
  12.1200550  14.8595000  42.9851910  11.3065160  14.3608170  42.9097220
  11.9262500  15.6993250  42.5688260  12.0409410  23.5366100  54.7291520
  11.9746720  22.6161770  54.4749110  11.4114550  23.6341540  55.4436160
  14.8348940  19.2314650  41.2814070  15.7228560  19.5431880  41.1065410
  14.8054030  18.3586900  40.8894650   5.9440030  24.1372060  46.6874940
   6.4618700  23.3340320  46.6331830   5.4924050  24.0751200  47.5291770
  10.8309530  25.4038340  41.9602240  11.1725230  26.1480570  41.4645560
  10.0022240  25.7169460  42.3227070   3.4284570  21.1033430  53.6000640
   3.0699510  21.7687280  54.1873980   3.1339130  20.2716980  53.9713260
   6.6297690  21.5617670  56.4840190   6.3297830  21.7074850  55.5868010
   7.4008930  21.0022960  56.3913580  11.9726140  26.3586670  54.4795320
  11.9870680  25.4267630  54.2614230  11.2651240  26.4446430  55.1185090
  17.1063210  20.5426490  40.7493930  17.0226930  20.9740710  39.8990370
  17.8257400  21.0024840  41.1820750  18.1837350  22.9994010  53.8263900
  17.4585540  23.5922790  53.6293290  18.7112810  22.9917550  53.0277270
  18.1350460  27.3968750  43.4776060  17.4926620  26.7424370  43.7519780
  17.7481120  27.8023840  42.7016730  13.7136940  24.7254180  47.3247750
  14.0660760  24.1282310  46.6649120  12.8299270  24.3998410  47.4956000
   9.8000220  25.4851870  44.7318160  10.4871350  26.0321080  45.1125750
   9.0132640  26.0292600  44.7667770   9.1027430  22.4897900  44.3443520
   9.5590210  23.3003150  44.5703710   8.7515640  22.1721040  45.1762010
  11.4060040  28.0004240  51.5735820  12.0502260  28.2063620  52.2509240
  11.7689480  27.2392640  51.1206670   5.0039210  12.8335550  44.8166040
   4.8753840  12.8253450  45.7650960   4.1801230  13.1718640  44.4657050
  12.6792120  26.0036590  50.2913270  13.3214350  25.3029750  50.4045440
  13.2041470  26.7835030  50.1110160  16.5247840  26.2885210  40.0152410
  16.2985420  25.5715650  40.6077050  16.1344040  26.0397650  39.1774160
  14.4529740  26.8031490  53.4949330  14.7885980  27.3898180  54.1727250
  13.5330080  26.6724200  53.7247120   2.3063870  30.3152070  40.7896870
   2.6661510  30.9141410  40.1354140   2.1656210  30.8611960  41.5631900
  16.1064090  24.2057150  41.6766570  15.8185790  24.6669840  42.4644450
  16.9016260  23.7454920  41.9450790   2.2905730  28.5806930  55.2639270
   2.3996850  27.6401670  55.1234660   1.6386290  28.8461680  54.6153000
  10.2818320  26.8522820  56.6637390   9.9615190  26.1332060  57.2083080
   9.6076680  27.5277890  56.7373450   8.3232490  27.6983270  41.6070540
   8.3142590  28.4312960  40.9915050   7.4030850  27.4514850  41.6997500
   3.9239130  22.9198160  42.3517300   3.3167080  23.6597060  42.3612600
   4.3988480  23.0097520  41.5255500  13.4971920  17.0848980  52.0274190
  13.8652740  16.2644190  52.3553760  12.6370120  17.1450870  52.4429840
  16.8633950  16.0405920  42.8361750  16.2347110  16.1451590  42.1219980
  16.3685870  16.2602700  43.6255630  11.3092090  27.7611510  40.2695730
  11.4104070  27.5575500  39.3397710  10.4093830  27.5069790  40.4743510
   8.8317980  18.3191870  44.2519630   8.1234130  18.7878210  44.6933240
   9.1162460  17.6613880  44.8864820  10.4573910  19.7388570  52.2512160
  10.9559160  20.2134390  52.9164010  10.5996860  18.8152090  52.4582190
  12.8633410  15.0442530  45.6915420  12.7401190  15.0628660  44.7424930
  13.8117970  15.0921470  45.8113820   9.9510200  30.2797830  44.9643400
  10.2051700  30.2419220  44.0422770   9.0022680  30.1531160  44.9571650
   7.0353000  16.6276950  41.6270340   7.8843530  17.0647100  41.5610530
   6.6684270  16.9397210  42.4542400  17.6640770  15.9556530  53.0940550
  17.1614370  16.6961930  53.4334360  18.4797430  16.3440530  52.7777340
  15.9562780  21.1989710  46.5401910  15.0152920  21.2139940  46.7149600
  16.2706850  20.4125670  46.9862210   5.9344420  22.8809310  40.1005870
   6.7007690  22.7690670  40.6631300   6.0119110  22.1847280  39.4482640
   4.6291180  20.3134380  40.7838760   4.7094770  19.3661890  40.8956160
   5.5210930  20.6441260  40.8899420  17.9588360  28.3698560  48.2156170
  18.0835780  29.1929730  48.6879980  18.8253920  28.1589290  47.8680320
   5.4305890  30.4629770  47.8873300   6.1668370  29.9145230  48.1581870
   5.8146810  31.3285780  47.7479290   8.5408200  29.6360080  39.7098870
   9.3336810  29.9248910  39.2580660   8.0212550  29.2052250  39.0311350
  14.7029170  29.4836000  55.6343700  15.6550920  29.3994020  55.5843940
  14.5557390  30.1477710  56.3077490  17.5938370  28.8630210  41.1335610
  17.3079880  28.4495350  40.3189790  17.3957920  29.7917920  41.0136130
   9.0585600  24.8563490  39.5741220   8.9536240  24.2415840  40.3002600
   8.8909820  24.3329380  38.7904230   9.2099920  23.5420290  55.5530450
   8.4445590  24.1105290  55.4685120   9.3915880  23.2496500  54.6598680
  12.2988330  23.9183520  40.1783210  11.7498430  24.3652820  40.8225950
  12.9207590  23.4132770  40.7020880  16.3523270  25.2725620  56.1105470
  17.0932740  25.6101380  55.6072930  15.5895950  25.4417680  55.5575240
   7.9663450  22.8774440  42.0748510   8.3879870  22.7114310  42.9179900
   8.0914290  22.0674670  41.5803650   6.1290870  18.8570990  54.8819490
   5.5987330  18.3661940  54.2542830   6.7978940  19.2855190  54.3477420
  10.4791090  21.9012050  39.3225610  10.9996750  21.1861070  38.9566760
  11.1259490  22.5397920  39.6226120  15.0268930  23.3240450  54.6460680
  15.4409950  23.4785530  55.4951100  14.0919930  23.4495670  54.8086460
  15.4991100  20.6636610  56.6499830  16.0811870  19.9088930  56.5620310
  15.6752870  21.1944050  55.8731310   6.6163170  15.8233360  54.9616780
   6.5220040  15.2054110  54.2367650   6.0360560  16.5499650  54.7346690
   9.3824610  14.3806600  51.9944170   8.9341910  14.4030860  51.1489720
   8.7489810  13.9825620  52.5914470   9.7884160  23.2760930  52.6156610
  10.2072270  24.1193660  52.4432850   8.8692790  23.4132970  52.3863390
  12.1248060  21.0077110  53.9994450  12.2444270  20.4118250  54.7389290
  12.9842060  21.0446800  53.5795750  14.4635960  21.5614300  52.5756960
  13.9371180  22.0856920  51.9722100  14.8067300  22.1941690  53.2066690
   6.8622350  18.9507670  39.0206670   6.6611410  18.0875030  39.3820010
   6.6914400  18.8641030  38.0828270   7.6391580  29.5813940  53.7314340
   7.1012670  30.3060000  53.4123040   7.8925540  29.1044280  52.9411680
   8.8916830  17.5498460  55.2570270   9.4816520  17.2414310  55.9448090
   8.0737070  17.0778210  55.4130170  13.7110260  17.1664270  55.4903290
  13.0225780  16.5045810  55.4253280  14.4316280  16.7202540  55.9351750
  14.3410660  13.7615900  41.5493550  14.6212950  12.9183800  41.9052970
  13.5676390  13.9939010  42.0632300   5.6605150  16.0508290  39.0084550
   5.9631050  16.0575720  38.1003700   6.3999740  15.7006150  39.5052210
  10.4953790  30.8165150  53.9900990  10.4212490  31.7200290  54.2973360
   9.5932630  30.4977050  53.9623060   8.8790080  14.9942910  39.9940750
   8.5312080  14.3166900  39.4143200   9.0802850  14.5332420  40.8084140
  11.0439120  29.9823660  41.6127350  11.9389910  30.3208630  41.6346110
  11.0756750  29.2603070  40.9851630   4.6835280  25.3550710  39.8414350
   5.1210150  25.8980380  40.4971930   5.1683010  24.5297660  39.8510690
   1.8981080  28.1439740  47.2934610   2.2284090  27.2760800  47.0613250
   2.3272080  28.3498260  48.1239570   6.4943000  26.4748750  44.9536580
   6.1938540  26.3513720  45.8540490   6.3880490  25.6157340  44.5452310
   2.3871290  29.0110330  50.0316240   1.9502280  29.1911130  50.8640390
   2.9548970  29.7684950  49.8897960  18.0233470  28.5127330  54.3193550
  17.4235460  28.5719890  53.5757470  18.1527370  27.5732310  54.4490400
  19.2634920  26.2545150  39.6563260  18.4327880  26.3221800  40.1270490
  19.4406750  27.1449270  39.3530120  18.7191380  22.9992630  42.1597460
  19.4810290  23.5689280  42.2657150  18.7345750  22.4319830  42.9305770
  19.7251350  23.8542730  47.0039390  20.0960180  23.0710050  46.5975360
  20.3653280  24.5431830  46.8256690  16.7085110  25.2379310  52.4169710
  15.8944950  25.6676470  52.6795500  17.1159310  25.8497720  51.8038760
  18.7710550  23.2927000  39.3169980  19.0459390  24.2005880  39.1889200
  18.5821290  23.2289530  40.2531970  15.1686160  16.3171850  40.6123610
  15.5871040  16.1302830  39.7720270  14.8622220  15.4650900  40.9226540
  18.6675890  21.2295990  44.3099410  18.2919490  20.4623920  43.8780700
  17.9379010  21.6118690  44.7974340   3.2571650  21.9083130  50.9308460
   3.6244690  21.8210530  51.8104480   2.6882470  21.1449680  50.8315320
  18.0575510  20.3767510  53.9438930  17.8261600  20.1480260  53.0436880
  18.3180060  21.2967060  53.8983820   2.8087650  18.8192220  54.8366880
   1.9143700  18.7858980  55.1760590   3.3485200  19.0179010  55.6018130
  16.4963580  15.6023940  56.7218630  17.3733760  15.6107340  57.1052630
  16.5084420  14.8654780  56.1110980  17.9426850  19.4553480  47.6106650
  18.4664330  18.9616130  46.9796820  18.5286270  19.5903840  48.3554220
  18.1216570  19.5393350  51.1326200  17.1719280  19.5056890  51.2471190
  18.3029580  20.4493460  50.8975970   3.9761010  17.7895030  40.2424830
   4.6852710  17.3678250  39.7572110   3.2600950  17.8570260  39.6108180
   3.6235170  13.8434360  39.2827480   4.3463300  14.3843300  39.6008700
   3.8959690  13.5697780  38.4069020  17.4326820  18.7126830  43.5499060
  17.9285940  18.4797700  44.3347940  17.2342890  17.8738670  43.1336700
   3.3127360  13.0940550  49.1850100   3.9603550  12.5437930  48.7445260
   3.7329200  13.3483700  50.0065910  18.8613980  17.3487780  46.0836740
  18.7513260  17.1943820  47.0219010  19.6221570  16.8208720  45.8412150
  17.2079700  13.2881910  52.5419740  17.8451920  13.9016050  52.9078930
  17.3554590  13.3242570  51.5968970  19.7504250  15.1795700  39.3242880
  20.6753560  15.0476880  39.1161170  19.7280040  15.2588520  40.2779330
  19.8242740  15.9506360  41.9499590  19.0294240  15.8851480  42.4792500
  20.0286020  16.8857000  41.9384940  16.7661160  29.9897910  45.9437980
  17.3620230  29.6682480  45.2672400  17.0239310  29.5169730  46.7351250
   3.0659360  13.2496220  51.9275420   2.7174180  13.7060040  52.6933600
   2.7347060  12.3553350  52.0097850   4.6723730  26.4215820  56.0928610
   4.6293360  26.0508730  56.9743070   4.8034740  27.3593390  56.2330430
   8.3729760  27.9775410  51.6938330   8.1321120  28.2449970  50.8068850
   9.3132400  28.1481140  51.7489190  10.5784180  14.4408100  55.4494840
  10.5173070  15.0329930  56.1990250  11.5184560  14.3334060  55.3045100
  13.2158740  14.0978160  55.0887130  13.8299150  14.4157450  54.4268210
  13.7608300  13.6126750  55.7082990  19.6333920  29.9969790  52.4948970
  19.1392200  30.3938660  51.7776100  19.0247210  29.3719000  52.8886250
   3.7380000  12.7772420  55.2026190   4.2862990  12.5960470  54.4392300
   3.8035310  11.9866530  55.7382500   4.5111760  29.3678070  53.2126390
   3.9172080  29.2362770  53.9516430   4.5035600  28.5316210  52.7468490
  13.9566780  12.6610300  51.4156420  13.0826620  12.9945410  51.2129350
  13.8477530  12.1883480  52.2408290  14.8638760  14.8681170  52.7998140
  14.5352120  14.0532930  52.4199870  15.8121060  14.8250980  52.6763830
  17.3173370  30.6393210  49.7735710  16.8576340  31.3909020  49.3993730
  16.6885830  29.9199680  49.7150510   4.1423990  26.7336450  52.1634430
   3.4158050  26.1141740  52.0960380   4.2033140  27.1277060  51.2932510
   7.7469090  28.9481450  48.9483840   8.2634110  28.3368810  48.4232100
   8.3966470  29.4510230  49.4394850  10.4864590  29.8389940  49.7752820
  10.7742400  29.5844240  48.8985830  10.9987810  29.2867300  50.3658390
  11.7041600  13.5780140  50.3549330  10.9213390  14.0525640  50.6346090
  11.4104530  12.6734970  50.2462510  16.2562670  14.2803240  48.3998420
  16.6970760  14.2248340  47.5520020  15.9870260  15.1961250  48.4708600
  18.1201240  13.9118480  46.4107240  18.0589640  12.9679700  46.2638260
  18.8993270  14.0198570  46.9560700   3.0482010  13.8827620  42.8763050
   3.8061370  13.9956500  42.3027080   2.5859180  14.7196820  42.8306480
   9.5895820  15.9966890  45.8665360   8.7770330  15.6223780  45.5261240
  10.0937460  15.2411970  46.1686550  14.0920800  12.6609340  47.1048430
  14.6950170  13.2329550  47.5796950  13.3513790  13.2248780  46.8822330
  17.2355400  13.0630900  42.3788710  17.4306030  13.9614350  42.6456140
  16.4485270  12.8317980  42.8721660   4.0316690  28.7444070  42.8181330
   3.5064310  29.1252100  42.1143290   3.9561270  29.3694840  43.5391040
   5.4207160  14.4091670  41.4165020   5.9499920  13.6221470  41.2872970
   6.0535480  15.0882860  41.6500550   7.6145000  14.1466810  44.4710410
   6.9847740  13.4454120  44.6380540   7.0750140  14.9070940  44.2543570
  10.5536950  30.7606040  57.1421020  11.4804260  30.5250310  57.1856980
  10.5387380  31.5878040  56.6607050  18.7882010  30.3031610  44.1395270
  18.9634200  29.6169350  43.4956190  18.0903580  30.8278660  43.7471940
   7.7400560  13.4250790  56.9062900   7.4584830  13.9284390  56.1423720
   8.1220260  12.6272540  56.5405030   6.6309660  30.6926450  41.6930580
   7.3628480  30.4085730  41.1454470   6.8903330  30.4539730  42.5829960
   5.7924450  26.8091180  41.6976910   5.1633330  27.2776280  42.2462740
   5.9072280  25.9640400  42.1323100  13.2474170  20.8596840  27.8478110
  13.1668220  19.9451450  27.5769820  12.8338590  21.3563910  27.1417820
  11.3792210  22.6375860  29.7287380  10.6034310  22.1576300  30.0185950
  12.0305140  21.9581510  29.5543540   5.3958040  22.9495670  30.6063140
   4.5642920  22.6944380  31.0059650   6.0039020  23.0206440  31.3421060
  15.3999640  27.0436050  28.5086510  14.9381170  26.2723290  28.8373680
  16.2125190  27.0702120  29.0138960   5.3759300  26.9835760  30.8021160
   5.6787340  26.0933500  30.6231380   6.1202890  27.5405980  30.5743410
   3.8049990  17.9097560  24.3905530   2.9166690  18.2513530  24.2885410
   4.0891180  17.7097880  23.4986360   1.7683000  20.5103210  30.2745230
   2.3399110  19.7425410  30.2748870   1.7684540  20.8091970  29.3651840
  11.6262950  29.3294060  28.1290500  11.0074390  29.7851560  27.5584940
  12.4814730  29.4845520  27.7280200  10.8201200  25.3133050  29.7357540
  10.7509480  24.3722990  29.5746670  11.5821060  25.4034460  30.3080110
   3.0107870  15.9187570  32.0614160   2.8310710  15.0213320  32.3416920
   2.6087950  16.4659440  32.7361110  11.8506370  18.1203430  29.9626470
  12.2271190  17.2475310  29.8500140  11.7525880  18.4562130  29.0716910
   5.9811380  16.4929060  25.4243910   6.0878130  17.3932790  25.7312670
   5.0703740  16.4447030  25.1338560  15.6330490  15.6153870  26.8954810
  16.4540110  15.1250440  26.9380290  15.6664570  16.2051530  27.6486650
   3.6294540  18.4148070  30.6696500   4.3104650  18.6786440  31.2883900
   3.3142590  17.5748940  31.0034510   7.8219110  19.4615430  29.7569090
   8.3297330  19.9596400  30.3974110   8.3532350  18.6850630  29.5808450
  19.9230040  17.6320620  33.4598440  19.2182210  18.0202330  32.9413550
  20.1887960  18.3270910  34.0619370   6.1055210  14.1013990  34.0232510
   6.1073650  14.6186380  33.2178410   5.2759520  13.6244170  34.0002440
  12.4926300  24.2133300  25.5222410  11.8743570  24.6782750  24.9585130
  13.0049550  24.9060780  25.9391920   7.3558060  23.7409170  32.2006010
   7.0227440  24.3678090  32.8427080   7.5324740  24.2671050  31.4207680
  15.8691970  17.5554250  29.6682350  15.1647540  17.8439140  30.2485460
  16.2304130  18.3654360  29.3081910   5.7870540  15.8123950  32.0302960
   6.1287350  16.6566000  31.7356830   4.8486350  15.9607690  32.1468300
   6.5677160  25.7089970  34.0155190   7.1851160  26.3841050  33.7339640
   5.7070280  26.1177950  33.9242690  17.4854750  27.1729380  31.9309830
  16.8018270  27.8428490  31.9226500  18.0249040  27.3710030  31.1654690
  18.9378890  17.0009040  30.0591560  17.9903800  17.0348020  30.1906990
  19.2628880  17.8147990  30.4440920   9.4698430  13.3006220  28.3547550
   9.7773410  12.7453110  27.6383050   8.5399130  13.4350680  28.1720540
  15.0213490  29.0173510  30.6455010  15.0340650  28.6135800  29.7777270
  14.4688710  29.7920800  30.5416440  16.3158910  25.7389730  25.7345180
  16.2055240  24.7964060  25.8594600  16.3127160  26.1005370  26.6207940
  14.4198930  23.9203350  31.9737620  14.8367720  23.7063460  31.1391080
  15.1438750  24.1776140  32.5446240  11.8579190  21.3655050  25.0907670
  10.9308470  21.2992430  25.3196140  12.0104010  22.3035180  24.9762910
  11.8448270  17.6372050  22.0874830  10.9051940  17.7986010  22.1727290
  12.1631530  18.3557730  21.5410820  18.3661030  22.3190570  32.0653860
  17.5379660  22.3883660  31.5903990  18.9611510  22.9044880  31.5969690
  15.8876480  22.9275350  25.5942920  15.2688900  22.5894900  24.9469220
  15.8700930  22.2835110  26.3022110  15.3303040  19.1059890  33.0108730
  14.9174220  19.9313600  33.2648720  14.5978990  18.5204930  32.8185090
   7.4635830  21.8919790  27.8727400   7.0592830  21.1797040  27.3773300
   7.5498950  21.5473030  28.7615440   7.9317530  25.5787350  30.0366610
   7.6345820  24.9732820  29.3574390   8.8817350  25.6164660  29.9255970
   6.1764450  18.6663000  31.6526440   6.7279040  18.7758340  30.8779690
   6.6907960  19.0400600  32.3681670  16.0203140  29.1519220  33.6989710
  15.5433700  29.9591410  33.5062320  15.3364930  28.4997550  33.8515920
   7.0235960  25.3169040  36.6874410   6.1264490  25.5409010  36.9347810
   7.0488830  25.4403980  35.7385810  14.0641180  22.1662160  22.6015670
  14.5034460  21.3284590  22.4553490  14.7769600  22.7991560  22.6879810
   5.8507180  22.1882360  35.2631780   5.7114950  23.0605160  35.6319180
   4.9688540  21.8455170  35.1179720  12.1736560  27.1058230  26.5696910
  12.6132470  27.8482560  26.1552300  12.1123450  27.3484800  27.4935870
   7.6487530  28.1304060  37.4716930   7.6202960  28.5347010  36.6045360
   7.4852500  27.2014420  37.3088530  17.6458320  13.4204970  20.9156710
  17.3330980  13.5131800  21.8155780  18.4070790  13.9986000  20.8654140
   4.1640460  20.7864770  25.3734050   4.0438060  21.5126860  24.7615320
   3.8541350  20.0167680  24.8961960  19.6002350  28.9131160  38.7681100
  20.0762070  29.3914050  39.4470180  20.2209510  28.8448650  38.0426600
   1.8025830  23.9579910  31.1802690   1.8806250  24.0928680  30.2358410
   2.4167510  23.2495800  31.3730810   3.0473460  25.6580100  27.5908870
   2.6401540  25.7994690  26.7362470   3.9386470  25.3740260  27.3880080
  19.0035600  26.1044010  35.9281110  19.1298660  25.8655890  35.0098290
  19.0456980  25.2728550  36.4003190  12.8652340  29.8072010  34.4975920
  13.3797010  29.7180020  35.2998350  12.0221420  30.1531710  34.7903830
  14.8406740  30.0927350  23.9259920  14.6807880  29.8030290  24.8241750
  14.6753450  29.3167480  23.3905150   7.3195120  29.8725880  25.7031540
   7.1437600  28.9561420  25.4899340   6.4650860  30.2313170  25.9429340
  14.5432870  27.6014910  22.4857920  13.8498030  27.5992200  21.8260200
  15.2855730  27.1774230  22.0552090  14.1082800  29.2277620  26.5606410
  14.5639750  28.4467000  26.8745030  14.4475320  29.9384440  27.1047590
  18.8559610  18.1576470  36.8930850  18.2403880  18.6656140  36.3646310
  18.5356030  17.2574800  36.8356790   1.8585350  24.9994080  33.7197150
   2.0216390  24.5299440  32.9016520   2.3237800  24.4917640  34.3845990
   6.6304120  14.1299840  28.7557720   6.1872270  14.9109380  28.4242240
   7.1889110  14.4529730  29.4628660  10.9173930  16.9968360  34.3593040
  10.4553300  17.2051380  35.1712980  10.5152040  16.1827710  34.0563710
  15.9178440  18.2177310  35.4889700  15.0672030  17.9183060  35.8098770
  15.7580230  18.4619320  34.5773520  13.0128150  19.7179060  37.5888490
  13.3381560  18.8842810  37.2490720  13.8008480  20.2407580  37.7366820
   9.7462940  13.7510540  23.6363550   9.1217120  13.7470410  24.3616860
   9.6593060  12.8841500  23.2399520   8.6680020  14.6747170  30.6147320
   8.9652350  15.5810000  30.5339340   9.2165580  14.1865950  30.0006890
   6.4218340  19.2533410  26.4838970   6.1959260  19.0370580  27.3885590
   5.6410870  19.6861870  26.1384940  13.6516100  19.2596780  25.0829620
  13.0524990  19.9832580  24.8993240  14.1995710  19.1973560  24.3006070
   8.8617550  20.1518990  37.1499240   8.7661150  19.2113720  36.9999640
   9.7049530  20.3734060  36.7547310  12.2580970  17.8960320  27.1132900
  12.6510540  18.2132520  26.3001590  12.6197820  17.0172200  27.2277420
   3.9928090  16.5632660  35.3033020   3.5991480  17.4107870  35.5105800
   3.3046490  15.9259030  35.4941660  10.5673140  16.6467630  38.3729760
   9.8771460  16.4539830  39.0075850  11.3105440  16.9302270  38.9054060
  12.8436110  20.4866070  31.2083680  12.1117230  20.9952880  31.5573780
  12.4460450  19.6696050  30.9072460   9.2813500  17.1620270  29.6136170
   9.2849560  16.7210220  28.7640710  10.1764620  17.4837600  29.7207990
   5.1315880  17.0446760  28.5730380   4.7915930  17.5221990  29.3297430
   4.3693200  16.5911880  28.2131480   9.3433650  18.1632350  22.6042930
   9.4646470  18.1218830  23.5528750   8.9582160  19.0256500  22.4489660
  13.3062020  15.9399750  30.6206620  13.3234760  16.3908400  31.4648470
  13.0577600  15.0405390  30.8340060   8.3555150  20.4733490  22.0026230
   7.7872050  20.0251740  21.3762140   9.0644150  20.8326270  21.4691380
  16.7332770  13.3531930  36.4593000  17.0578540  12.6221590  36.9850980
  16.7689280  13.0345570  35.5573990   3.4324330  24.3745510  35.8792960
   3.0479120  23.7339180  36.4775920   3.7436520  25.0781630  36.4487690
   9.5821470  21.2222050  31.3601580   9.9491600  20.7480620  32.1062920
   9.3926530  22.0963620  31.7009920   2.4461960  15.9665740  27.4895050
   2.1608880  15.6021410  28.3273670   2.3840820  15.2346200  26.8758190
   7.3720840  20.2630690  33.6785790   7.0677910  21.1422670  33.9036150
   8.3267300  20.3230480  33.7143230   5.9002630  24.4691680  24.2752640
   5.1264890  23.9289300  24.1151360   6.6297260  23.9498290  23.9370400
  16.6590610  23.4657040  30.0679030  17.3789730  23.9612330  29.6775140
  16.4572430  22.7874930  29.4232900  12.1200550  14.8595000  24.2108420
  11.3065160  14.3608170  24.1353730  11.9262500  15.6993250  23.7944770
  12.0409410  23.5366100  35.9548030  11.9746720  22.6161770  35.7005620
  11.4114550  23.6341540  36.6692670  14.8348940  19.2314650  22.5070580
  15.7228560  19.5431880  22.3321920  14.8054030  18.3586900  22.1151160
   5.9440030  24.1372060  27.9131450   6.4618700  23.3340320  27.8588340
   5.4924050  24.0751200  28.7548280  10.8309530  25.4038340  23.1858750
  11.1725230  26.1480570  22.6902070  10.0022240  25.7169460  23.5483580
   3.4284570  21.1033430  34.8257150   3.0699510  21.7687280  35.4130490
   3.1339130  20.2716980  35.1969770   6.6297690  21.5617670  37.7096700
   6.3297830  21.7074850  36.8124520   7.4008930  21.0022960  37.6170090
  11.9726140  26.3586670  35.7051830  11.9870680  25.4267630  35.4870740
  11.2651240  26.4446430  36.3441600  17.1063210  20.5426490  21.9750440
  17.0226930  20.9740710  21.1246880  17.8257400  21.0024840  22.4077260
  18.1837350  22.9994010  35.0520410  17.4585540  23.5922790  34.8549800
  18.7112810  22.9917550  34.2533780  18.1350460  27.3968750  24.7032570
  17.4926620  26.7424370  24.9776290  17.7481120  27.8023840  23.9273240
  13.7136940  24.7254180  28.5504260  14.0660760  24.1282310  27.8905630
  12.8299270  24.3998410  28.7212510   9.8000220  25.4851870  25.9574670
  10.4871350  26.0321080  26.3382260   9.0132640  26.0292600  25.9924280
   9.1027430  22.4897900  25.5700030   9.5590210  23.3003150  25.7960220
   8.7515640  22.1721040  26.4018520  11.4060040  28.0004240  32.7992330
  12.0502260  28.2063620  33.4765750  11.7689480  27.2392640  32.3463180
   5.0039210  12.8335550  26.0422550   4.8753840  12.8253450  26.9907470
   4.1801230  13.1718640  25.6913560  12.6792120  26.0036590  31.5169780
  13.3214350  25.3029750  31.6301950  13.2041470  26.7835030  31.3366670
  16.5247840  26.2885210  21.2408920  16.2985420  25.5715650  21.8333560
  16.1344040  26.0397650  20.4030670  14.4529740  26.8031490  34.7205840
  14.7885980  27.3898180  35.3983760  13.5330080  26.6724200  34.9503630
   2.3063870  30.3152070  22.0153380   2.6661510  30.9141410  21.3610650
   2.1656210  30.8611960  22.7888410  16.1064090  24.2057150  22.9023080
  15.8185790  24.6669840  23.6900960  16.9016260  23.7454920  23.1707300
   2.2905730  28.5806930  36.4895780   2.3996850  27.6401670  36.3491170
   1.6386290  28.8461680  35.8409510  10.2818320  26.8522820  37.8893900
   9.9615190  26.1332060  38.4339590   9.6076680  27.5277890  37.9629960
   8.3232490  27.6983270  22.8327050   8.3142590  28.4312960  22.2171560
   7.4030850  27.4514850  22.9254010   3.9239130  22.9198160  23.5773810
   3.3167080  23.6597060  23.5869110   4.3988480  23.0097520  22.7512010
  13.4971920  17.0848980  33.2530700  13.8652740  16.2644190  33.5810270
  12.6370120  17.1450870  33.6686350  16.8633950  16.0405920  24.0618260
  16.2347110  16.1451590  23.3476490  16.3685870  16.2602700  24.8512140
  11.3092090  27.7611510  21.4952240  11.4104070  27.5575500  20.5654220
  10.4093830  27.5069790  21.7000020   8.8317980  18.3191870  25.4776140
   8.1234130  18.7878210  25.9189750   9.1162460  17.6613880  26.1121330
  10.4573910  19.7388570  33.4768670  10.9559160  20.2134390  34.1420520
  10.5996860  18.8152090  33.6838700  12.8633410  15.0442530  26.9171930
  12.7401190  15.0628660  25.9681440  13.8117970  15.0921470  27.0370330
   9.9510200  30.2797830  26.1899910  10.2051700  30.2419220  25.2679280
   9.0022680  30.1531160  26.1828160   7.0353000  16.6276950  22.8526850
   7.8843530  17.0647100  22.7867040   6.6684270  16.9397210  23.6798910
  17.6640770  15.9556530  34.3197060  17.1614370  16.6961930  34.6590870
  18.4797430  16.3440530  34.0033850  15.9562780  21.1989710  27.7658420
  15.0152920  21.2139940  27.9406110  16.2706850  20.4125670  28.2118720
   5.9344420  22.8809310  21.3262380   6.7007690  22.7690670  21.8887810
   6.0119110  22.1847280  20.6739150   4.6291180  20.3134380  22.0095270
   4.7094770  19.3661890  22.1212670   5.5210930  20.6441260  22.1155930
  17.9588360  28.3698560  29.4412680  18.0835780  29.1929730  29.9136490
  18.8253920  28.1589290  29.0936830   5.4305890  30.4629770  29.1129810
   6.1668370  29.9145230  29.3838380   5.8146810  31.3285780  28.9735800
   4.4364170  29.6475840  38.3015390   5.2376900  29.9687890  38.7150790
   3.9215990  29.2871420  39.0235300   8.5408200  29.6360080  20.9355380
   9.3336810  29.9248910  20.4837170   8.0212550  29.2052250  20.2567860
  13.2728800  25.7555710  38.2490800  12.6666960  25.7787310  37.5086550
  12.9682910  25.0238750  38.7858050  14.7029170  29.4836000  36.8600210
  15.6550920  29.3994020  36.8100450  14.5557390  30.1477710  37.5334000
  17.5938370  28.8630210  22.3592120  17.3079880  28.4495350  21.5446300
  17.3957920  29.7917920  22.2392640   9.0585600  24.8563490  20.7997730
   8.9536240  24.2415840  21.5259110   8.8909820  24.3329380  20.0160740
   9.2099920  23.5420290  36.7786960   8.4445590  24.1105290  36.6941630
   9.3915880  23.2496500  35.8855190  12.2988330  23.9183520  21.4039720
  11.7498430  24.3652820  22.0482460  12.9207590  23.4132770  21.9277390
  16.3523270  25.2725620  37.3361980  17.0932740  25.6101380  36.8329440
  15.5895950  25.4417680  36.7831750   4.1885060  20.2778890  38.1401510
   4.2290400  19.9792760  39.0486740   5.0430560  20.6786500  37.9809030
   7.9663450  22.8774440  23.3005020   8.3879870  22.7114310  24.1436410
   8.0914290  22.0674670  22.8060160   6.1290870  18.8570990  36.1076000
   5.5987330  18.3661940  35.4799340   6.7978940  19.2855190  35.5733930
  10.4791090  21.9012050  20.5482120  10.9996750  21.1861070  20.1823270
  11.1259490  22.5397920  20.8482630  15.0268930  23.3240450  35.8717190
  15.4409950  23.4785530  36.7207610  14.0919930  23.4495670  36.0342970
  15.4991100  20.6636610  37.8756340  16.0811870  19.9088930  37.7876820
  15.6752870  21.1944050  37.0987820   6.6163170  15.8233360  36.1873290
   6.5220040  15.2054110  35.4624160   6.0360560  16.5499650  35.9603200
   9.3824610  14.3806600  33.2200680   8.9341910  14.4030860  32.3746230
   8.7489810  13.9825620  33.8170980   9.7884160  23.2760930  33.8413120
  10.2072270  24.1193660  33.6689360   8.8692790  23.4132970  33.6119900
  12.1248060  21.0077110  35.2250960  12.2444270  20.4118250  35.9645800
  12.9842060  21.0446800  34.8052260  14.4635960  21.5614300  33.8013470
  13.9371180  22.0856920  33.1978610  14.8067300  22.1941690  34.4323200
   6.8622350  18.9507670  20.2463180   6.6611410  18.0875030  20.6076520
   6.6914400  18.8641030  19.3084780   7.6391580  29.5813940  34.9570850
   7.1012670  30.3060000  34.6379550   7.8925540  29.1044280  34.1668190
   8.8916830  17.5498460  36.4826780   9.4816520  17.2414310  37.1704600
   8.0737070  17.0778210  36.6386680  13.7110260  17.1664270  36.7159800
  13.0225780  16.5045810  36.6509790  14.4316280  16.7202540  37.1608260
  14.3410660  13.7615900  22.7750060  14.6212950  12.9183800  23.1309480
  13.5676390  13.9939010  23.2888810   5.6605150  16.0508290  20.2341060
   5.9631050  16.0575720  19.3260210   6.3999740  15.7006150  20.7308720
  10.4953790  30.8165150  35.2157500  10.4212490  31.7200290  35.5229870
   9.5932630  30.4977050  35.1879570   8.8790080  14.9942910  21.2197260
   8.5312080  14.3166900  20.6399710   9.0802850  14.5332420  22.0340650
  11.0439120  29.9823660  22.8383860  11.9389910  30.3208630  22.8602620
  11.0756750  29.2603070  22.2108140   4.6835280  25.3550710  21.0670860
   5.1210150  25.8980380  21.7228440   5.1683010  24.5297660  21.0767200
   1.8981080  28.1439740  28.5191120   2.2284090  27.2760800  28.2869760
   2.3272080  28.3498260  29.3496080   6.4943000  26.4748750  26.1793090
   6.1938540  26.3513720  27.0797000   6.3880490  25.6157340  25.7708820
   2.3871290  29.0110330  31.2572750   1.9502280  29.1911130  32.0896900
   2.9548970  29.7684950  31.1154470  18.0233470  28.5127330  35.5450060
  17.4235460  28.5719890  34.8013980  18.1527370  27.5732310  35.6746910
  19.2634920  26.2545150  20.8819770  18.4327880  26.3221800  21.3527000
  19.4406750  27.1449270  20.5786630  18.7191380  22.9992630  23.3853970
  19.4810290  23.5689280  23.4913660  18.7345750  22.4319830  24.1562280
  19.7251350  23.8542730  28.2295900  20.0960180  23.0710050  27.8231870
  20.3653280  24.5431830  28.0513200  16.7085110  25.2379310  33.6426220
  15.8944950  25.6676470  33.9052010  17.1159310  25.8497720  33.0295270
  18.7710550  23.2927000  20.5426490  19.0459390  24.2005880  20.4145710
  18.5821290  23.2289530  21.4788480  15.1686160  16.3171850  21.8380120
  15.5871040  16.1302830  20.9976780  14.8622220  15.4650900  22.1483050
  18.6675890  21.2295990  25.5355920  18.2919490  20.4623920  25.1037210
  17.9379010  21.6118690  26.0230850   3.2571650  21.9083130  32.1564970
   3.6244690  21.8210530  33.0360990   2.6882470  21.1449680  32.0571830
  18.0575510  20.3767510  35.1695440  17.8261600  20.1480260  34.2693390
  18.3180060  21.2967060  35.1240330   2.8087650  18.8192220  36.0623390
   1.9143700  18.7858980  36.4017100   3.3485200  19.0179010  36.8274640
  16.4963580  15.6023940  37.9475140  17.3733760  15.6107340  38.3309140
  16.5084420  14.8654780  37.3367490  17.9426850  19.4553480  28.8363160
  18.4664330  18.9616130  28.2053330  18.5286270  19.5903840  29.5810730
  18.1216570  19.5393350  32.3582710  17.1719280  19.5056890  32.4727700
  18.3029580  20.4493460  32.1232480   3.9761010  17.7895030  21.4681340
   4.6852710  17.3678250  20.9828620   3.2600950  17.8570260  20.8364690
   3.6235170  13.8434360  20.5083990   4.3463300  14.3843300  20.8265210
   3.8959690  13.5697780  19.6325530  17.4326820  18.7126830  24.7755570
  17.9285940  18.4797700  25.5604450  17.2342890  17.8738670  24.3593210
   3.3127360  13.0940550  30.4106610   3.9603550  12.5437930  29.9701770
   3.7329200  13.3483700  31.2322420  18.8613980  17.3487780  27.3093250
  18.7513260  17.1943820  28.2475520  19.6221570  16.8208720  27.0668660
  17.2079700  13.2881910  33.7676250  17.8451920  13.9016050  34.1335440
  17.3554590  13.3242570  32.8225480  19.7504250  15.1795700  20.5499390
  20.6753560  15.0476880  20.3417680  19.7280040  15.2588520  21.5035840
  19.8242740  15.9506360  23.1756100  19.0294240  15.8851480  23.7049010
  20.0286020  16.8857000  23.1641450  16.7661160  29.9897910  27.1694490
  17.3620230  29.6682480  26.4928910  17.0239310  29.5169730  27.9607760
   3.0659360  13.2496220  33.1531930   2.7174180  13.7060040  33.9190110
   2.7347060  12.3553350  33.2354360   4.6723730  26.4215820  37.3185120
   4.6293360  26.0508730  38.1999580   4.8034740  27.3593390  37.4586940
   8.3729760  27.9775410  32.9194840   8.1321120  28.2449970  32.0325360
   9.3132400  28.1481140  32.9745700  10.5784180  14.4408100  36.6751350
  10.5173070  15.0329930  37.4246760  11.5184560  14.3334060  36.5301610
  13.2158740  14.0978160  36.3143640  13.8299150  14.4157450  35.6524720
  13.7608300  13.6126750  36.9339500  19.6333920  29.9969790  33.7205480
  19.1392200  30.3938660  33.0032610  19.0247210  29.3719000  34.1142760
   3.7380000  12.7772420  36.4282700   4.2862990  12.5960470  35.6648810
   3.8035310  11.9866530  36.9639010   4.5111760  29.3678070  34.4382900
   3.9172080  29.2362770  35.1772940   4.5035600  28.5316210  33.9725000
  13.9566780  12.6610300  32.6412930  13.0826620  12.9945410  32.4385860
  13.8477530  12.1883480  33.4664800  14.8638760  14.8681170  34.0254650
  14.5352120  14.0532930  33.6456380  15.8121060  14.8250980  33.9020340
  17.3173370  30.6393210  30.9992220  16.8576340  31.3909020  30.6250240
  16.6885830  29.9199680  30.9407020   4.1423990  26.7336450  33.3890940
   3.4158050  26.1141740  33.3216890   4.2033140  27.1277060  32.5189020
   7.7469090  28.9481450  30.1740350   8.2634110  28.3368810  29.6488610
   8.3966470  29.4510230  30.6651360  10.4864590  29.8389940  31.0009330
  10.7742400  29.5844240  30.1242340  10.9987810  29.2867300  31.5914900
  11.7041600  13.5780140  31.5805840  10.9213390  14.0525640  31.8602600
  11.4104530  12.6734970  31.4719020  16.2562670  14.2803240  29.6254930
  16.6970760  14.2248340  28.7776530  15.9870260  15.1961250  29.6965110
  18.1201240  13.9118480  27.6363750  18.0589640  12.9679700  27.4894770
  18.8993270  14.0198570  28.1817210   3.0482010  13.8827620  24.1019560
   3.8061370  13.9956500  23.5283590   2.5859180  14.7196820  24.0562990
   9.5895820  15.9966890  27.0921870   8.7770330  15.6223780  26.7517750
  10.0937460  15.2411970  27.3943060  14.0920800  12.6609340  28.3304940
  14.6950170  13.2329550  28.8053460  13.3513790  13.2248780  28.1078840
  17.2355400  13.0630900  23.6045220  17.4306030  13.9614350  23.8712650
  16.4485270  12.8317980  24.0978170   4.0316690  28.7444070  24.0437840
   3.5064310  29.1252100  23.3399800   3.9561270  29.3694840  24.7647550
   5.4207160  14.4091670  22.6421530   5.9499920  13.6221470  22.5129480
   6.0535480  15.0882860  22.8757060   7.6145000  14.1466810  25.6966920
   6.9847740  13.4454120  25.8637050   7.0750140  14.9070940  25.4800080
  10.5536950  30.7606040  38.3677530  11.4804260  30.5250310  38.4113490
  10.5387380  31.5878040  37.8863560   7.7400560  13.4250790  38.1319410
   7.4584830  13.9284390  37.3680230   8.1220260  12.6272540  37.7661540
   6.6309660  30.6926450  22.9187090   7.3628480  30.4085730  22.3710980
   6.8903330  30.4539730  23.8086470   5.7924450  26.8091180  22.9233420
   5.1633330  27.2776280  23.4719250   5.9072280  25.9640400  23.3579610
  14.3416020  12.8404370  38.7099880  14.2281470  13.1598980  39.6051400
  15.1585760  13.2416880  38.4137160  17.1214510  29.9875900  38.1918570
  17.9139830  29.4925130  37.9844530  17.4147660  30.6666040  38.7994180
  13.2474170  20.8596840   9.0734620  13.1668220  19.9451450   8.8026330
  12.8338590  21.3563910   8.3674330  11.3792210  22.6375860  10.9543890
  10.6034310  22.1576300  11.2442460  12.0305140  21.9581510  10.7800050
   5.3958040  22.9495670  11.8319650   4.5642920  22.6944380  12.2316160
   6.0039020  23.0206440  12.5677570  15.3999640  27.0436050   9.7343020
  14.9381170  26.2723290  10.0630190  16.2125190  27.0702120  10.2395470
   5.3759300  26.9835760  12.0277670   5.6787340  26.0933500  11.8487890
   6.1202890  27.5405980  11.7999920   3.8049990  17.9097560   5.6162040
   2.9166690  18.2513530   5.5141920   4.0891180  17.7097880   4.7242870
   1.7683000  20.5103210  11.5001740   2.3399110  19.7425410  11.5005380
   1.7684540  20.8091970  10.5908350  11.6262950  29.3294060   9.3547010
  11.0074390  29.7851560   8.7841450  12.4814730  29.4845520   8.9536710
  10.8201200  25.3133050  10.9614050  10.7509480  24.3722990  10.8003180
  11.5821060  25.4034460  11.5336620   3.0107870  15.9187570  13.2870670
   2.8310710  15.0213320  13.5673430   2.6087950  16.4659440  13.9617620
  11.8506370  18.1203430  11.1882980  12.2271190  17.2475310  11.0756650
  11.7525880  18.4562130  10.2973420   5.9811380  16.4929060   6.6500420
   6.0878130  17.3932790   6.9569180   5.0703740  16.4447030   6.3595070
  15.6330490  15.6153870   8.1211320  16.4540110  15.1250440   8.1636800
  15.6664570  16.2051530   8.8743160   3.6294540  18.4148070  11.8953010
   4.3104650  18.6786440  12.5140410   3.3142590  17.5748940  12.2291020
   7.8219110  19.4615430  10.9825600   8.3297330  19.9596400  11.6230620
   8.3532350  18.6850630  10.8064960  19.9230040  17.6320620  14.6854950
  19.2182210  18.0202330  14.1670060  20.1887960  18.3270910  15.2875880
   6.1055210  14.1013990  15.2489020   6.1073650  14.6186380  14.4434920
   5.2759520  13.6244170  15.2258950  12.4926300  24.2133300   6.7478920
  11.8743570  24.6782750   6.1841640  13.0049550  24.9060780   7.1648430
   7.3558060  23.7409170  13.4262520   7.0227440  24.3678090  14.0683590
   7.5324740  24.2671050  12.6464190  15.8691970  17.5554250  10.8938860
  15.1647540  17.8439140  11.4741970  16.2304130  18.3654360  10.5338420
   5.7870540  15.8123950  13.2559470   6.1287350  16.6566000  12.9613340
   4.8486350  15.9607690  13.3724810   6.5677160  25.7089970  15.2411700
   7.1851160  26.3841050  14.9596150   5.7070280  26.1177950  15.1499200
  17.4854750  27.1729380  13.1566340  16.8018270  27.8428490  13.1483010
  18.0249040  27.3710030  12.3911200  18.9378890  17.0009040  11.2848070
  17.9903800  17.0348020  11.4163500  19.2628880  17.8147990  11.6697430
   9.4698430  13.3006220   9.5804060   9.7773410  12.7453110   8.8639560
   8.5399130  13.4350680   9.3977050  15.0213490  29.0173510  11.8711520
  15.0340650  28.6135800  11.0033780  14.4688710  29.7920800  11.7672950
  16.3158910  25.7389730   6.9601690  16.2055240  24.7964060   7.0851110
  16.3127160  26.1005370   7.8464450  14.4198930  23.9203350  13.1994130
  14.8367720  23.7063460  12.3647590  15.1438750  24.1776140  13.7702750
  11.8579190  21.3655050   6.3164180  10.9308470  21.2992430   6.5452650
  12.0104010  22.3035180   6.2019420  11.8448270  17.6372050   3.3131340
  10.9051940  17.7986010   3.3983800  12.1631530  18.3557730   2.7667330
  18.3661030  22.3190570  13.2910370  17.5379660  22.3883660  12.8160500
  18.9611510  22.9044880  12.8226200  15.8876480  22.9275350   6.8199430
  15.2688900  22.5894900   6.1725730  15.8700930  22.2835110   7.5278620
  15.3303040  19.1059890  14.2365240  14.9174220  19.9313600  14.4905230
  14.5978990  18.5204930  14.0441600   7.4635830  21.8919790   9.0983910
   7.0592830  21.1797040   8.6029810   7.5498950  21.5473030   9.9871950
   7.9317530  25.5787350  11.2623120   7.6345820  24.9732820  10.5830900
   8.8817350  25.6164660  11.1512480   6.1764450  18.6663000  12.8782950
   6.7279040  18.7758340  12.1036200   6.6907960  19.0400600  13.5938180
  16.0203140  29.1519220  14.9246220  15.5433700  29.9591410  14.7318830
  15.3364930  28.4997550  15.0772430   7.0235960  25.3169040  17.9130920
   6.1264490  25.5409010  18.1604320   7.0488830  25.4403980  16.9642320
  14.0641180  22.1662160   3.8272180  14.5034460  21.3284590   3.6810000
  14.7769600  22.7991560   3.9136320   5.8507180  22.1882360  16.4888290
   5.7114950  23.0605160  16.8575690   4.9688540  21.8455170  16.3436230
  12.1736560  27.1058230   7.7953420  12.6132470  27.8482560   7.3808810
  12.1123450  27.3484800   8.7192380   7.6487530  28.1304060  18.6973440
   7.6202960  28.5347010  17.8301870   7.4852500  27.2014420  18.5345040
  17.6458320  13.4204970   2.1413220  17.3330980  13.5131800   3.0412290
  18.4070790  13.9986000   2.0910650   4.1640460  20.7864770   6.5990560
   4.0438060  21.5126860   5.9871830   3.8541350  20.0167680   6.1218470
   1.8025830  23.9579910  12.4059200   1.8806250  24.0928680  11.4614920
   2.4167510  23.2495800  12.5987320   3.0473460  25.6580100   8.8165380
   2.6401540  25.7994690   7.9618980   3.9386470  25.3740260   8.6136590
  19.0035600  26.1044010  17.1537620  19.1298660  25.8655890  16.2354800
  19.0456980  25.2728550  17.6259700  12.8652340  29.8072010  15.7232430
  13.3797010  29.7180020  16.5254860  12.0221420  30.1531710  16.0160340
  14.8406740  30.0927350   5.1516430  14.6807880  29.8030290   6.0498260
  14.6753450  29.3167480   4.6161660   7.3195120  29.8725880   6.9288050
   7.1437600  28.9561420   6.7155850   6.4650860  30.2313170   7.1685850
  14.5432870  27.6014910   3.7114430  13.8498030  27.5992200   3.0516710
  15.2855730  27.1774230   3.2808600  14.1082800  29.2277620   7.7862920
  14.5639750  28.4467000   8.1001540  14.4475320  29.9384440   8.3304100
  18.8559610  18.1576470  18.1187360  18.2403880  18.6656140  17.5902820
  18.5356030  17.2574800  18.0613300   1.8585350  24.9994080  14.9453660
   2.0216390  24.5299440  14.1273030   2.3237800  24.4917640  15.6102500
   6.6304120  14.1299840   9.9814230   6.1872270  14.9109380   9.6498750
   7.1889110  14.4529730  10.6885170  10.9173930  16.9968360  15.5849550
  10.4553300  17.2051380  16.3969490  10.5152040  16.1827710  15.2820220
  15.9178440  18.2177310  16.7146210  15.0672030  17.9183060  17.0355280
  15.7580230  18.4619320  15.8030030  13.0128150  19.7179060  18.8145000
  13.3381560  18.8842810  18.4747230  13.8008480  20.2407580  18.9623330
   9.7462940  13.7510540   4.8620060   9.1217120  13.7470410   5.5873370
   9.6593060  12.8841500   4.4656030   8.6680020  14.6747170  11.8403830
   8.9652350  15.5810000  11.7595850   9.2165580  14.1865950  11.2263400
   6.4218340  19.2533410   7.7095480   6.1959260  19.0370580   8.6142100
   5.6410870  19.6861870   7.3641450  13.6516100  19.2596780   6.3086130
  13.0524990  19.9832580   6.1249750  14.1995710  19.1973560   5.5262580
   8.8617550  20.1518990  18.3755750   8.7661150  19.2113720  18.2256150
   9.7049530  20.3734060  17.9803820  12.2580970  17.8960320   8.3389410
  12.6510540  18.2132520   7.5258100  12.6197820  17.0172200   8.4533930
   3.9928090  16.5632660  16.5289530   3.5991480  17.4107870  16.7362310
   3.3046490  15.9259030  16.7198170  10.5673140  16.6467630  19.5986270
   9.8771460  16.4539830  20.2332360  11.3105440  16.9302270  20.1310570
  12.8436110  20.4866070  12.4340190  12.1117230  20.9952880  12.7830290
  12.4460450  19.6696050  12.1328970   9.2813500  17.1620270  10.8392680
   9.2849560  16.7210220   9.9897220  10.1764620  17.4837600  10.9464500
   5.1315880  17.0446760   9.7986890   4.7915930  17.5221990  10.5553940
   4.3693200  16.5911880   9.4387990   9.3433650  18.1632350   3.8299440
   9.4646470  18.1218830   4.7785260   8.9582160  19.0256500   3.6746170
  13.3062020  15.9399750  11.8463130  13.3234760  16.3908400  12.6904980
  13.0577600  15.0405390  12.0596570   8.3555150  20.4733490   3.2282740
   7.7872050  20.0251740   2.6018650   9.0644150  20.8326270   2.6947890
  16.7332770  13.3531930  17.6849510  17.0578540  12.6221590  18.2107490
  16.7689280  13.0345570  16.7830500   3.4324330  24.3745510  17.1049470
   3.0479120  23.7339180  17.7032430   3.7436520  25.0781630  17.6744200
   9.5821470  21.2222050  12.5858090   9.9491600  20.7480620  13.3319430
   9.3926530  22.0963620  12.9266430   2.4461960  15.9665740   8.7151560
   2.1608880  15.6021410   9.5530180   2.3840820  15.2346200   8.1014700
   7.3720840  20.2630690  14.9042300   7.0677910  21.1422670  15.1292660
   8.3267300  20.3230480  14.9399740   5.9002630  24.4691680   5.5009150
   5.1264890  23.9289300   5.3407870   6.6297260  23.9498290   5.1626910
  16.6590610  23.4657040  11.2935540  17.3789730  23.9612330  10.9031650
  16.4572430  22.7874930  10.6489410  12.1200550  14.8595000   5.4364930
  11.3065160  14.3608170   5.3610240  11.9262500  15.6993250   5.0201280
  12.0409410  23.5366100  17.1804540  11.9746720  22.6161770  16.9262130
  11.4114550  23.6341540  17.8949180  14.8348940  19.2314650   3.7327090
  15.7228560  19.5431880   3.5578430  14.8054030  18.3586900   3.3407670
   5.9440030  24.1372060   9.1387960   6.4618700  23.3340320   9.0844850
   5.4924050  24.0751200   9.9804790  10.8309530  25.4038340   4.4115260
  11.1725230  26.1480570   3.9158580  10.0022240  25.7169460   4.7740090
   3.4284570  21.1033430  16.0513660   3.0699510  21.7687280  16.6387000
   3.1339130  20.2716980  16.4226280   6.6297690  21.5617670  18.9353210
   6.3297830  21.7074850  18.0381030   7.4008930  21.0022960  18.8426600
  11.9726140  26.3586670  16.9308340  11.9870680  25.4267630  16.7127250
  11.2651240  26.4446430  17.5698110  17.1063210  20.5426490   3.2006950
  17.0226930  20.9740710   2.3503390  17.8257400  21.0024840   3.6333770
  18.1837350  22.9994010  16.2776920  17.4585540  23.5922790  16.0806310
  18.7112810  22.9917550  15.4790290  18.1350460  27.3968750   5.9289080
  17.4926620  26.7424370   6.2032800  17.7481120  27.8023840   5.1529750
  13.7136940  24.7254180   9.7760770  14.0660760  24.1282310   9.1162140
  12.8299270  24.3998410   9.9469020   9.8000220  25.4851870   7.1831180
  10.4871350  26.0321080   7.5638770   9.0132640  26.0292600   7.2180790
   9.1027430  22.4897900   6.7956540   9.5590210  23.3003150   7.0216730
   8.7515640  22.1721040   7.6275030  11.4060040  28.0004240  14.0248840
  12.0502260  28.2063620  14.7022260  11.7689480  27.2392640  13.5719690
   5.0039210  12.8335550   7.2679060   4.8753840  12.8253450   8.2163980
   4.1801230  13.1718640   6.9170070  12.6792120  26.0036590  12.7426290
  13.3214350  25.3029750  12.8558460  13.2041470  26.7835030  12.5623180
  16.5247840  26.2885210   2.4665430  16.2985420  25.5715650   3.0590070
  16.1344040  26.0397650   1.6287180  14.4529740  26.8031490  15.9462350
  14.7885980  27.3898180  16.6240270  13.5330080  26.6724200  16.1760140
   2.3063870  30.3152070   3.2409890   2.6661510  30.9141410   2.5867160
   2.1656210  30.8611960   4.0144920  16.1064090  24.2057150   4.1279590
  15.8185790  24.6669840   4.9157470  16.9016260  23.7454920   4.3963810
   2.2905730  28.5806930  17.7152290   2.3996850  27.6401670  17.5747680
   1.6386290  28.8461680  17.0666020  10.2818320  26.8522820  19.1150410
   9.9615190  26.1332060  19.6596100   9.6076680  27.5277890  19.1886470
   8.3232490  27.6983270   4.0583560   8.3142590  28.4312960   3.4428070
   7.4030850  27.4514850   4.1510520   3.9239130  22.9198160   4.8030320
   3.3167080  23.6597060   4.8125620   4.3988480  23.0097520   3.9768520
  13.4971920  17.0848980  14.4787210  13.8652740  16.2644190  14.8066780
  12.6370120  17.1450870  14.8942860  16.8633950  16.0405920   5.2874770
  16.2347110  16.1451590   4.5733000  16.3685870  16.2602700   6.0768650
  11.3092090  27.7611510   2.7208750  11.4104070  27.5575500   1.7910730
  10.4093830  27.5069790   2.9256530   8.8317980  18.3191870   6.7032650
   8.1234130  18.7878210   7.1446260   9.1162460  17.6613880   7.3377840
  10.4573910  19.7388570  14.7025180  10.9559160  20.2134390  15.3677030
  10.5996860  18.8152090  14.9095210  12.8633410  15.0442530   8.1428440
  12.7401190  15.0628660   7.1937950  13.8117970  15.0921470   8.2626840
   9.9510200  30.2797830   7.4156420  10.2051700  30.2419220   6.4935790
   9.0022680  30.1531160   7.4084670   7.0353000  16.6276950   4.0783360
   7.8843530  17.0647100   4.0123550   6.6684270  16.9397210   4.9055420
  17.6640770  15.9556530  15.5453570  17.1614370  16.6961930  15.8847380
  18.4797430  16.3440530  15.2290360  15.9562780  21.1989710   8.9914930
  15.0152920  21.2139940   9.1662620  16.2706850  20.4125670   9.4375230
   5.9344420  22.8809310   2.5518890   6.7007690  22.7690670   3.1144320
   6.0119110  22.1847280   1.8995660   4.6291180  20.3134380   3.2351780
   4.7094770  19.3661890   3.3469180   5.5210930  20.6441260   3.3412440
  17.9588360  28.3698560  10.6669190  18.0835780  29.1929730  11.1393000
  18.8253920  28.1589290  10.3193340   5.4305890  30.4629770  10.3386320
   6.1668370  29.9145230  10.6094890   5.8146810  31.3285780  10.1992310
   4.4364170  29.6475840  19.5271900   5.2376900  29.9687890  19.9407300
   3.9215990  29.2871420  20.2491810   8.5408200  29.6360080   2.1611890
   9.3336810  29.9248910   1.7093680   8.0212550  29.2052250   1.4824370
  13.2728800  25.7555710  19.4747310  12.6666960  25.7787310  18.7343060
  12.9682910  25.0238750  20.0114560  14.7029170  29.4836000  18.0856720
  15.6550920  29.3994020  18.0356960  14.5557390  30.1477710  18.7590510
  17.5938370  28.8630210   3.5848630  17.3079880  28.4495350   2.7702810
  17.3957920  29.7917920   3.4649150   9.2099920  23.5420290  18.0043470
   8.4445590  24.1105290  17.9198140   9.3915880  23.2496500  17.1111700
  12.2988330  23.9183520   2.6296230  11.7498430  24.3652820   3.2738970
  12.9207590  23.4132770   3.1533900  16.3523270  25.2725620  18.5618490
  17.0932740  25.6101380  18.0585950  15.5895950  25.4417680  18.0088260
   4.1885060  20.2778890  19.3658020   4.2290400  19.9792760  20.2743250
   5.0430560  20.6786500  19.2065540   7.9663450  22.8774440   4.5261530
   8.3879870  22.7114310   5.3692920   8.0914290  22.0674670   4.0316670
   6.1290870  18.8570990  17.3332510   5.5987330  18.3661940  16.7055850
   6.7978940  19.2855190  16.7990440  15.0268930  23.3240450  17.0973700
  15.4409950  23.4785530  17.9464120  14.0919930  23.4495670  17.2599480
  15.4991100  20.6636610  19.1012850  16.0811870  19.9088930  19.0133330
  15.6752870  21.1944050  18.3244330   6.6163170  15.8233360  17.4129800
   6.5220040  15.2054110  16.6880670   6.0360560  16.5499650  17.1859710
   9.3824610  14.3806600  14.4457190   8.9341910  14.4030860  13.6002740
   8.7489810  13.9825620  15.0427490   9.7884160  23.2760930  15.0669630
  10.2072270  24.1193660  14.8945870   8.8692790  23.4132970  14.8376410
  12.1248060  21.0077110  16.4507470  12.2444270  20.4118250  17.1902310
  12.9842060  21.0446800  16.0308770  14.4635960  21.5614300  15.0269980
  13.9371180  22.0856920  14.4235120  14.8067300  22.1941690  15.6579710
   7.6391580  29.5813940  16.1827360   7.1012670  30.3060000  15.8636060
   7.8925540  29.1044280  15.3924700   8.8916830  17.5498460  17.7083290
   9.4816520  17.2414310  18.3961110   8.0737070  17.0778210  17.8643190
  13.7110260  17.1664270  17.9416310  13.0225780  16.5045810  17.8766300
  14.4316280  16.7202540  18.3864770  14.3410660  13.7615900   4.0006570
  14.6212950  12.9183800   4.3565990  13.5676390  13.9939010   4.5145320
  10.4953790  30.8165150  16.4414010  10.4212490  31.7200290  16.7486380
   9.5932630  30.4977050  16.4136080   8.8790080  14.9942910   2.4453770
   8.5312080  14.3166900   1.8656220   9.0802850  14.5332420   3.2597160
  11.0439120  29.9823660   4.0640370  11.9389910  30.3208630   4.0859130
  11.0756750  29.2603070   3.4364650   4.6835280  25.3550710   2.2927370
   5.1210150  25.8980380   2.9484950   5.1683010  24.5297660   2.3023710
   1.8981080  28.1439740   9.7447630   2.2284090  27.2760800   9.5126270
   2.3272080  28.3498260  10.5752590   6.4943000  26.4748750   7.4049600
   6.1938540  26.3513720   8.3053510   6.3880490  25.6157340   6.9965330
   2.3871290  29.0110330  12.4829260   1.9502280  29.1911130  13.3153410
   2.9548970  29.7684950  12.3410980  18.0233470  28.5127330  16.7706570
  17.4235460  28.5719890  16.0270490  18.1527370  27.5732310  16.9003420
  19.2634920  26.2545150   2.1076280  18.4327880  26.3221800   2.5783510
  19.4406750  27.1449270   1.8043140  18.7191380  22.9992630   4.6110480
  19.4810290  23.5689280   4.7170170  18.7345750  22.4319830   5.3818790
  19.7251350  23.8542730   9.4552410  20.0960180  23.0710050   9.0488380
  20.3653280  24.5431830   9.2769710  16.7085110  25.2379310  14.8682730
  15.8944950  25.6676470  15.1308520  17.1159310  25.8497720  14.2551780
  18.7710550  23.2927000   1.7683000  19.0459390  24.2005880   1.6402220
  18.5821290  23.2289530   2.7044990  15.1686160  16.3171850   3.0636630
  15.5871040  16.1302830   2.2233290  14.8622220  15.4650900   3.3739560
  18.6675890  21.2295990   6.7612430  18.2919490  20.4623920   6.3293720
  17.9379010  21.6118690   7.2487360   3.2571650  21.9083130  13.3821480
   3.6244690  21.8210530  14.2617500   2.6882470  21.1449680  13.2828340
  18.0575510  20.3767510  16.3951950  17.8261600  20.1480260  15.4949900
  18.3180060  21.2967060  16.3496840   2.8087650  18.8192220  17.2879900
   1.9143700  18.7858980  17.6273610   3.3485200  19.0179010  18.0531150
  16.4963580  15.6023940  19.1731650  17.3733760  15.6107340  19.5565650
  16.5084420  14.8654780  18.5624000  17.9426850  19.4553480  10.0619670
  18.4664330  18.9616130   9.4309840  18.5286270  19.5903840  10.8067240
  18.1216570  19.5393350  13.5839220  17.1719280  19.5056890  13.6984210
  18.3029580  20.4493460  13.3488990   3.9761010  17.7895030   2.6937850
   4.6852710  17.3678250   2.2085130   3.2600950  17.8570260   2.0621200
  17.4326820  18.7126830   6.0012080  17.9285940  18.4797700   6.7860960
  17.2342890  17.8738670   5.5849720   3.3127360  13.0940550  11.6363120
   3.9603550  12.5437930  11.1958280   3.7329200  13.3483700  12.4578930
  18.8613980  17.3487780   8.5349760  18.7513260  17.1943820   9.4732030
  19.6221570  16.8208720   8.2925170  17.2079700  13.2881910  14.9932760
  17.8451920  13.9016050  15.3591950  17.3554590  13.3242570  14.0481990
  19.7504250  15.1795700   1.7755900  20.6753560  15.0476880   1.5674190
  19.7280040  15.2588520   2.7292350  19.8242740  15.9506360   4.4012610
  19.0294240  15.8851480   4.9305520  20.0286020  16.8857000   4.3897960
  16.7661160  29.9897910   8.3951000  17.3620230  29.6682480   7.7185420
  17.0239310  29.5169730   9.1864270   3.0659360  13.2496220  14.3788440
   2.7174180  13.7060040  15.1446620   2.7347060  12.3553350  14.4610870
   4.6723730  26.4215820  18.5441630   4.6293360  26.0508730  19.4256090
   4.8034740  27.3593390  18.6843450   8.3729760  27.9775410  14.1451350
   8.1321120  28.2449970  13.2581870   9.3132400  28.1481140  14.2002210
  10.5784180  14.4408100  17.9007860  10.5173070  15.0329930  18.6503270
  11.5184560  14.3334060  17.7558120  13.2158740  14.0978160  17.5400150
  13.8299150  14.4157450  16.8781230  13.7608300  13.6126750  18.1596010
  19.6333920  29.9969790  14.9461990  19.1392200  30.3938660  14.2289120
  19.0247210  29.3719000  15.3399270   3.7380000  12.7772420  17.6539210
   4.2862990  12.5960470  16.8905320   3.8035310  11.9866530  18.1895520
   4.5111760  29.3678070  15.6639410   3.9172080  29.2362770  16.4029450
   4.5035600  28.5316210  15.1981510  13.9566780  12.6610300  13.8669440
  13.0826620  12.9945410  13.6642370  13.8477530  12.1883480  14.6921310
  14.8638760  14.8681170  15.2511160  14.5352120  14.0532930  14.8712890
  15.8121060  14.8250980  15.1276850  17.3173370  30.6393210  12.2248730
  16.8576340  31.3909020  11.8506750  16.6885830  29.9199680  12.1663530
   4.1423990  26.7336450  14.6147450   3.4158050  26.1141740  14.5473400
   4.2033140  27.1277060  13.7445530   7.7469090  28.9481450  11.3996860
   8.2634110  28.3368810  10.8745120   8.3966470  29.4510230  11.8907870
  10.4864590  29.8389940  12.2265840  10.7742400  29.5844240  11.3498850
  10.9987810  29.2867300  12.8171410  11.7041600  13.5780140  12.8062350
  10.9213390  14.0525640  13.0859110  11.4104530  12.6734970  12.6975530
  16.2562670  14.2803240  10.8511440  16.6970760  14.2248340  10.0033040
  15.9870260  15.1961250  10.9221620  18.1201240  13.9118480   8.8620260
  18.0589640  12.9679700   8.7151280  18.8993270  14.0198570   9.4073720
   3.0482010  13.8827620   5.3276070   3.8061370  13.9956500   4.7540100
   2.5859180  14.7196820   5.2819500   9.5895820  15.9966890   8.3178380
   8.7770330  15.6223780   7.9774260  10.0937460  15.2411970   8.6199570
  14.0920800  12.6609340   9.5561450  14.6950170  13.2329550  10.0309970
  13.3513790  13.2248780   9.3335350  17.2355400  13.0630900   4.8301730
  17.4306030  13.9614350   5.0969160  16.4485270  12.8317980   5.3234680
   4.0316690  28.7444070   5.2694350   3.5064310  29.1252100   4.5656310
   3.9561270  29.3694840   5.9904060   5.4207160  14.4091670   3.8678040
   5.9499920  13.6221470   3.7385990   6.0535480  15.0882860   4.1013570
   7.6145000  14.1466810   6.9223430   6.9847740  13.4454120   7.0893560
   7.0750140  14.9070940   6.7056590  10.5536950  30.7606040  19.5934040
  11.4804260  30.5250310  19.6370000  10.5387380  31.5878040  19.1120070
  18.7882010  30.3031610   6.5908290  18.9634200  29.6169350   5.9469210
  18.0903580  30.8278660   6.1984960   7.7400560  13.4250790  19.3575920
   7.4584830  13.9284390  18.5936740   8.1220260  12.6272540  18.9918050
   6.6309660  30.6926450   4.1443600   7.3628480  30.4085730   3.5967490
   6.8903330  30.4539730   5.0342980   5.7924450  26.8091180   4.1489930
   5.1633330  27.2776280   4.6975760   5.9072280  25.9640400   4.5836120
  14.3416020  12.8404370  19.9356390  14.2281470  13.1598980  20.8307910
  15.1585760  13.2416880  19.6393670  17.1214510  29.9875900  19.4175080
  17.9139830  29.4925130  19.2101040  17.4147660  30.6666040  20.0250690
  11.3792210   3.8632370  48.5030870  10.6034310   3.3832810  48.7929440
  12.0305140   3.1838020  48.3287030   5.3958040   4.1752180  49.3806630
   4.5642920   3.9200890  49.7803140   6.0039020   4.2462950  50.1164550
  15.3999640   8.2692560  47.2830000  14.9381170   7.4979800  47.6117170
  16.2125190   8.2958630  47.7882450   5.3759300   8.2092270  49.5764650
   5.6787340   7.3190010  49.3974870   6.1202890   8.7662490  49.3486900
  11.6262950  10.5550570  46.9033990  11.0074390  11.0108070  46.3328430
  12.4814730  10.7102030  46.5023690  10.8201200   6.5389560  48.5101030
  10.7509480   5.5979500  48.3490160  11.5821060   6.6290970  49.0823600
  12.4926300   5.4389810  44.2965900  11.8743570   5.9039260  43.7328620
  13.0049550   6.1317290  44.7135410   7.3558060   4.9665680  50.9749500
   7.0227440   5.5934600  51.6170570   7.5324740   5.4927560  50.1951170
   6.5677160   6.9346480  52.7898680   7.1851160   7.6097560  52.5083130
   5.7070280   7.3434460  52.6986180  17.4854750   8.3985890  50.7053320
  16.8018270   9.0685000  50.6969990  18.0249040   8.5966540  49.9398180
  15.0213490  10.2430020  49.4198500  15.0340650   9.8392310  48.5520760
  14.4688710  11.0177310  49.3159930  16.3158910   6.9646240  44.5088670
  16.2055240   6.0220570  44.6338090  16.3127160   7.3261880  45.3951430
  14.4198930   5.1459860  50.7481110  14.8367720   4.9319970  49.9134570
  15.1438750   5.4032650  51.3189730  11.8579190   2.5911560  43.8651160
  10.9308470   2.5248940  44.0939630  12.0104010   3.5291690  43.7506400
  18.3661030   3.5447080  50.8397350  17.5379660   3.6140170  50.3647480
  18.9611510   4.1301390  50.3713180  15.8876480   4.1531860  44.3686410
  15.2688900   3.8151410  43.7212710  15.8700930   3.5091620  45.0765600
   7.4635830   3.1176300  46.6470890   7.0592830   2.4053550  46.1516790
   7.5498950   2.7729540  47.5358930   7.9317530   6.8043860  48.8110100
   7.6345820   6.1989330  48.1317880   8.8817350   6.8421170  48.6999460
  16.0203140  10.3775730  52.4733200  15.5433700  11.1847920  52.2805810
  15.3364930   9.7254060  52.6259410   7.0235960   6.5425550  55.4617900
   6.1264490   6.7665520  55.7091300   7.0488830   6.6660490  54.5129300
  14.0641180   3.3918670  41.3759160  14.5034460   2.5541100  41.2296980
  14.7769600   4.0248070  41.4623300   5.8507180   3.4138870  54.0375270
   5.7114950   4.2861670  54.4062670   4.9688540   3.0711680  53.8923210
  12.1736560   8.3314740  45.3440400  12.6132470   9.0739070  44.9295790
  12.1123450   8.5741310  46.2679360   7.6487530   9.3560570  56.2460420
   7.6202960   9.7603520  55.3788850   7.4852500   8.4270930  56.0832020
   1.8025830   5.1836420  49.9546180   1.8806250   5.3185190  49.0101900
   2.4167510   4.4752310  50.1474300   3.0473460   6.8836610  46.3652360
   2.6401540   7.0251200  45.5105960   3.9386470   6.5996770  46.1623570
  19.0035600   7.3300520  54.7024600  19.1298660   7.0912400  53.7841780
  19.0456980   6.4985060  55.1746680  12.8652340  11.0328520  53.2719410
  13.3797010  10.9436530  54.0741840  12.0221420  11.3788220  53.5647320
  14.8406740  11.3183860  42.7003410  14.6807880  11.0286800  43.5985240
  14.6753450  10.5423990  42.1648640   7.3195120  11.0982390  44.4775030
   7.1437600  10.1817930  44.2642830   6.4650860  11.4569680  44.7172830
  14.5432870   8.8271420  41.2601410  13.8498030   8.8248710  40.6003690
  15.2855730   8.4030740  40.8295580  14.1082800  10.4534130  45.3349900
  14.5639750   9.6723510  45.6488520  14.4475320  11.1640950  45.8791080
   1.8585350   6.2250590  52.4940640   2.0216390   5.7555950  51.6760010
   2.3237800   5.7174150  53.1589480   3.4324330   5.6002020  54.6536450
   3.0479120   4.9595690  55.2519410   3.7436520   6.3038140  55.2231180
   9.5821470   2.4478560  50.1345070   9.9491600   1.9737130  50.8806410
   9.3926530   3.3220130  50.4753410   5.9002630   5.6948190  43.0496130
   5.1264890   5.1545810  42.8894850   6.6297260   5.1754800  42.7113890
  16.6590610   4.6913550  48.8422520  17.3789730   5.1868840  48.4518630
  16.4572430   4.0131440  48.1976390  12.0409410   4.7622610  54.7291520
  11.9746720   3.8418280  54.4749110  11.4114550   4.8598050  55.4436160
   5.9440030   5.3628570  46.6874940   6.4618700   4.5596830  46.6331830
   5.4924050   5.3007710  47.5291770  10.8309530   6.6294850  41.9602240
  11.1725230   7.3737080  41.4645560  10.0022240   6.9425970  42.3227070
   6.6297690   2.7874180  56.4840190   6.3297830   2.9331360  55.5868010
   7.4008930   2.2279470  56.3913580  11.9726140   7.5843180  54.4795320
  11.9870680   6.6524140  54.2614230  11.2651240   7.6702940  55.1185090
  17.1063210   1.7683000  40.7493930  17.0226930   2.1997220  39.8990370
  17.8257400   2.2281350  41.1820750  18.1837350   4.2250520  53.8263900
  17.4585540   4.8179300  53.6293290  18.7112810   4.2174060  53.0277270
  18.1350460   8.6225260  43.4776060  17.4926620   7.9680880  43.7519780
  17.7481120   9.0280350  42.7016730  13.7136940   5.9510690  47.3247750
  14.0660760   5.3538820  46.6649120  12.8299270   5.6254920  47.4956000
   9.8000220   6.7108380  44.7318160  10.4871350   7.2577590  45.1125750
   9.0132640   7.2549110  44.7667770   9.1027430   3.7154410  44.3443520
   9.5590210   4.5259660  44.5703710   8.7515640   3.3977550  45.1762010
  11.4060040   9.2260750  51.5735820  12.0502260   9.4320130  52.2509240
  11.7689480   8.4649150  51.1206670  12.6792120   7.2293100  50.2913270
  13.3214350   6.5286260  50.4045440  13.2041470   8.0091540  50.1110160
  16.5247840   7.5141720  40.0152410  16.2985420   6.7972160  40.6077050
  16.1344040   7.2654160  39.1774160  14.4529740   8.0288000  53.4949330
  14.7885980   8.6154690  54.1727250  13.5330080   7.8980710  53.7247120
   2.3063870  11.5408580  40.7896870   2.6661510  12.1397920  40.1354140
   2.1656210  12.0868470  41.5631900  16.1064090   5.4313660  41.6766570
  15.8185790   5.8926350  42.4644450  16.9016260   4.9711430  41.9450790
   2.2905730   9.8063440  55.2639270   2.3996850   8.8658180  55.1234660
   1.6386290  10.0718190  54.6153000  10.2818320   8.0779330  56.6637390
   9.9615190   7.3588570  57.2083080   9.6076680   8.7534400  56.7373450
   8.3232490   8.9239780  41.6070540   8.3142590   9.6569470  40.9915050
   7.4030850   8.6771360  41.6997500   3.9239130   4.1454670  42.3517300
   3.3167080   4.8853570  42.3612600   4.3988480   4.2354030  41.5255500
  11.3092090   8.9868020  40.2695730  11.4104070   8.7832010  39.3397710
  10.4093830   8.7326300  40.4743510   9.9510200  11.5054340  44.9643400
  10.2051700  11.4675730  44.0422770   9.0022680  11.3787670  44.9571650
   5.9344420   4.1065820  40.1005870   6.7007690   3.9947180  40.6631300
   6.0119110   3.4103790  39.4482640  17.9588360   9.5955070  48.2156170
  18.0835780  10.4186240  48.6879980  18.8253920   9.3845800  47.8680320
   5.4305890  11.6886280  47.8873300   6.1668370  11.1401740  48.1581870
   5.8146810  12.5542290  47.7479290   8.5408200  10.8616590  39.7098870
   9.3336810  11.1505420  39.2580660   8.0212550  10.4308760  39.0311350
  14.7029170  10.7092510  55.6343700  15.6550920  10.6250530  55.5843940
  14.5557390  11.3734220  56.3077490  17.5938370  10.0886720  41.1335610
  17.3079880   9.6751860  40.3189790  17.3957920  11.0174430  41.0136130
   9.0585600   6.0820000  39.5741220   8.9536240   5.4672350  40.3002600
   8.8909820   5.5585890  38.7904230   9.2099920   4.7676800  55.5530450
   8.4445590   5.3361800  55.4685120   9.3915880   4.4753010  54.6598680
  12.2988330   5.1440030  40.1783210  11.7498430   5.5909330  40.8225950
  12.9207590   4.6389280  40.7020880  16.3523270   6.4982130  56.1105470
  17.0932740   6.8357890  55.6072930  15.5895950   6.6674190  55.5575240
   7.9663450   4.1030950  42.0748510   8.3879870   3.9370820  42.9179900
   8.0914290   3.2931180  41.5803650  10.4791090   3.1268560  39.3225610
  10.9996750   2.4117580  38.9566760  11.1259490   3.7654430  39.6226120
  15.0268930   4.5496960  54.6460680  15.4409950   4.7042040  55.4951100
  14.0919930   4.6752180  54.8086460   9.7884160   4.5017440  52.6156610
  10.2072270   5.3450170  52.4432850   8.8692790   4.6389480  52.3863390
  14.4635960   2.7870810  52.5756960  13.9371180   3.3113430  51.9722100
  14.8067300   3.4198200  53.2066690   7.6391580  10.8070450  53.7314340
   7.1012670  11.5316510  53.4123040   7.8925540  10.3300790  52.9411680
  10.4953790  12.0421660  53.9900990  10.4212490  12.9456800  54.2973360
   9.5932630  11.7233560  53.9623060  11.0439120  11.2080170  41.6127350
  11.9389910  11.5465140  41.6346110  11.0756750  10.4859580  40.9851630
   4.6835280   6.5807220  39.8414350   5.1210150   7.1236890  40.4971930
   5.1683010   5.7554170  39.8510690   1.8981080   9.3696250  47.2934610
   2.2284090   8.5017310  47.0613250   2.3272080   9.5754770  48.1239570
   6.4943000   7.7005260  44.9536580   6.1938540   7.5770230  45.8540490
   6.3880490   6.8413850  44.5452310   2.3871290  10.2366840  50.0316240
   1.9502280  10.4167640  50.8640390   2.9548970  10.9941460  49.8897960
  18.0233470   9.7383840  54.3193550  17.4235460   9.7976400  53.5757470
  18.1527370   8.7988820  54.4490400  19.2634920   7.4801660  39.6563260
  18.4327880   7.5478310  40.1270490  19.4406750   8.3705780  39.3530120
  18.7191380   4.2249140  42.1597460  19.4810290   4.7945790  42.2657150
  18.7345750   3.6576340  42.9305770  19.7251350   5.0799240  47.0039390
  20.0960180   4.2966560  46.5975360  20.3653280   5.7688340  46.8256690
  16.7085110   6.4635820  52.4169710  15.8944950   6.8932980  52.6795500
  17.1159310   7.0754230  51.8038760  18.7710550   4.5183510  39.3169980
  19.0459390   5.4262390  39.1889200  18.5821290   4.4546040  40.2531970
  18.6675890   2.4552500  44.3099410  18.2919490   1.6880430  43.8780700
  17.9379010   2.8375200  44.7974340   3.2571650   3.1339640  50.9308460
   3.6244690   3.0467040  51.8104480   2.6882470   2.3706190  50.8315320
  16.7661160  11.2154420  45.9437980  17.3620230  10.8938990  45.2672400
  17.0239310  10.7426240  46.7351250   4.6723730   7.6472330  56.0928610
   4.6293360   7.2765240  56.9743070   4.8034740   8.5849900  56.2330430
   8.3729760   9.2031920  51.6938330   8.1321120   9.4706480  50.8068850
   9.3132400   9.3737650  51.7489190  19.6333920  11.2226300  52.4948970
  19.1392200  11.6195170  51.7776100  19.0247210  10.5975510  52.8886250
   4.5111760  10.5934580  53.2126390   3.9172080  10.4619280  53.9516430
   4.5035600   9.7572720  52.7468490  17.3173370  11.8649720  49.7735710
  16.8576340  12.6165530  49.3993730  16.6885830  11.1456190  49.7150510
   4.1423990   7.9592960  52.1634430   3.4158050   7.3398250  52.0960380
   4.2033140   8.3533570  51.2932510   7.7469090  10.1737960  48.9483840
   8.2634110   9.5625320  48.4232100   8.3966470  10.6766740  49.4394850
  10.4864590  11.0646450  49.7752820  10.7742400  10.8100750  48.8985830
  10.9987810  10.5123810  50.3658390   4.0316690   9.9700580  42.8181330
   3.5064310  10.3508610  42.1143290   3.9561270  10.5951350  43.5391040
  10.5536950  11.9862550  57.1421020  11.4804260  11.7506820  57.1856980
  10.5387380  12.8134550  56.6607050  18.7882010  11.5288120  44.1395270
  18.9634200  10.8425860  43.4956190  18.0903580  12.0535170  43.7471940
   6.6309660  11.9182960  41.6930580   7.3628480  11.6342240  41.1454470
   6.8903330  11.6796240  42.5829960   5.7924450   8.0347690  41.6976910
   5.1633330   8.5032790  42.2462740   5.9072280   7.1896910  42.1323100
  11.3792210   3.8632370  29.7287380  10.6034310   3.3832810  30.0185950
  12.0305140   3.1838020  29.5543540   5.3958040   4.1752180  30.6063140
   4.5642920   3.9200890  31.0059650   6.0039020   4.2462950  31.3421060
  15.3999640   8.2692560  28.5086510  14.9381170   7.4979800  28.8373680
  16.2125190   8.2958630  29.0138960   5.3759300   8.2092270  30.8021160
   5.6787340   7.3190010  30.6231380   6.1202890   8.7662490  30.5743410
  11.6262950  10.5550570  28.1290500  11.0074390  11.0108070  27.5584940
  12.4814730  10.7102030  27.7280200  10.8201200   6.5389560  29.7357540
  10.7509480   5.5979500  29.5746670  11.5821060   6.6290970  30.3080110
  12.4926300   5.4389810  25.5222410  11.8743570   5.9039260  24.9585130
  13.0049550   6.1317290  25.9391920   7.3558060   4.9665680  32.2006010
   7.0227440   5.5934600  32.8427080   7.5324740   5.4927560  31.4207680
   6.5677160   6.9346480  34.0155190   7.1851160   7.6097560  33.7339640
   5.7070280   7.3434460  33.9242690  17.4854750   8.3985890  31.9309830
  16.8018270   9.0685000  31.9226500  18.0249040   8.5966540  31.1654690
  15.0213490  10.2430020  30.6455010  15.0340650   9.8392310  29.7777270
  14.4688710  11.0177310  30.5416440  16.3158910   6.9646240  25.7345180
  16.2055240   6.0220570  25.8594600  16.3127160   7.3261880  26.6207940
  14.4198930   5.1459860  31.9737620  14.8367720   4.9319970  31.1391080
  15.1438750   5.4032650  32.5446240  11.8579190   2.5911560  25.0907670
  10.9308470   2.5248940  25.3196140  12.0104010   3.5291690  24.9762910
  18.3661030   3.5447080  32.0653860  17.5379660   3.6140170  31.5903990
  18.9611510   4.1301390  31.5969690  15.8876480   4.1531860  25.5942920
  15.2688900   3.8151410  24.9469220  15.8700930   3.5091620  26.3022110
   7.4635830   3.1176300  27.8727400   7.0592830   2.4053550  27.3773300
   7.5498950   2.7729540  28.7615440   7.9317530   6.8043860  30.0366610
   7.6345820   6.1989330  29.3574390   8.8817350   6.8421170  29.9255970
  16.0203140  10.3775730  33.6989710  15.5433700  11.1847920  33.5062320
  15.3364930   9.7254060  33.8515920   7.0235960   6.5425550  36.6874410
   6.1264490   6.7665520  36.9347810   7.0488830   6.6660490  35.7385810
  14.0641180   3.3918670  22.6015670  14.5034460   2.5541100  22.4553490
  14.7769600   4.0248070  22.6879810   5.8507180   3.4138870  35.2631780
   5.7114950   4.2861670  35.6319180   4.9688540   3.0711680  35.1179720
  12.1736560   8.3314740  26.5696910  12.6132470   9.0739070  26.1552300
  12.1123450   8.5741310  27.4935870   7.6487530   9.3560570  37.4716930
   7.6202960   9.7603520  36.6045360   7.4852500   8.4270930  37.3088530
  19.6002350  10.1387670  38.7681100  20.0762070  10.6170560  39.4470180
  20.2209510  10.0705160  38.0426600   1.8025830   5.1836420  31.1802690
   1.8806250   5.3185190  30.2358410   2.4167510   4.4752310  31.3730810
   3.0473460   6.8836610  27.5908870   2.6401540   7.0251200  26.7362470
   3.9386470   6.5996770  27.3880080  19.0035600   7.3300520  35.9281110
  19.1298660   7.0912400  35.0098290  19.0456980   6.4985060  36.4003190
  12.8652340  11.0328520  34.4975920  13.3797010  10.9436530  35.2998350
  12.0221420  11.3788220  34.7903830  14.8406740  11.3183860  23.9259920
  14.6807880  11.0286800  24.8241750  14.6753450  10.5423990  23.3905150
   7.3195120  11.0982390  25.7031540   7.1437600  10.1817930  25.4899340
   6.4650860  11.4569680  25.9429340  14.5432870   8.8271420  22.4857920
  13.8498030   8.8248710  21.8260200  15.2855730   8.4030740  22.0552090
  14.1082800  10.4534130  26.5606410  14.5639750   9.6723510  26.8745030
  14.4475320  11.1640950  27.1047590   1.8585350   6.2250590  33.7197150
   2.0216390   5.7555950  32.9016520   2.3237800   5.7174150  34.3845990
   3.4324330   5.6002020  35.8792960   3.0479120   4.9595690  36.4775920
   3.7436520   6.3038140  36.4487690   9.5821470   2.4478560  31.3601580
   9.9491600   1.9737130  32.1062920   9.3926530   3.3220130  31.7009920
   5.9002630   5.6948190  24.2752640   5.1264890   5.1545810  24.1151360
   6.6297260   5.1754800  23.9370400  16.6590610   4.6913550  30.0679030
  17.3789730   5.1868840  29.6775140  16.4572430   4.0131440  29.4232900
  12.0409410   4.7622610  35.9548030  11.9746720   3.8418280  35.7005620
  11.4114550   4.8598050  36.6692670   5.9440030   5.3628570  27.9131450
   6.4618700   4.5596830  27.8588340   5.4924050   5.3007710  28.7548280
  10.8309530   6.6294850  23.1858750  11.1725230   7.3737080  22.6902070
  10.0022240   6.9425970  23.5483580   6.6297690   2.7874180  37.7096700
   6.3297830   2.9331360  36.8124520   7.4008930   2.2279470  37.6170090
  11.9726140   7.5843180  35.7051830  11.9870680   6.6524140  35.4870740
  11.2651240   7.6702940  36.3441600  17.1063210   1.7683000  21.9750440
  17.0226930   2.1997220  21.1246880  17.8257400   2.2281350  22.4077260
  18.1837350   4.2250520  35.0520410  17.4585540   4.8179300  34.8549800
  18.7112810   4.2174060  34.2533780  18.1350460   8.6225260  24.7032570
  17.4926620   7.9680880  24.9776290  17.7481120   9.0280350  23.9273240
  13.7136940   5.9510690  28.5504260  14.0660760   5.3538820  27.8905630
  12.8299270   5.6254920  28.7212510   9.8000220   6.7108380  25.9574670
  10.4871350   7.2577590  26.3382260   9.0132640   7.2549110  25.9924280
   9.1027430   3.7154410  25.5700030   9.5590210   4.5259660  25.7960220
   8.7515640   3.3977550  26.4018520  11.4060040   9.2260750  32.7992330
  12.0502260   9.4320130  33.4765750  11.7689480   8.4649150  32.3463180
  12.6792120   7.2293100  31.5169780  13.3214350   6.5286260  31.6301950
  13.2041470   8.0091540  31.3366670  16.5247840   7.5141720  21.2408920
  16.2985420   6.7972160  21.8333560  16.1344040   7.2654160  20.4030670
  14.4529740   8.0288000  34.7205840  14.7885980   8.6154690  35.3983760
  13.5330080   7.8980710  34.9503630   2.3063870  11.5408580  22.0153380
   2.6661510  12.1397920  21.3610650   2.1656210  12.0868470  22.7888410
  16.1064090   5.4313660  22.9023080  15.8185790   5.8926350  23.6900960
  16.9016260   4.9711430  23.1707300   2.2905730   9.8063440  36.4895780
   2.3996850   8.8658180  36.3491170   1.6386290  10.0718190  35.8409510
  10.2818320   8.0779330  37.8893900   9.9615190   7.3588570  38.4339590
   9.6076680   8.7534400  37.9629960   8.3232490   8.9239780  22.8327050
   8.3142590   9.6569470  22.2171560   7.4030850   8.6771360  22.9254010
   3.9239130   4.1454670  23.5773810   3.3167080   4.8853570  23.5869110
   4.3988480   4.2354030  22.7512010  11.3092090   8.9868020  21.4952240
  11.4104070   8.7832010  20.5654220  10.4093830   8.7326300  21.7000020
   9.9510200  11.5054340  26.1899910  10.2051700  11.4675730  25.2679280
   9.0022680  11.3787670  26.1828160   5.9344420   4.1065820  21.3262380
   6.7007690   3.9947180  21.8887810   6.0119110   3.4103790  20.6739150
  17.9588360   9.5955070  29.4412680  18.0835780  10.4186240  29.9136490
  18.8253920   9.3845800  29.0936830   5.4305890  11.6886280  29.1129810
   6.1668370  11.1401740  29.3838380   5.8146810  12.5542290  28.9735800
   4.4364170  10.8732350  38.3015390   5.2376900  11.1944400  38.7150790
   3.9215990  10.5127930  39.0235300   8.5408200  10.8616590  20.9355380
   9.3336810  11.1505420  20.4837170   8.0212550  10.4308760  20.2567860
  13.2728800   6.9812220  38.2490800  12.6666960   7.0043820  37.5086550
  12.9682910   6.2495260  38.7858050  14.7029170  10.7092510  36.8600210
  15.6550920  10.6250530  36.8100450  14.5557390  11.3734220  37.5334000
  17.5938370  10.0886720  22.3592120  17.3079880   9.6751860  21.5446300
  17.3957920  11.0174430  22.2392640   9.0585600   6.0820000  20.7997730
   8.9536240   5.4672350  21.5259110   8.8909820   5.5585890  20.0160740
   9.2099920   4.7676800  36.7786960   8.4445590   5.3361800  36.6941630
   9.3915880   4.4753010  35.8855190  12.2988330   5.1440030  21.4039720
  11.7498430   5.5909330  22.0482460  12.9207590   4.6389280  21.9277390
  16.3523270   6.4982130  37.3361980  17.0932740   6.8357890  36.8329440
  15.5895950   6.6674190  36.7831750   7.9663450   4.1030950  23.3005020
   8.3879870   3.9370820  24.1436410   8.0914290   3.2931180  22.8060160
  10.4791090   3.1268560  20.5482120  10.9996750   2.4117580  20.1823270
  11.1259490   3.7654430  20.8482630  15.0268930   4.5496960  35.8717190
  15.4409950   4.7042040  36.7207610  14.0919930   4.6752180  36.0342970
   9.7884160   4.5017440  33.8413120  10.2072270   5.3450170  33.6689360
   8.8692790   4.6389480  33.6119900  14.4635960   2.7870810  33.8013470
  13.9371180   3.3113430  33.1978610  14.8067300   3.4198200  34.4323200
   7.6391580  10.8070450  34.9570850   7.1012670  11.5316510  34.6379550
   7.8925540  10.3300790  34.1668190  10.4953790  12.0421660  35.2157500
  10.4212490  12.9456800  35.5229870   9.5932630  11.7233560  35.1879570
  11.0439120  11.2080170  22.8383860  11.9389910  11.5465140  22.8602620
  11.0756750  10.4859580  22.2108140   4.6835280   6.5807220  21.0670860
   5.1210150   7.1236890  21.7228440   5.1683010   5.7554170  21.0767200
   1.8981080   9.3696250  28.5191120   2.2284090   8.5017310  28.2869760
   2.3272080   9.5754770  29.3496080   6.4943000   7.7005260  26.1793090
   6.1938540   7.5770230  27.0797000   6.3880490   6.8413850  25.7708820
   2.3871290  10.2366840  31.2572750   1.9502280  10.4167640  32.0896900
   2.9548970  10.9941460  31.1154470  18.0233470   9.7383840  35.5450060
  17.4235460   9.7976400  34.8013980  18.1527370   8.7988820  35.6746910
  19.2634920   7.4801660  20.8819770  18.4327880   7.5478310  21.3527000
  19.4406750   8.3705780  20.5786630  18.7191380   4.2249140  23.3853970
  19.4810290   4.7945790  23.4913660  18.7345750   3.6576340  24.1562280
  19.7251350   5.0799240  28.2295900  20.0960180   4.2966560  27.8231870
  20.3653280   5.7688340  28.0513200  16.7085110   6.4635820  33.6426220
  15.8944950   6.8932980  33.9052010  17.1159310   7.0754230  33.0295270
  18.7710550   4.5183510  20.5426490  19.0459390   5.4262390  20.4145710
  18.5821290   4.4546040  21.4788480  18.6675890   2.4552500  25.5355920
  18.2919490   1.6880430  25.1037210  17.9379010   2.8375200  26.0230850
   3.2571650   3.1339640  32.1564970   3.6244690   3.0467040  33.0360990
   2.6882470   2.3706190  32.0571830  16.7661160  11.2154420  27.1694490
  17.3620230  10.8938990  26.4928910  17.0239310  10.7426240  27.9607760
   4.6723730   7.6472330  37.3185120   4.6293360   7.2765240  38.1999580
   4.8034740   8.5849900  37.4586940   8.3729760   9.2031920  32.9194840
   8.1321120   9.4706480  32.0325360   9.3132400   9.3737650  32.9745700
  19.6333920  11.2226300  33.7205480  19.1392200  11.6195170  33.0032610
  19.0247210  10.5975510  34.1142760   4.5111760  10.5934580  34.4382900
   3.9172080  10.4619280  35.1772940   4.5035600   9.7572720  33.9725000
  17.3173370  11.8649720  30.9992220  16.8576340  12.6165530  30.6250240
  16.6885830  11.1456190  30.9407020   4.1423990   7.9592960  33.3890940
   3.4158050   7.3398250  33.3216890   4.2033140   8.3533570  32.5189020
   7.7469090  10.1737960  30.1740350   8.2634110   9.5625320  29.6488610
   8.3966470  10.6766740  30.6651360  10.4864590  11.0646450  31.0009330
  10.7742400  10.8100750  30.1242340  10.9987810  10.5123810  31.5914900
   4.0316690   9.9700580  24.0437840   3.5064310  10.3508610  23.3399800
   3.9561270  10.5951350  24.7647550  10.5536950  11.9862550  38.3677530
  11.4804260  11.7506820  38.4113490  10.5387380  12.8134550  37.8863560
  18.7882010  11.5288120  25.3651780  18.9634200  10.8425860  24.7212700
  18.0903580  12.0535170  24.9728450   6.6309660  11.9182960  22.9187090
   7.3628480  11.6342240  22.3710980   6.8903330  11.6796240  23.8086470
   5.7924450   8.0347690  22.9233420   5.1633330   8.5032790  23.4719250
   5.9072280   7.1896910  23.3579610  17.1214510  11.2132410  38.1918570
  17.9139830  10.7181640  37.9844530  17.4147660  11.8922550  38.7994180
  11.3792210   3.8632370  10.9543890  10.6034310   3.3832810  11.2442460
  12.0305140   3.1838020  10.7800050   5.3958040   4.1752180  11.8319650
   4.5642920   3.9200890  12.2316160   6.0039020   4.2462950  12.5677570
  15.3999640   8.2692560   9.7343020  14.9381170   7.4979800  10.0630190
  16.2125190   8.2958630  10.2395470   5.3759300   8.2092270  12.0277670
   5.6787340   7.3190010  11.8487890   6.1202890   8.7662490  11.7999920
  11.6262950  10.5550570   9.3547010  11.0074390  11.0108070   8.7841450
  12.4814730  10.7102030   8.9536710  10.8201200   6.5389560  10.9614050
  10.7509480   5.5979500  10.8003180  11.5821060   6.6290970  11.5336620
  12.4926300   5.4389810   6.7478920  11.8743570   5.9039260   6.1841640
  13.0049550   6.1317290   7.1648430   7.3558060   4.9665680  13.4262520
   7.0227440   5.5934600  14.0683590   7.5324740   5.4927560  12.6464190
   6.5677160   6.9346480  15.2411700   7.1851160   7.6097560  14.9596150
   5.7070280   7.3434460  15.1499200  17.4854750   8.3985890  13.1566340
  16.8018270   9.0685000  13.1483010  18.0249040   8.5966540  12.3911200
  15.0213490  10.2430020  11.8711520  15.0340650   9.8392310  11.0033780
  14.4688710  11.0177310  11.7672950  16.3158910   6.9646240   6.9601690
  16.2055240   6.0220570   7.0851110  16.3127160   7.3261880   7.8464450
  14.4198930   5.1459860  13.1994130  14.8367720   4.9319970  12.3647590
  15.1438750   5.4032650  13.7702750  11.8579190   2.5911560   6.3164180
  10.9308470   2.5248940   6.5452650  12.0104010   3.5291690   6.2019420
  18.3661030   3.5447080  13.2910370  17.5379660   3.6140170  12.8160500
  18.9611510   4.1301390  12.8226200  15.8876480   4.1531860   6.8199430
  15.2688900   3.8151410   6.1725730  15.8700930   3.5091620   7.5278620
   7.4635830   3.1176300   9.0983910   7.0592830   2.4053550   8.6029810
   7.5498950   2.7729540   9.9871950   7.9317530   6.8043860  11.2623120
   7.6345820   6.1989330  10.5830900   8.8817350   6.8421170  11.1512480
  16.0203140  10.3775730  14.9246220  15.5433700  11.1847920  14.7318830
  15.3364930   9.7254060  15.0772430   7.0235960   6.5425550  17.9130920
   6.1264490   6.7665520  18.1604320   7.0488830   6.6660490  16.9642320
  14.0641180   3.3918670   3.8272180  14.5034460   2.5541100   3.6810000
  14.7769600   4.0248070   3.9136320   5.8507180   3.4138870  16.4888290
   5.7114950   4.2861670  16.8575690   4.9688540   3.0711680  16.3436230
  12.1736560   8.3314740   7.7953420  12.6132470   9.0739070   7.3808810
  12.1123450   8.5741310   8.7192380   7.6487530   9.3560570  18.6973440
   7.6202960   9.7603520  17.8301870   7.4852500   8.4270930  18.5345040
  19.6002350  10.1387670  19.9937610  20.0762070  10.6170560  20.6726690
  20.2209510  10.0705160  19.2683110   1.8025830   5.1836420  12.4059200
   1.8806250   5.3185190  11.4614920   2.4167510   4.4752310  12.5987320
   3.0473460   6.8836610   8.8165380   2.6401540   7.0251200   7.9618980
   3.9386470   6.5996770   8.6136590  19.0035600   7.3300520  17.1537620
  19.1298660   7.0912400  16.2354800  19.0456980   6.4985060  17.6259700
  12.8652340  11.0328520  15.7232430  13.3797010  10.9436530  16.5254860
  12.0221420  11.3788220  16.0160340  14.8406740  11.3183860   5.1516430
  14.6807880  11.0286800   6.0498260  14.6753450  10.5423990   4.6161660
   7.3195120  11.0982390   6.9288050   7.1437600  10.1817930   6.7155850
   6.4650860  11.4569680   7.1685850  14.5432870   8.8271420   3.7114430
  13.8498030   8.8248710   3.0516710  15.2855730   8.4030740   3.2808600
  14.1082800  10.4534130   7.7862920  14.5639750   9.6723510   8.1001540
  14.4475320  11.1640950   8.3304100   1.8585350   6.2250590  14.9453660
   2.0216390   5.7555950  14.1273030   2.3237800   5.7174150  15.6102500
   3.4324330   5.6002020  17.1049470   3.0479120   4.9595690  17.7032430
   3.7436520   6.3038140  17.6744200   9.5821470   2.4478560  12.5858090
   9.9491600   1.9737130  13.3319430   9.3926530   3.3220130  12.9266430
   5.9002630   5.6948190   5.5009150   5.1264890   5.1545810   5.3407870
   6.6297260   5.1754800   5.1626910  16.6590610   4.6913550  11.2935540
  17.3789730   5.1868840  10.9031650  16.4572430   4.0131440  10.6489410
  12.0409410   4.7622610  17.1804540  11.9746720   3.8418280  16.9262130
  11.4114550   4.8598050  17.8949180   5.9440030   5.3628570   9.1387960
   6.4618700   4.5596830   9.0844850   5.4924050   5.3007710   9.9804790
  10.8309530   6.6294850   4.4115260  11.1725230   7.3737080   3.9158580
  10.0022240   6.9425970   4.7740090   6.6297690   2.7874180  18.9353210
   6.3297830   2.9331360  18.0381030   7.4008930   2.2279470  18.8426600
  11.9726140   7.5843180  16.9308340  11.9870680   6.6524140  16.7127250
  11.2651240   7.6702940  17.5698110  17.1063210   1.7683000   3.2006950
  17.0226930   2.1997220   2.3503390  17.8257400   2.2281350   3.6333770
  18.1837350   4.2250520  16.2776920  17.4585540   4.8179300  16.0806310
  18.7112810   4.2174060  15.4790290  18.1350460   8.6225260   5.9289080
  17.4926620   7.9680880   6.2032800  17.7481120   9.0280350   5.1529750
  13.7136940   5.9510690   9.7760770  14.0660760   5.3538820   9.1162140
  12.8299270   5.6254920   9.9469020   9.8000220   6.7108380   7.1831180
  10.4871350   7.2577590   7.5638770   9.0132640   7.2549110   7.2180790
   9.1027430   3.7154410   6.7956540   9.5590210   4.5259660   7.0216730
   8.7515640   3.3977550   7.6275030  11.4060040   9.2260750  14.0248840
  12.0502260   9.4320130  14.7022260  11.7689480   8.4649150  13.5719690
  12.6792120   7.2293100  12.7426290  13.3214350   6.5286260  12.8558460
  13.2041470   8.0091540  12.5623180  16.5247840   7.5141720   2.4665430
  16.2985420   6.7972160   3.0590070  16.1344040   7.2654160   1.6287180
  14.4529740   8.0288000  15.9462350  14.7885980   8.6154690  16.6240270
  13.5330080   7.8980710  16.1760140   2.3063870  11.5408580   3.2409890
   2.6661510  12.1397920   2.5867160   2.1656210  12.0868470   4.0144920
  16.1064090   5.4313660   4.1279590  15.8185790   5.8926350   4.9157470
  16.9016260   4.9711430   4.3963810   2.2905730   9.8063440  17.7152290
   2.3996850   8.8658180  17.5747680   1.6386290  10.0718190  17.0666020
  10.2818320   8.0779330  19.1150410   9.9615190   7.3588570  19.6596100
   9.6076680   8.7534400  19.1886470   8.3232490   8.9239780   4.0583560
   8.3142590   9.6569470   3.4428070   7.4030850   8.6771360   4.1510520
   3.9239130   4.1454670   4.8030320   3.3167080   4.8853570   4.8125620
   4.3988480   4.2354030   3.9768520  11.3092090   8.9868020   2.7208750
  11.4104070   8.7832010   1.7910730  10.4093830   8.7326300   2.9256530
   9.9510200  11.5054340   7.4156420  10.2051700  11.4675730   6.4935790
   9.0022680  11.3787670   7.4084670   5.9344420   4.1065820   2.5518890
   6.7007690   3.9947180   3.1144320   6.0119110   3.4103790   1.8995660
  17.9588360   9.5955070  10.6669190  18.0835780  10.4186240  11.1393000
  18.8253920   9.3845800  10.3193340   5.4305890  11.6886280  10.3386320
   6.1668370  11.1401740  10.6094890   5.8146810  12.5542290  10.1992310
   4.4364170  10.8732350  19.5271900   5.2376900  11.1944400  19.9407300
   3.9215990  10.5127930  20.2491810   8.5408200  10.8616590   2.1611890
   9.3336810  11.1505420   1.7093680   8.0212550  10.4308760   1.4824370
  13.2728800   6.9812220  19.4747310  12.6666960   7.0043820  18.7343060
  12.9682910   6.2495260  20.0114560  14.7029170  10.7092510  18.0856720
  15.6550920  10.6250530  18.0356960  14.5557390  11.3734220  18.7590510
  17.5938370  10.0886720   3.5848630  17.3079880   9.6751860   2.7702810
  17.3957920  11.0174430   3.4649150   9.2099920   4.7676800  18.0043470
   8.4445590   5.3361800  17.9198140   9.3915880   4.4753010  17.1111700
  12.2988330   5.1440030   2.6296230  11.7498430   5.5909330   3.2738970
  12.9207590   4.6389280   3.1533900  16.3523270   6.4982130  18.5618490
  17.0932740   6.8357890  18.0585950  15.5895950   6.6674190  18.0088260
   7.9663450   4.1030950   4.5261530   8.3879870   3.9370820   5.3692920
   8.0914290   3.2931180   4.0316670  15.0268930   4.5496960  17.0973700
  15.4409950   4.7042040  17.9464120  14.0919930   4.6752180  17.2599480
   9.7884160   4.5017440  15.0669630  10.2072270   5.3450170  14.8945870
   8.8692790   4.6389480  14.8376410  14.4635960   2.7870810  15.0269980
  13.9371180   3.3113430  14.4235120  14.8067300   3.4198200  15.6579710
   7.6391580  10.8070450  16.1827360   7.1012670  11.5316510  15.8636060
   7.8925540  10.3300790  15.3924700  10.4953790  12.0421660  16.4414010
  10.4212490  12.9456800  16.7486380   9.5932630  11.7233560  16.4136080
  11.0439120  11.2080170   4.0640370  11.9389910  11.5465140   4.0859130
  11.0756750  10.4859580   3.4364650   4.6835280   6.5807220   2.2927370
   5.1210150   7.1236890   2.9484950   5.1683010   5.7554170   2.3023710
   1.8981080   9.3696250   9.7447630   2.2284090   8.5017310   9.5126270
   2.3272080   9.5754770  10.5752590   6.4943000   7.7005260   7.4049600
   6.1938540   7.5770230   8.3053510   6.3880490   6.8413850   6.9965330
   2.3871290  10.2366840  12.4829260   1.9502280  10.4167640  13.3153410
   2.9548970  10.9941460  12.3410980  18.0233470   9.7383840  16.7706570
  17.4235460   9.7976400  16.0270490  18.1527370   8.7988820  16.9003420
  19.2634920   7.4801660   2.1076280  18.4327880   7.5478310   2.5783510
  19.4406750   8.3705780   1.8043140  18.7191380   4.2249140   4.6110480
  19.4810290   4.7945790   4.7170170  18.7345750   3.6576340   5.3818790
  19.7251350   5.0799240   9.4552410  20.0960180   4.2966560   9.0488380
  20.3653280   5.7688340   9.2769710  16.7085110   6.4635820  14.8682730
  15.8944950   6.8932980  15.1308520  17.1159310   7.0754230  14.2551780
  18.7710550   4.5183510   1.7683000  19.0459390   5.4262390   1.6402220
  18.5821290   4.4546040   2.7044990  18.6675890   2.4552500   6.7612430
  18.2919490   1.6880430   6.3293720  17.9379010   2.8375200   7.2487360
   3.2571650   3.1339640  13.3821480   3.6244690   3.0467040  14.2617500
   2.6882470   2.3706190  13.2828340  16.7661160  11.2154420   8.3951000
  17.3620230  10.8938990   7.7185420  17.0239310  10.7426240   9.1864270
   4.6723730   7.6472330  18.5441630   4.6293360   7.2765240  19.4256090
   4.8034740   8.5849900  18.6843450   8.3729760   9.2031920  14.1451350
   8.1321120   9.4706480  13.2581870   9.3132400   9.3737650  14.2002210
  19.6333920  11.2226300  14.9461990  19.1392200  11.6195170  14.2289120
  19.0247210  10.5975510  15.3399270   4.5111760  10.5934580  15.6639410
   3.9172080  10.4619280  16.4029450   4.5035600   9.7572720  15.1981510
  17.3173370  11.8649720  12.2248730  16.8576340  12.6165530  11.8506750
  16.6885830  11.1456190  12.1663530   4.1423990   7.9592960  14.6147450
   3.4158050   7.3398250  14.5473400   4.2033140   8.3533570  13.7445530
   7.7469090  10.1737960  11.3996860   8.2634110   9.5625320  10.8745120
   8.3966470  10.6766740  11.8907870  10.4864590  11.0646450  12.2265840
  10.7742400  10.8100750  11.3498850  10.9987810  10.5123810  12.8171410
   4.0316690   9.9700580   5.2694350   3.5064310  10.3508610   4.5656310
   3.9561270  10.5951350   5.9904060  10.5536950  11.9862550  19.5934040
  11.4804260  11.7506820  19.6370000  10.5387380  12.8134550  19.1120070
  18.7882010  11.5288120   6.5908290  18.9634200  10.8425860   5.9469210
  18.0903580  12.0535170   6.1984960   6.6309660  11.9182960   4.1443600
   7.3628480  11.6342240   3.5967490   6.8903330  11.6796240   5.0342980
   5.7924450   8.0347690   4.1489930   5.1633330   8.5032790   4.6975760
   5.9072280   7.1896910   4.5836120  17.1214510  11.2132410  19.4175080
  17.9139830  10.7181640  19.2101040  17.4147660  11.8922550  20.0250690
  58.3205580  80.7289330  58.9104020  90.0000000  90.0000000  90.0000000
