integrator = md
dt = 0.002
nsteps = 50000000
constraints = h-bonds
constraint-algorithm = lincs
cutoff-scheme = Verlet
coulombtype = PME
rcoulomb = 1.0
rvdw = 1.0
tcoupl = v-rescale
tc-grps = System
tau-t = 0.1
ref-t = 300
pcoupl = c-rescale
pcoupltype = isotropic
tau-p = 2.0
ref-p = 1.0
compressibility = 4.5e-5
continuation = yes
nstxout-compressed = 5000
nstenergy = 5000
pbc = xyz
