default_name
 19041
  27.6516027  33.7826823  15.5108024  28.3346027  34.9986823  15.5118024
  29.7376027  35.0306823  15.5058024  30.4416027  36.2426823  15.5018024
  31.8386027  36.2566823  15.4998024  32.5686027  35.0596823  15.5018024
  33.9716027  35.0566823  15.5038024  34.6796027  33.8556823  15.5048024
  33.9956027  32.6406823  15.5028024  32.5936027  32.6106823  15.5008024
  31.8896027  31.3986823  15.4998024  30.4926027  31.3836823  15.4988024
  29.7636027  32.5806823  15.5018024  28.3606027  32.5826823  15.5038024
  30.4576027  33.8136823  15.5028024  31.8746027  33.8276823  15.5018024
  26.5646027  33.7716823  15.5158024  27.7626027  35.9236823  15.5188024
  29.9076027  37.1896823  15.5008024  32.3536027  37.2146823  15.4968024
  34.5236027  35.9936823  15.5058024  35.7666027  33.8666823  15.5078024
  34.5666027  31.7146823  15.5028024  32.4236027  30.4516823  15.4988024
  29.9776027  30.4256823  15.4978024  27.8086027  31.6446823  15.5018024
  34.9866027  22.2446823  40.9108024  35.4906027  21.2806823  40.9178024
  34.4486027  22.5166823  41.8188024  36.8036027  27.9786823  37.9218024
  36.4686027  27.0856823  38.6828024  35.0656027  26.5256823  38.8528024
  34.3566027  27.3466823  39.0128024  35.1226027  25.6286823  40.1098024
  34.2676027  24.3726823  39.7788024  35.0136027  23.0546823  39.8418024
  33.6796027  24.6156823  38.3668024  34.6216027  25.6216823  37.6818024
  34.0856027  26.4716823  36.5358024  34.6896027  26.1646823  40.9668024
  37.2886027  26.4196823  39.5858024  38.6206027  26.9596823  39.9428024
  39.8416027  26.2936823  39.2648024  39.7146027  25.9746823  37.7478024
  38.8966027  24.7066823  37.4158024  39.4966027  23.6086823  38.1198024
  38.5966027  22.6876823  38.7728024  39.3596027  22.1016823  39.9888024
  39.4656027  23.1026823  41.0108024  38.6766027  20.8326823  40.5678024
  39.5636027  20.0796823  41.5848024  39.7506027  20.8666823  42.7638024
  38.3966027  19.9106823  39.4968024  37.4996027  20.4066823  38.4958024
  37.2586027  19.3816823  37.5498024  38.1736027  21.5866823  37.7688024
  37.2616027  22.1106823  36.7908024  36.6306027  25.4756823  40.3778024
  37.1696027  24.7406823  41.1898024  33.4336027  24.3246823  40.4928024
  35.5386027  22.7606823  38.9338024  32.6746027  25.0466823  38.4598024
  33.6006027  23.6756823  37.8078024  35.5036027  25.0716823  37.3258024
  34.6326027  27.4096823  36.4288024  38.7446027  26.8936823  41.0318024
  38.6316027  28.0276823  39.6908024  40.6986027  26.9626823  39.4028024
  40.0976027  25.3826823  39.8128024  39.2876027  26.8366823  37.2218024
  40.7246027  25.8366823  37.3418024  38.9216027  24.5316823  36.3358024
  37.8486027  24.8406823  37.6998024  37.7016027  23.1996823  39.1438024
  40.3636027  21.8106823  39.6458024  38.6036027  23.5696823  41.0958024
  37.7416027  21.1166823  41.0678024  39.0826027  19.1276823  41.8408024
  40.5306027  19.8456823  41.1198024  39.9046027  21.7866823  42.4618024
  36.5546027  20.7216823  38.9538024  36.8736027  19.8636823  36.7958024
  39.0816027  21.1886823  37.2908024  37.7966027  22.3336823  35.9858024
  29.8266027  28.3696823  33.6128024  30.0206027  27.5306823  34.4788024
  30.1806027  26.0206823  34.2758024  29.1976027  25.5876823  34.0488024
  30.6656027  25.5036823  35.6588024  32.1406027  25.0876823  35.4658024
  33.0876027  26.2666823  35.6558024  32.1696027  24.6346823  33.9938024
  31.2586027  25.6256823  33.2308024  30.6756027  25.0936823  31.9268024
  30.0606027  24.6476823  35.9828024  30.1436027  27.7856823  35.8438024
  29.7006027  29.0576823  36.4488024  30.6766027  30.2446823  36.2708024
  32.1746027  29.9776823  36.5678024  32.5206027  29.3696823  37.9408024
  31.7306027  30.0046823  38.9568024  32.0526027  29.6506823  40.3218024
  31.3286027  28.3426823  40.7548024  31.9156027  27.2086823  40.1118024
  31.4106027  28.1486823  42.2988024  30.5696027  26.9596823  42.8148024
  31.1626027  25.7246823  42.4068024  30.9156027  29.3356823  42.9508024
  31.6796027  30.5206823  42.6858024  31.1186027  31.6046823  43.3988024
  31.5736027  30.8406823  41.1818024  32.3646027  31.9916823  40.8728024
  30.4556027  26.6706823  36.6178024  30.5246027  26.6316823  37.8368024
  32.3906027  24.2426823  36.1108024  32.9226027  27.0606823  34.9338024
  31.7576027  23.6196823  33.9228024  33.1956027  24.6126823  33.6078024
  31.8416027  26.5226823  32.9968024  29.5876027  25.1276823  31.8638024
  29.5416027  28.9026823  37.5228024  28.7286027  29.3286823  36.0168024
  30.5996027  30.5876823  35.2318024  30.3266027  31.0766823  36.8928024
  32.5696027  29.3086823  35.7998024  32.7196027  30.9226823  36.4618024
  33.5916027  29.5136823  38.1328024  32.3316027  28.2946823  37.9098024
  33.1356027  29.5356823  40.4608024  30.2646027  28.4296823  40.4858024
  31.4236027  27.0566823  39.2678024  32.4556027  27.9816823  42.5918024
  30.5206027  27.0056823  43.9118024  29.5426027  27.0436823  42.4338024
  31.4356027  25.8486823  41.4748024  32.7276027  30.3756823  42.9798024
  31.4746027  32.3786823  42.9198024  30.5106027  31.0246823  40.9608024
  32.3616027  32.0686823  39.8988024  34.0766027  20.6076823  28.4208024
  33.6886027  21.2856823  29.3588024  34.2656027  22.6256823  29.8118024
  35.3036027  22.4836823  30.1268024  33.4036027  23.0636823  31.0188024
  32.8616027  24.4916823  30.7228024  31.3516027  24.6146823  30.8638024
  33.3546027  24.8946823  29.3088024  34.1486027  23.7066823  28.7208024
  35.5066027  24.0366823  28.1188024  34.0176027  23.0676823  31.9288024
  32.6076027  20.9996823  30.1798024  31.9246027  19.6896823  30.1578024
  31.0206027  19.4376823  28.9258024  30.1636027  20.6296823  28.4248024
  29.2546027  21.3146823  29.4658024  28.5766027  20.3086823  30.2338024
  27.5486027  20.7806823  31.1358024  28.1516027  21.2506823  32.4898024
  28.8556027  22.4836823  32.3168024  27.0346027  21.4526823  33.5568024
  27.5856027  21.7536823  34.9688024  28.2346027  23.0286823  34.9708024
  26.2406027  20.2536823  33.6498024  25.5546027  19.9006823  32.4398024
  24.7886027  18.7326823  32.6588024  26.6066027  19.5816823  31.3608024
  25.9566027  19.2556823  30.1278024  32.3596027  21.9496823  31.1658024
  31.4936027  21.8726823  32.0228024  33.3416027  25.1796823  31.4258024
  30.7846027  24.2716823  29.9998024  33.9676027  25.8016823  29.3618024
  32.5106027  25.1386823  28.6508024  33.5266027  23.2966823  27.9118024
  35.6226027  23.6546823  27.1048024  31.3046027  19.6006823  31.0578024
  32.6816027  18.8976823  30.2178024  31.6616027  19.1196823  28.0948024
  30.3666027  18.5836823  29.1418024  30.8246027  21.3886823  27.9888024
  29.5326027  20.2716823  27.6008024  28.5336027  21.9566823  28.9438024
  29.8656027  21.9546823  30.1068024  26.9716027  21.6016823  30.6858024
  28.8336027  20.4666823  32.8558024  29.7996027  22.2596823  32.1228024
  26.3916027  22.2906823  33.2518024  26.7556027  21.7496823  35.6888024
  28.2856027  20.9596823  35.2628024  28.6466027  23.1046823  34.0828024
  24.9026027  20.7236823  32.1148024  24.6756027  18.3886823  31.7508024
  27.2046027  18.7326823  31.7248024  26.6696027  19.2066823  29.4588024
  41.0986027  24.9116823  29.2828024  40.0376027  24.6476823  29.8208024
  39.0936027  25.6416823  30.4948024  39.5846027  26.0336823  31.3848024
  37.8626027  24.7906823  30.9038024  36.6786027  25.3106823  30.0558024
  36.5616027  24.6646823  28.6748024  37.0576027  26.7956823  29.8978024
  38.5786027  26.7956823  29.6058024  39.4086027  28.0696823  29.7868024
  37.6516027  24.9326823  31.9718024  39.4936027  23.3756823  29.9838024
  40.2646027  22.1416823  29.7198024  40.3136027  21.7096823  28.2358024
  38.9936027  21.8066823  27.4248024  37.7576027  21.0586823  27.9768024
  38.1546027  19.7596823  28.4468024  37.0536027  18.8656823  28.7188024
  36.7376027  18.7986823  30.2368024  36.2416027  20.0516823  30.7168024
  35.6736027  17.6916823  30.4878024  35.3156027  17.4886823  31.9758024
  34.5596027  18.6086823  32.4468024  36.1816027  16.4376823  29.9828024
  36.4076027  16.4196823  28.5638024  36.9036027  15.1526823  28.1818024
  37.4826027  17.4716823  28.2198024  37.6866027  17.5166823  26.8048024
  38.2786027  23.3476823  30.6618024  37.6906027  22.3526823  31.0498024
  35.7506027  25.2036823  30.6288024  37.4536027  24.7546823  28.0588024
  36.8636027  27.2716823  30.8638024  36.4726027  27.2986823  29.1158024
  38.7106027  26.4956823  28.5578024  40.4426027  27.9126823  29.4758024
  39.8276027  21.3216823  30.3038024  41.2906027  22.2826823  30.0858024
  41.0596027  22.3346823  27.7288024  40.6966027  20.6836823  28.1848024
  38.7306027  22.8626823  27.2928024  39.1956027  21.4256823  26.4168024
  37.0196027  20.9696823  27.1688024  37.2876027  21.6356823  28.7768024
  36.1466027  19.1636823  28.1738024  37.6546027  18.5186823  30.7778024
  36.9696027  20.7156823  30.6978024  34.7536027  17.9516823  29.9478024
  34.7266027  16.5666823  32.0808024  36.2366027  17.3636823  32.5608024
  35.0336027  19.4016823  32.1178024  35.4736027  16.6366823  28.0268024
  37.3276027  15.3466823  27.3238024  38.4076027  17.1826823  28.7388024
  38.2126027  18.3246823  26.6438024  39.9126027  32.0476823  34.1058024
  39.2766027  31.1356823  33.6048024  38.0026027  31.2776823  32.7768024
  37.1956027  31.6286823  33.4348024  37.6846027  29.8416823  32.2958024
  37.7806027  29.8496823  30.7508024  39.1066027  29.3016823  30.2508024
  37.5836027  31.3286823  30.3698024  38.1556027  32.1766823  31.5268024
  37.4566027  33.5106823  31.7358024  36.6776027  29.5716823  32.6058024
  39.5696027  29.7806823  33.7088024  40.5356027  29.2636823  34.7008024
  42.0236027  29.4196823  34.3048024  42.4046027  29.0336823  32.8528024
  41.9916027  27.6236823  32.3798024  42.2416027  26.6716823  33.4258024
  42.0786027  25.2926823  33.0328024  41.0586027  24.6126823  33.9778024
  39.7516027  25.1476823  33.7478024  41.0396027  23.0736823  33.7508024
  40.1706027  22.3166823  34.7768024  38.7916027  22.6566823  34.5908024
  42.3836027  22.5626823  33.8688024  43.3206027  23.0936823  32.9178024
  44.5856027  22.5046823  33.1338024  43.4556027  24.6096823  33.1578024
  44.3646027  25.1686823  32.2038024  38.6776027  28.9456823  33.0388024
  38.6486027  27.7266823  33.0978024  36.9466027  29.3096823  30.3028024
  39.9146027  30.0326823  30.2818024  36.5026027  31.5026823  30.2818024
  38.0376027  31.5796823  29.4048024  39.2276027  32.3476823  31.3528024
  37.6146027  33.9466823  32.7248024  40.3336027  28.1986823  34.8728024
  40.3646027  29.7786823  35.6548024  42.3076027  30.4686823  34.4558024
  42.6326027  28.8376823  35.0078024  41.9786027  29.7706823  32.1608024
  43.4936027  29.1236823  32.7528024  42.5566027  27.3726823  31.4728024
  40.9316027  27.6306823  32.1168024  41.7366027  25.1996823  31.9918024
  41.3726027  24.7996823  35.0168024  39.8006027  26.1286823  33.7548024
  40.6566027  22.8546823  32.7448024  40.3166027  21.2346823  34.6458024
  40.5046027  22.5746823  35.7918024  38.7946027  23.5766823  34.2398024
  42.9836027  22.8946823  31.8918024  45.1896027  23.1456823  32.7118024
  43.8286027  24.7526823  34.1838024  44.3416027  26.1366823  32.3308024
  35.2886027  37.6956823  27.1398024  35.8026027  37.2816823  28.1628024
  35.0976027  37.0346823  29.4958024  34.5716027  37.9406823  29.8238024
  36.2376027  36.6646823  30.4868024  35.8256027  35.3566823  31.2148024
  36.6406027  34.1266823  30.8648024  34.3616027  35.1126823  30.8138024
  34.1556027  35.8116823  29.4618024  32.6906027  36.0976823  29.1928024
  36.3796027  37.4806823  31.2068024  37.1416027  36.9396823  28.3248024
  38.1566027  37.2056823  27.2798024  38.1696027  36.2326823  26.0728024
  37.7806027  34.7516823  26.3258024  38.5156027  34.0186823  27.4678024
  39.9256027  34.2866823  27.3948024  40.6656027  33.8736823  28.5658024
  41.7946027  34.9026823  28.8318024  41.2376027  36.1786823  29.1658024
  42.7436027  34.4126823  29.9698024  44.0156027  35.2796823  30.1108024
  43.6756027  36.5916823  30.5628024  43.1866027  33.0636823  29.6908024
  42.1376027  32.0946823  29.5488024  42.6956027  30.8196823  29.3028024
  41.3056027  32.4906823  28.3148024  40.3216027  31.4886823  28.0428024
  37.4946027  36.5716823  29.6228024  38.6156027  36.2706823  30.0048024
  35.8806027  35.5166823  32.3008024  36.4566027  33.7206823  29.8718024
  33.7086027  35.5406823  31.5838024  34.1266027  34.0466823  30.7228024
  34.5206027  35.1246823  28.6848024  32.3136027  35.6776823  28.2598024
  39.1496027  37.1736823  27.7458024  38.0176027  38.2306823  26.9108024
  37.4726027  36.6256823  25.3218024  39.1616027  36.2726823  25.6078024
  36.7026027  34.6976823  26.5218024  37.9456027  34.1946823  25.3968024
  38.3076027  32.9456823  27.3918024  38.1126027  34.3596823  28.4238024
  40.0186027  33.8286823  29.4538024  42.3946027  34.9956823  27.9138024
  40.3166027  36.0576823  29.4908024  42.2056027  34.4286823  30.9278024
  44.6976027  34.8006823  30.8278024  44.5336027  35.3256823  29.1438024
  42.8646027  36.8516823  30.0758024  41.5146027  32.0666823  30.4538024
  42.0266027  30.4176823  28.7148024  42.0026027  32.5816823  27.4678024
  39.8666027  31.7766823  27.2268024  29.9796027  36.5546823  34.3048024
  29.9236027  36.0816823  33.1818024  29.1606027  36.6666823  31.9968024
  28.0896027  36.5296823  32.1838024  29.5856027  35.8036823  30.7878024
  30.3456027  36.7556823  29.8278024  31.8436027  36.6926823  30.0498024
  29.7786027  38.1536823  30.1578024  29.4986027  38.1416823  31.6758024
  28.3846027  39.0636823  32.1448024  28.6936027  35.3996823  30.2908024
  30.4876027  34.8746823  32.7798024  30.4866027  33.7256823  33.7208024
  31.6216027  33.7046823  34.7688024  33.0586027  33.7646823  34.2128024
  33.3796027  32.8146823  33.0468024  33.0686027  31.4596823  33.3908024
  33.5156027  30.4996823  32.4058024  32.4426027  30.2576823  31.3038024
  32.4096027  31.3726823  30.4018024  32.7606027  28.9816823  30.4578024
  31.5556027  28.5076823  29.6168024  31.4056027  29.3466823  28.4708024
  33.1606027  27.8696823  31.2888024  34.2676027  28.1366823  32.1518024
  34.6366027  26.9636823  32.8468024  33.7896027  29.1916823  33.1618024
  34.7726027  29.4096823  34.1798024  30.3816027  34.6446823  31.4028024
  30.7696027  33.6416823  30.8218024  30.1146027  36.4916823  28.7858024
  32.1996027  37.0926823  30.9988024  28.8376027  38.2906823  29.6078024
  30.4626027  38.9606823  29.8658024  30.4266027  38.3926823  32.2028024
  27.8816027  38.7286823  33.0548024  30.5246027  32.7896823  33.1488024
  29.5266027  33.7276823  34.2538024  31.4846027  34.5446823  35.4608024
  31.5176027  32.7986823  35.3728024  33.2466027  34.7816823  33.8608024
  33.7666027  33.5846823  35.0298024  34.4456027  32.9156823  32.8038024
  32.7996027  33.1266823  32.1758024  34.4516027  30.8276823  31.9328024
  31.4656027  30.1116823  31.7918024  31.8086027  32.0706823  30.7498024
  33.5846027  29.2116823  29.7678024  31.7236027  27.4706823  29.2978024
  30.6466027  28.5166823  30.2348024  31.4926027  30.2716823  28.7798024
  35.1166027  28.5076823  31.5688024  35.0436027  27.3156823  33.6658024
  32.8386027  28.8426823  33.5908024  34.4746027  30.2026823  34.6718024
  28.6186027  45.2046823  32.5928024  28.2946027  44.0676823  32.8888024
  26.9486027  43.4076823  32.6048024  26.1566027  43.9716823  33.1158024
  27.0596027  41.9816823  33.2068024  26.7576027  40.9716823  32.0648024
  27.9616027  40.1936823  31.5538024  26.1056027  41.8126823  30.9488024
  26.6556027  43.2416823  31.0988024  25.7076027  44.2926823  30.5518024
  26.3286027  41.8666823  34.0158024  29.0846027  43.1416823  33.5578024
  30.3696027  43.5226823  34.1828024  31.5626027  43.6576823  33.2058024
  31.6906027  42.5816823  32.0938024  31.6206027  41.1096823  32.5468024
  32.3396027  40.9546823  33.7828024  32.2546027  39.6436823  34.3798024
  32.1706027  39.7956823  35.9198024  30.9316027  40.4076823  36.2948024
  32.3146027  38.4106823  36.6238024  32.4416027  38.5206823  38.1598024
  31.2096027  38.9706823  38.7278024  33.5106027  37.7516823  36.1488024
  33.5356027  37.5076823  34.7368024  34.7446027  36.8676823  34.3848024
  33.5406027  38.8686823  34.0198024  33.6756027  38.6846823  32.6058024
  28.4606027  41.9226823  33.8178024  28.9226027  41.0036823  34.4768024
  26.0186027  40.2426823  32.4288024  28.4406027  40.5726823  30.6518024
  25.0226027  41.8246823  31.1088024  26.2876027  41.4076823  29.9438024
  27.6076027  43.2936823  30.5498024  26.1266027  44.9156823  29.7608024
  30.6276027  42.7746823  34.9408024  30.2336027  44.4746823  34.7128024
  31.4926027  44.6356823  32.7138024  32.4896027  43.6826823  33.7918024
  30.9076027  42.7486823  31.3438024  32.6436027  42.7406823  31.5758024
  32.0276027  40.4696823  31.7548024  30.5726027  40.8256823  32.6778024
  31.3686027  39.0896823  34.0418024  33.0066027  40.4286823  36.2498024
  30.3546027  40.5056823  35.5028024  31.4366027  37.7906823  36.3908024
  32.7046027  37.5356823  38.5688024  33.2576027  39.2116823  38.4098024
  30.8656027  39.6636823  38.1258024  32.6686027  36.9056823  34.4318024
  34.9146027  37.2816823  33.5158024  34.3966027  39.4386823  34.4158024
  33.6086027  39.5866823  32.2318024  19.0246027  43.9906823  30.8938024
  20.1746027  44.0626823  30.4938024  21.0386027  45.3146823  30.4528024
  20.4956027  46.1206823  29.9588024  22.2846027  44.9276823  29.6208024
  23.5126027  45.5206823  30.3668024  24.4386027  44.4746823  30.9558024
  22.9146027  46.4166823  31.4718024  21.5536027  45.7846823  31.8278024
  20.4996027  46.6046823  32.5718024  22.1986027  45.3556823  28.6118024
  20.9216027  43.0226823  29.9548024  20.2756027  41.7746823  29.4878024
  19.8626027  40.7786823  30.5978024  20.8476027  40.5976823  31.7808024
  22.3236027  40.3536823  31.4108024  22.3976027  39.3826823  30.3518024
  23.7316027  39.1336823  29.8578024  23.6716027  38.9506823  28.3208024
  23.3276027  40.1876823  27.6848024  25.0376027  38.4486823  27.7638024
  24.9716027  38.0456823  26.2738024  24.8606027  39.2126823  25.4578024
  25.4766027  37.2866823  28.5048024  25.6496027  37.4996823  29.9128024
  26.0796027  36.3016823  30.5238024  24.2756027  37.8476823  30.5148024
  24.4026027  37.9966823  31.9338024  22.1866027  43.4006823  29.4968024
  23.0216027  42.6456823  29.0208024  24.0816027  46.1506823  29.6678024
  24.0106027  43.8556823  31.7428024  22.7626027  47.4146823  31.0438024
  23.5796027  46.5006823  32.3408024  21.7596027  44.8876823  32.4298024
  19.5826027  46.0326823  32.7188024  20.9616027  41.2586823  28.8068024
  19.3876027  42.0396823  28.8998024  18.9016027  41.1066823  31.0128024
  19.6716027  39.8036823  30.1328024  20.7966027  41.4856823  32.4228024
  20.4966027  39.7596823  32.3928024  22.8666027  40.0206823  32.3028024
  22.7716027  41.2996823  31.0928024  24.4046027  39.9676823  30.0758024
  22.9096027  38.1916823  28.0938024  23.1896027  40.8916823  28.3588024
  25.7856027  39.2466823  27.8678024  25.8846027  37.4936823  26.0098024
  24.1186027  37.3746823  26.1108024  24.1756027  39.7806823  25.8708024
  26.3736027  38.3056823  30.0988024  25.6626027  36.3826823  31.4038024
  23.5926027  37.0196823  30.2688024  23.4976027  38.1526823  32.2698024
  18.5616027  52.2256823  31.9958024  19.4126027  51.3796823  31.7868024
  20.7306027  51.2156823  32.5398024  21.3536027  52.1066823  32.3858024
  21.4086027  49.9706823  31.9038024  21.5896027  48.9266823  33.0428024
  20.4946027  47.8676823  33.0548024  21.5406027  49.7766823  34.3298024
  20.5376027  50.9146823  34.0438024  20.6766027  52.1596823  34.9028024
  22.3826027  50.2536823  31.4848024  19.3536027  50.3846823  30.8198024
  18.2746027  50.3376823  29.8078024  16.9296027  49.7746823  30.3288024
  16.9916027  48.4376823  31.1108024  17.6236027  47.2436823  30.3668024
  17.0346027  47.1406823  29.0638024  17.4776027  46.0066823  28.2878024
  18.4406027  46.4806823  27.1698024  19.6756027  46.9306823  27.7368024
  18.7176027  45.3236823  26.1638024  19.5496027  45.7596823  24.9368024
  20.8876027  46.0676823  25.3368024  17.4586027  44.8206823  25.6708024
  16.6006027  44.2596823  26.6748024  15.4136027  43.7916823  26.0678024
  16.2166027  45.3716823  27.6688024  15.3966027  44.8276823  28.7088024
  20.4766027  49.5616823  30.7588024  20.6956027  48.7146823  29.9068024
  22.5796027  48.4696823  32.9918024  19.5806027  48.1966823  33.5468024
  22.5396027  50.1966823  34.5048024  21.2606027  49.1876823  35.2138024
  19.5216027  50.5186823  34.1828024  20.0296027  52.9866823  34.6008024
  18.6066027  49.7256823  28.9608024  18.1106027  51.3546823  29.4278024
  16.4766027  50.5266823  30.9868024  16.2436027  49.6666823  29.4788024
  17.5376027  48.5936823  32.0488024  15.9706027  48.1616823  31.3978024
  17.4506027  46.3276823  30.9468024  18.7036027  47.3896823  30.2928024
  17.9746027  45.2506823  28.9128024  17.9526027  47.2966823  26.6168024
  19.4896027  47.6396823  28.3868024  19.2576027  44.5156823  26.6748024
  19.5566027  44.9446823  24.2008024  19.0746027  46.6286823  24.4638024
  20.8116027  46.5856823  26.1658024  17.1076027  43.4356823  27.1958024
  14.7926027  43.7616823  26.8198024  15.6716027  46.1456823  27.1068024
  15.3356027  45.5206823  29.3958024  21.4936027  52.3186823  35.9578024
  22.1536027  51.5336823  36.3228024  21.5136027  53.2576823  36.5098024
  53.0297600  63.4854890  49.3806630  52.1982480  63.2303600  49.7803140
  53.6378580  63.5565660  50.1164550  51.4389550  58.4456780  43.1649020
  50.5506250  58.7872750  43.0628900  51.7230740  58.2457100  42.2729850
  49.4022560  61.0462430  49.0488720  49.9738670  60.2784630  49.0492360
  49.4024100  61.3451190  48.1395330  50.6447430  56.4546790  50.8357650
  50.4650270  55.5572540  51.1160410  50.2427510  57.0018660  51.5104600
  53.6150940  57.0288280  44.1987400  53.7217690  57.9292010  44.5056160
  52.7043300  56.9806250  43.9082050  51.2634100  58.9507290  49.4439990
  51.9444210  59.2145660  50.0627390  50.9482150  58.1108160  49.7778000
  55.4558670  59.9974650  48.5312580  55.9636890  60.4955620  49.1717600
  55.9871910  59.2209850  48.3551940  53.7394770  54.6373210  52.7976000
  53.7413210  55.1545600  51.9921900  52.9099080  54.1603390  52.7745930
  54.9897620  64.2768390  50.9749500  54.6567000  64.9037310  51.6170570
  55.1664300  64.8030270  50.1951170  53.4210100  56.3483170  50.8046450
  53.7626910  57.1925220  50.5100320  52.4825910  56.4966910  50.9211790
  49.4949060  65.4349050  41.6705530  49.1177040  65.9236150  40.9390430
  49.7522130  66.1074330  42.3012060  57.1037990  53.8365440  47.1291040
  57.4112970  53.2812330  46.4126540  56.1738690  53.9709900  46.9464030
  55.0975390  62.4279010  46.6470890  54.6932390  61.7156260  46.1516790
  55.1838510  62.0832250  47.5358930  55.5657090  66.1146570  48.8110100
  55.2685380  65.5092040  48.1317880  56.5156910  66.1523880  48.6999460
  53.8104010  59.2022220  50.4269930  54.3618600  59.3117560  49.6523180
  54.3247520  59.5759820  51.1425160  54.6575520  65.8528260  55.4617900
  53.7604050  66.0768230  55.7091300  54.6828390  65.9763200  54.5129300
  53.4846740  62.7241580  54.0375270  53.3454510  63.5964380  54.4062670
  52.6028100  62.3814390  53.8923210  51.7980020  61.3223990  44.1477540
  51.6777620  62.0486080  43.5358810  51.4880910  60.5526900  43.6705450
  49.4365390  64.4939130  49.9546180  49.5145810  64.6287900  49.0101900
  50.0507070  63.7855020  50.1474300  50.6813020  66.1939320  46.3652360
  50.2741100  66.3353910  45.5105960  51.5726030  65.9099480  46.1623570
  49.4924910  65.5353300  52.4940640  49.6555950  65.0658660  51.6760010
  49.9577360  65.0276860  53.1589480  54.2643680  54.6659060  47.5301210
  53.8211830  55.4468600  47.1985730  54.8228670  54.9888950  48.2372150
  57.3802500  54.2869760  42.4107040  56.7556680  54.2829630  43.1360350
  57.2932620  53.4200720  42.0143010  56.3019580  55.2106390  49.3890810
  56.5991910  56.1169220  49.3082830  56.8505140  54.7225170  48.7750380
  54.0557900  59.7892630  45.2582460  53.8298820  59.5729800  46.1629080
  53.2750430  60.2221090  44.9128430  56.4957110  60.6878210  55.9242730
  56.4000710  59.7472940  55.7743130  57.3389090  60.9093280  55.5290800
  51.6267650  57.0991880  54.0776510  51.2331040  57.9467090  54.2849290
  50.9386050  56.4618250  54.2685150  48.9284700  55.0220340  48.1106590
  48.6397750  55.5923200  48.8231570  49.6730460  54.5424790  48.4737820
  49.1154930  58.9640460  39.3209310  49.0329600  59.9071220  39.4624300
  48.7637990  58.8215370  38.4421660  56.9153060  57.6979490  48.3879660
  56.9189120  57.2569440  47.5384200  57.8104180  58.0196820  48.4951480
  52.7655440  57.5805980  47.3473870  52.4255490  58.0581210  48.1040920
  52.0032760  57.1271100  46.9874970  56.9773210  58.6991570  41.3786420
  57.0986030  58.6578050  42.3272240  56.5921720  59.5615720  41.2233150
  55.9894710  61.0092710  40.7769720  55.4211610  60.5610960  40.1505630
  56.6983710  61.3685490  40.2434870  51.0663890  64.9104730  54.6536450
  50.6818680  64.2698400  55.2519410  51.3776080  65.6140850  55.2231180
  57.2161030  61.7581270  50.1345070  57.5831160  61.2839840  50.8806410
  57.0266090  62.6322840  50.4753410  50.0801520  56.5024960  46.2638540
  49.7948440  56.1380630  47.1017160  50.0180380  55.7705420  45.6501680
  55.0060400  60.7989910  52.4529280  54.7017470  61.6781890  52.6779640
  55.9606860  60.8589700  52.4886720  53.5342190  65.0050900  43.0496130
  52.7604450  64.4648520  42.8894850  54.2636820  64.4857510  42.7113890
  53.5779590  64.6731280  46.6874940  54.0958260  63.8699540  46.6331830
  53.1263610  64.6110420  47.5291770  51.0624130  61.6392650  53.6000640
  50.7039070  62.3046500  54.1873980  50.7678690  60.8076200  53.9713260
  54.2637250  62.0976890  56.4840190  53.9637390  62.2434070  55.5868010
  55.0348490  61.5382180  56.3913580  57.4339780  66.0211090  44.7318160
  58.1210910  66.5680300  45.1125750  56.6472200  66.5651820  44.7667770
  49.5732180  61.6383910  40.2235240  50.4427030  61.9208710  40.5071160
  49.0822500  62.4519780  40.1084050  56.7366990  63.0257120  44.3443520
  57.1929770  63.8362370  44.5703710  56.3855200  62.7080260  45.1762010
  52.6378770  53.3694770  44.8166040  52.5093400  53.3612670  45.7650960
  51.8140790  53.7077860  44.4657050  49.6372700  55.1285890  54.2772740
  48.9231220  55.3282810  54.8825350  50.0567740  54.3525460  54.6487540
  51.5578690  63.4557380  42.3517300  50.9506640  64.1956280  42.3612600
  52.0328040  63.5456740  41.5255500  56.4657540  58.8551090  44.2519630
  55.7573690  59.3237430  44.6933240  56.7502020  58.1973100  44.8864820
  54.6692560  57.1636170  41.6270340  55.5183090  57.6006320  41.5610530
  54.3023830  57.4756430  42.4542400  53.5683980  63.4168530  40.1005870
  54.3347250  63.3049890  40.6631300  53.6458670  62.7206500  39.4482640
  52.2630740  60.8493600  40.7838760  52.3434330  59.9021110  40.8956160
  53.1550490  61.1800480  40.8899420  49.7901540  62.6708520  56.0194930
  50.2940560  62.0915800  56.5911160  49.0508960  62.9548750  56.5571300
  56.6925160  65.3922710  39.5741220  56.5875800  64.7775060  40.3002600
  56.5249380  64.8688600  38.7904230  56.8439480  64.0779510  55.5530450
  56.0785150  64.6464510  55.4685120  57.0255440  63.7855720  54.6598680
  55.6003010  63.4133660  42.0748510  56.0219430  63.2473530  42.9179900
  55.7253850  62.6033890  41.5803650  53.7630430  59.3930210  54.8819490
  53.2326890  58.9021160  54.2542830  54.4318500  59.8214410  54.3477420
  54.2502730  56.3592580  54.9616780  54.1559600  55.7413330  54.2367650
  53.6700120  57.0858870  54.7346690  57.0164170  54.9165820  51.9944170
  56.5681470  54.9390080  51.1489720  56.3829370  54.5184840  52.5914470
  57.4223720  63.8120150  52.6156610  57.8411830  64.6552880  52.4432850
  56.5032350  63.9492190  52.3863390  54.4961910  59.4866890  39.0206670
  54.2950970  58.6234250  39.3820010  54.3253960  59.4000250  38.0828270
  56.5256390  58.0857680  55.2570270  57.1156080  57.7773530  55.9448090
  55.7076630  57.6137430  55.4130170  53.2944710  56.5867510  39.0084550
  53.5970610  56.5934940  38.1003700  54.0339300  56.2365370  39.5052210
  56.5129640  55.5302130  39.9940750  56.1651640  54.8526120  39.4143200
  56.7142410  55.0691640  40.8084140  52.3174840  65.8909930  39.8414350
  52.7549710  66.4339600  40.4971930  52.8022570  65.0656880  39.8510690
  49.8535280  62.0589780  46.3905120  49.1984120  61.7901420  45.7464820
  50.6913230  61.9494260  45.9407100  50.8911210  62.4442350  50.9308460
  51.2584250  62.3569750  51.8104480  50.3222030  61.6808900  50.8315320
  50.4427210  59.3551440  54.8366880  49.5483260  59.3218200  55.1760590
  50.9824760  59.5538230  55.6018130  49.0673360  59.2688710  42.3330450
  48.1637440  59.5318910  42.1582110  49.5513980  59.5399880  41.5530410
  51.6100570  58.3254250  40.2424830  52.3192270  57.9037470  39.7572110
  50.8940510  58.3929480  39.6108180  51.2574730  54.3793580  39.2827480
  51.9802860  54.9202520  39.6008700  51.5299250  54.1057000  38.4069020
  50.9466920  53.6299770  49.1850100  51.5943110  53.0797150  48.7445260
  51.3668760  53.8842920  50.0065910  50.6998920  53.7855440  51.9275420
  50.3513740  54.2419260  52.6933600  50.3686620  52.8912570  52.0097850
  51.3719560  53.3131640  55.2026190  51.9202550  53.1319690  54.4392300
  51.4374870  52.5225750  55.7382500  50.6821570  54.4186840  42.8763050
  51.4400930  54.5315720  42.3027080  50.2198740  55.2556040  42.8306480
  57.2235380  56.5326110  45.8665360  56.4109890  56.1583000  45.5261240
  57.7277020  55.7771190  46.1686550  53.0546720  54.9450890  41.4165020
  53.5839480  54.1580690  41.2872970  53.6875040  55.6242080  41.6500550
  55.2484560  54.6826030  44.4710410  54.6187300  53.9813340  44.6380540
  54.7089700  55.4430160  44.2543570  55.3740120  53.9610010  56.9062900
  55.0924390  54.4643610  56.1423720  55.7559820  53.1631760  56.5405030
  53.0297600  63.4854890  30.6063140  52.1982480  63.2303600  31.0059650
  53.6378580  63.5565660  31.3421060  51.4389550  58.4456780  24.3905530
  50.5506250  58.7872750  24.2885410  51.7230740  58.2457100  23.4986360
  49.4022560  61.0462430  30.2745230  49.9738670  60.2784630  30.2748870
  49.4024100  61.3451190  29.3651840  50.6447430  56.4546790  32.0614160
  50.4650270  55.5572540  32.3416920  50.2427510  57.0018660  32.7361110
  53.6150940  57.0288280  25.4243910  53.7217690  57.9292010  25.7312670
  52.7043300  56.9806250  25.1338560  51.2634100  58.9507290  30.6696500
  51.9444210  59.2145660  31.2883900  50.9482150  58.1108160  31.0034510
  55.4558670  59.9974650  29.7569090  55.9636890  60.4955620  30.3974110
  55.9871910  59.2209850  29.5808450  53.7394770  54.6373210  34.0232510
  53.7413210  55.1545600  33.2178410  52.9099080  54.1603390  34.0002440
  54.9897620  64.2768390  32.2006010  54.6567000  64.9037310  32.8427080
  55.1664300  64.8030270  31.4207680  53.4210100  56.3483170  32.0302960
  53.7626910  57.1925220  31.7356830  52.4825910  56.4966910  32.1468300
  49.4949060  65.4349050  22.8962040  49.1177040  65.9236150  22.1646940
  49.7522130  66.1074330  23.5268570  57.1037990  53.8365440  28.3547550
  57.4112970  53.2812330  27.6383050  56.1738690  53.9709900  28.1720540
  55.0975390  62.4279010  27.8727400  54.6932390  61.7156260  27.3773300
  55.1838510  62.0832250  28.7615440  55.5657090  66.1146570  30.0366610
  55.2685380  65.5092040  29.3574390  56.5156910  66.1523880  29.9255970
  53.8104010  59.2022220  31.6526440  54.3618600  59.3117560  30.8779690
  54.3247520  59.5759820  32.3681670  54.6575520  65.8528260  36.6874410
  53.7604050  66.0768230  36.9347810  54.6828390  65.9763200  35.7385810
  53.4846740  62.7241580  35.2631780  53.3454510  63.5964380  35.6319180
  52.6028100  62.3814390  35.1179720  51.7980020  61.3223990  25.3734050
  51.6777620  62.0486080  24.7615320  51.4880910  60.5526900  24.8961960
  49.4365390  64.4939130  31.1802690  49.5145810  64.6287900  30.2358410
  50.0507070  63.7855020  31.3730810  50.6813020  66.1939320  27.5908870
  50.2741100  66.3353910  26.7362470  51.5726030  65.9099480  27.3880080
  49.4924910  65.5353300  33.7197150  49.6555950  65.0658660  32.9016520
  49.9577360  65.0276860  34.3845990  54.2643680  54.6659060  28.7557720
  53.8211830  55.4468600  28.4242240  54.8228670  54.9888950  29.4628660
  57.3802500  54.2869760  23.6363550  56.7556680  54.2829630  24.3616860
  57.2932620  53.4200720  23.2399520  56.3019580  55.2106390  30.6147320
  56.5991910  56.1169220  30.5339340  56.8505140  54.7225170  30.0006890
  54.0557900  59.7892630  26.4838970  53.8298820  59.5729800  27.3885590
  53.2750430  60.2221090  26.1384940  56.4957110  60.6878210  37.1499240
  56.4000710  59.7472940  36.9999640  57.3389090  60.9093280  36.7547310
  51.6267650  57.0991880  35.3033020  51.2331040  57.9467090  35.5105800
  50.9386050  56.4618250  35.4941660  48.9284700  55.0220340  29.3363100
  48.6397750  55.5923200  30.0488080  49.6730460  54.5424790  29.6994330
  49.1154930  58.9640460  20.5465820  49.0329600  59.9071220  20.6880810
  48.7637990  58.8215370  19.6678170  56.9153060  57.6979490  29.6136170
  56.9189120  57.2569440  28.7640710  57.8104180  58.0196820  29.7207990
  52.7655440  57.5805980  28.5730380  52.4255490  58.0581210  29.3297430
  52.0032760  57.1271100  28.2131480  56.9773210  58.6991570  22.6042930
  57.0986030  58.6578050  23.5528750  56.5921720  59.5615720  22.4489660
  55.9894710  61.0092710  22.0026230  55.4211610  60.5610960  21.3762140
  56.6983710  61.3685490  21.4691380  51.0663890  64.9104730  35.8792960
  50.6818680  64.2698400  36.4775920  51.3776080  65.6140850  36.4487690
  57.2161030  61.7581270  31.3601580  57.5831160  61.2839840  32.1062920
  57.0266090  62.6322840  31.7009920  50.0801520  56.5024960  27.4895050
  49.7948440  56.1380630  28.3273670  50.0180380  55.7705420  26.8758190
  55.0060400  60.7989910  33.6785790  54.7017470  61.6781890  33.9036150
  55.9606860  60.8589700  33.7143230  53.5342190  65.0050900  24.2752640
  52.7604450  64.4648520  24.1151360  54.2636820  64.4857510  23.9370400
  53.5779590  64.6731280  27.9131450  54.0958260  63.8699540  27.8588340
  53.1263610  64.6110420  28.7548280  51.0624130  61.6392650  34.8257150
  50.7039070  62.3046500  35.4130490  50.7678690  60.8076200  35.1969770
  54.2637250  62.0976890  37.7096700  53.9637390  62.2434070  36.8124520
  55.0348490  61.5382180  37.6170090  57.4339780  66.0211090  25.9574670
  58.1210910  66.5680300  26.3382260  56.6472200  66.5651820  25.9924280
  49.5732180  61.6383910  21.4491750  50.4427030  61.9208710  21.7327670
  49.0822500  62.4519780  21.3340560  56.7366990  63.0257120  25.5700030
  57.1929770  63.8362370  25.7960220  56.3855200  62.7080260  26.4018520
  52.6378770  53.3694770  26.0422550  52.5093400  53.3612670  26.9907470
  51.8140790  53.7077860  25.6913560  49.6372700  55.1285890  35.5029250
  48.9231220  55.3282810  36.1081860  50.0567740  54.3525460  35.8744050
  51.5578690  63.4557380  23.5773810  50.9506640  64.1956280  23.5869110
  52.0328040  63.5456740  22.7512010  56.4657540  58.8551090  25.4776140
  55.7573690  59.3237430  25.9189750  56.7502020  58.1973100  26.1121330
  54.6692560  57.1636170  22.8526850  55.5183090  57.6006320  22.7867040
  54.3023830  57.4756430  23.6798910  53.5683980  63.4168530  21.3262380
  54.3347250  63.3049890  21.8887810  53.6458670  62.7206500  20.6739150
  52.2630740  60.8493600  22.0095270  52.3434330  59.9021110  22.1212670
  53.1550490  61.1800480  22.1155930  49.7901540  62.6708520  37.2451440
  50.2940560  62.0915800  37.8167670  49.0508960  62.9548750  37.7827810
  56.6925160  65.3922710  20.7997730  56.5875800  64.7775060  21.5259110
  56.5249380  64.8688600  20.0160740  56.8439480  64.0779510  36.7786960
  56.0785150  64.6464510  36.6941630  57.0255440  63.7855720  35.8855190
  51.8224620  60.8138110  38.1401510  51.8629960  60.5151980  39.0486740
  52.6770120  61.2145720  37.9809030  55.6003010  63.4133660  23.3005020
  56.0219430  63.2473530  24.1436410  55.7253850  62.6033890  22.8060160
  53.7630430  59.3930210  36.1076000  53.2326890  58.9021160  35.4799340
  54.4318500  59.8214410  35.5733930  54.2502730  56.3592580  36.1873290
  54.1559600  55.7413330  35.4624160  53.6700120  57.0858870  35.9603200
  57.0164170  54.9165820  33.2200680  56.5681470  54.9390080  32.3746230
  56.3829370  54.5184840  33.8170980  57.4223720  63.8120150  33.8413120
  57.8411830  64.6552880  33.6689360  56.5032350  63.9492190  33.6119900
  54.4961910  59.4866890  20.2463180  54.2950970  58.6234250  20.6076520
  54.3253960  59.4000250  19.3084780  56.5256390  58.0857680  36.4826780
  57.1156080  57.7773530  37.1704600  55.7076630  57.6137430  36.6386680
  53.2944710  56.5867510  20.2341060  53.5970610  56.5934940  19.3260210
  54.0339300  56.2365370  20.7308720  56.5129640  55.5302130  21.2197260
  56.1651640  54.8526120  20.6399710  56.7142410  55.0691640  22.0340650
  52.3174840  65.8909930  21.0670860  52.7549710  66.4339600  21.7228440
  52.8022570  65.0656880  21.0767200  49.8535280  62.0589780  27.6161630
  49.1984120  61.7901420  26.9721330  50.6913230  61.9494260  27.1663610
  50.8911210  62.4442350  32.1564970  51.2584250  62.3569750  33.0360990
  50.3222030  61.6808900  32.0571830  50.4427210  59.3551440  36.0623390
  49.5483260  59.3218200  36.4017100  50.9824760  59.5538230  36.8274640
  49.0673360  59.2688710  23.5586960  48.1637440  59.5318910  23.3838620
  49.5513980  59.5399880  22.7786920  51.6100570  58.3254250  21.4681340
  52.3192270  57.9037470  20.9828620  50.8940510  58.3929480  20.8364690
  51.2574730  54.3793580  20.5083990  51.9802860  54.9202520  20.8265210
  51.5299250  54.1057000  19.6325530  50.9466920  53.6299770  30.4106610
  51.5943110  53.0797150  29.9701770  51.3668760  53.8842920  31.2322420
  50.6998920  53.7855440  33.1531930  50.3513740  54.2419260  33.9190110
  50.3686620  52.8912570  33.2354360  51.3719560  53.3131640  36.4282700
  51.9202550  53.1319690  35.6648810  51.4374870  52.5225750  36.9639010
  50.6821570  54.4186840  24.1019560  51.4400930  54.5315720  23.5283590
  50.2198740  55.2556040  24.0562990  57.2235380  56.5326110  27.0921870
  56.4109890  56.1583000  26.7517750  57.7277020  55.7771190  27.3943060
  53.0546720  54.9450890  22.6421530  53.5839480  54.1580690  22.5129480
  53.6875040  55.6242080  22.8757060  55.2484560  54.6826030  25.6966920
  54.6187300  53.9813340  25.8637050  54.7089700  55.4430160  25.4800080
  55.3740120  53.9610010  38.1319410  55.0924390  54.4643610  37.3680230
  55.7559820  53.1631760  37.7661540  53.0297600  63.4854890  11.8319650
  52.1982480  63.2303600  12.2316160  53.6378580  63.5565660  12.5677570
  51.4389550  58.4456780   5.6162040  50.5506250  58.7872750   5.5141920
  51.7230740  58.2457100   4.7242870  49.4022560  61.0462430  11.5001740
  49.9738670  60.2784630  11.5005380  49.4024100  61.3451190  10.5908350
  50.6447430  56.4546790  13.2870670  50.4650270  55.5572540  13.5673430
  50.2427510  57.0018660  13.9617620  53.6150940  57.0288280   6.6500420
  53.7217690  57.9292010   6.9569180  52.7043300  56.9806250   6.3595070
  51.2634100  58.9507290  11.8953010  51.9444210  59.2145660  12.5140410
  50.9482150  58.1108160  12.2291020  55.4558670  59.9974650  10.9825600
  55.9636890  60.4955620  11.6230620  55.9871910  59.2209850  10.8064960
  53.7394770  54.6373210  15.2489020  53.7413210  55.1545600  14.4434920
  52.9099080  54.1603390  15.2258950  54.9897620  64.2768390  13.4262520
  54.6567000  64.9037310  14.0683590  55.1664300  64.8030270  12.6464190
  53.4210100  56.3483170  13.2559470  53.7626910  57.1925220  12.9613340
  52.4825910  56.4966910  13.3724810  49.4949060  65.4349050   4.1218550
  49.1177040  65.9236150   3.3903450  49.7522130  66.1074330   4.7525080
  57.1037990  53.8365440   9.5804060  57.4112970  53.2812330   8.8639560
  56.1738690  53.9709900   9.3977050  55.0975390  62.4279010   9.0983910
  54.6932390  61.7156260   8.6029810  55.1838510  62.0832250   9.9871950
  55.5657090  66.1146570  11.2623120  55.2685380  65.5092040  10.5830900
  56.5156910  66.1523880  11.1512480  53.8104010  59.2022220  12.8782950
  54.3618600  59.3117560  12.1036200  54.3247520  59.5759820  13.5938180
  54.6575520  65.8528260  17.9130920  53.7604050  66.0768230  18.1604320
  54.6828390  65.9763200  16.9642320  53.4846740  62.7241580  16.4888290
  53.3454510  63.5964380  16.8575690  52.6028100  62.3814390  16.3436230
  51.7980020  61.3223990   6.5990560  51.6777620  62.0486080   5.9871830
  51.4880910  60.5526900   6.1218470  49.4365390  64.4939130  12.4059200
  49.5145810  64.6287900  11.4614920  50.0507070  63.7855020  12.5987320
  50.6813020  66.1939320   8.8165380  50.2741100  66.3353910   7.9618980
  51.5726030  65.9099480   8.6136590  49.4924910  65.5353300  14.9453660
  49.6555950  65.0658660  14.1273030  49.9577360  65.0276860  15.6102500
  54.2643680  54.6659060   9.9814230  53.8211830  55.4468600   9.6498750
  54.8228670  54.9888950  10.6885170  57.3802500  54.2869760   4.8620060
  56.7556680  54.2829630   5.5873370  57.2932620  53.4200720   4.4656030
  56.3019580  55.2106390  11.8403830  56.5991910  56.1169220  11.7595850
  56.8505140  54.7225170  11.2263400  54.0557900  59.7892630   7.7095480
  53.8298820  59.5729800   8.6142100  53.2750430  60.2221090   7.3641450
  56.4957110  60.6878210  18.3755750  56.4000710  59.7472940  18.2256150
  57.3389090  60.9093280  17.9803820  51.6267650  57.0991880  16.5289530
  51.2331040  57.9467090  16.7362310  50.9386050  56.4618250  16.7198170
  48.9284700  55.0220340  10.5619610  48.6397750  55.5923200  11.2744590
  49.6730460  54.5424790  10.9250840  56.9153060  57.6979490  10.8392680
  56.9189120  57.2569440   9.9897220  57.8104180  58.0196820  10.9464500
  52.7655440  57.5805980   9.7986890  52.4255490  58.0581210  10.5553940
  52.0032760  57.1271100   9.4387990  56.9773210  58.6991570   3.8299440
  57.0986030  58.6578050   4.7785260  56.5921720  59.5615720   3.6746170
  55.9894710  61.0092710   3.2282740  55.4211610  60.5610960   2.6018650
  56.6983710  61.3685490   2.6947890  51.0663890  64.9104730  17.1049470
  50.6818680  64.2698400  17.7032430  51.3776080  65.6140850  17.6744200
  57.2161030  61.7581270  12.5858090  57.5831160  61.2839840  13.3319430
  57.0266090  62.6322840  12.9266430  50.0801520  56.5024960   8.7151560
  49.7948440  56.1380630   9.5530180  50.0180380  55.7705420   8.1014700
  55.0060400  60.7989910  14.9042300  54.7017470  61.6781890  15.1292660
  55.9606860  60.8589700  14.9399740  53.5342190  65.0050900   5.5009150
  52.7604450  64.4648520   5.3407870  54.2636820  64.4857510   5.1626910
  53.5779590  64.6731280   9.1387960  54.0958260  63.8699540   9.0844850
  53.1263610  64.6110420   9.9804790  51.0624130  61.6392650  16.0513660
  50.7039070  62.3046500  16.6387000  50.7678690  60.8076200  16.4226280
  54.2637250  62.0976890  18.9353210  53.9637390  62.2434070  18.0381030
  55.0348490  61.5382180  18.8426600  57.4339780  66.0211090   7.1831180
  58.1210910  66.5680300   7.5638770  56.6472200  66.5651820   7.2180790
  49.5732180  61.6383910   2.6748260  50.4427030  61.9208710   2.9584180
  49.0822500  62.4519780   2.5597070  56.7366990  63.0257120   6.7956540
  57.1929770  63.8362370   7.0216730  56.3855200  62.7080260   7.6275030
  52.6378770  53.3694770   7.2679060  52.5093400  53.3612670   8.2163980
  51.8140790  53.7077860   6.9170070  49.6372700  55.1285890  16.7285760
  48.9231220  55.3282810  17.3338370  50.0567740  54.3525460  17.1000560
  51.5578690  63.4557380   4.8030320  50.9506640  64.1956280   4.8125620
  52.0328040  63.5456740   3.9768520  56.4657540  58.8551090   6.7032650
  55.7573690  59.3237430   7.1446260  56.7502020  58.1973100   7.3377840
  54.6692560  57.1636170   4.0783360  55.5183090  57.6006320   4.0123550
  54.3023830  57.4756430   4.9055420  53.5683980  63.4168530   2.5518890
  54.3347250  63.3049890   3.1144320  53.6458670  62.7206500   1.8995660
  52.2630740  60.8493600   3.2351780  52.3434330  59.9021110   3.3469180
  53.1550490  61.1800480   3.3412440  49.7901540  62.6708520  18.4707950
  50.2940560  62.0915800  19.0424180  49.0508960  62.9548750  19.0084320
  56.8439480  64.0779510  18.0043470  56.0785150  64.6464510  17.9198140
  57.0255440  63.7855720  17.1111700  51.8224620  60.8138110  19.3658020
  51.8629960  60.5151980  20.2743250  52.6770120  61.2145720  19.2065540
  55.6003010  63.4133660   4.5261530  56.0219430  63.2473530   5.3692920
  55.7253850  62.6033890   4.0316670  53.7630430  59.3930210  17.3332510
  53.2326890  58.9021160  16.7055850  54.4318500  59.8214410  16.7990440
  54.2502730  56.3592580  17.4129800  54.1559600  55.7413330  16.6880670
  53.6700120  57.0858870  17.1859710  57.0164170  54.9165820  14.4457190
  56.5681470  54.9390080  13.6002740  56.3829370  54.5184840  15.0427490
  57.4223720  63.8120150  15.0669630  57.8411830  64.6552880  14.8945870
  56.5032350  63.9492190  14.8376410  56.5256390  58.0857680  17.7083290
  57.1156080  57.7773530  18.3961110  55.7076630  57.6137430  17.8643190
  56.5129640  55.5302130   2.4453770  56.1651640  54.8526120   1.8656220
  56.7142410  55.0691640   3.2597160  52.3174840  65.8909930   2.2927370
  52.7549710  66.4339600   2.9484950  52.8022570  65.0656880   2.3023710
  49.8535280  62.0589780   8.8418140  49.1984120  61.7901420   8.1977840
  50.6913230  61.9494260   8.3920120  50.8911210  62.4442350  13.3821480
  51.2584250  62.3569750  14.2617500  50.3222030  61.6808900  13.2828340
  50.4427210  59.3551440  17.2879900  49.5483260  59.3218200  17.6273610
  50.9824760  59.5538230  18.0531150  49.0673360  59.2688710   4.7843470
  48.1637440  59.5318910   4.6095130  49.5513980  59.5399880   4.0043430
  51.6100570  58.3254250   2.6937850  52.3192270  57.9037470   2.2085130
  50.8940510  58.3929480   2.0621200  50.9466920  53.6299770  11.6363120
  51.5943110  53.0797150  11.1958280  51.3668760  53.8842920  12.4578930
  50.6998920  53.7855440  14.3788440  50.3513740  54.2419260  15.1446620
  50.3686620  52.8912570  14.4610870  51.3719560  53.3131640  17.6539210
  51.9202550  53.1319690  16.8905320  51.4374870  52.5225750  18.1895520
  50.6821570  54.4186840   5.3276070  51.4400930  54.5315720   4.7540100
  50.2198740  55.2556040   5.2819500  57.2235380  56.5326110   8.3178380
  56.4109890  56.1583000   7.9774260  57.7277020  55.7771190   8.6199570
  53.0546720  54.9450890   3.8678040  53.5839480  54.1580690   3.7385990
  53.6875040  55.6242080   4.1013570  55.2484560  54.6826030   6.9223430
  54.6187300  53.9813340   7.0893560  54.7089700  55.4430160   6.7056590
  55.3740120  53.9610010  19.3575920  55.0924390  54.4643610  18.5936740
  55.7559820  53.1631760  18.9918050  53.0297600  44.7111400  49.3806630
  52.1982480  44.4560110  49.7803140  53.6378580  44.7822170  50.1164550
  53.0098860  48.7451490  49.5764650  53.3126900  47.8549230  49.3974870
  53.7542450  49.3021710  49.3486900  51.4389550  39.6713290  43.1649020
  50.5506250  40.0129260  43.0628900  51.7230740  39.4713610  42.2729850
  49.4022560  42.2718940  49.0488720  49.9738670  41.5041140  49.0492360
  49.4024100  42.5707700  48.1395330  50.6447430  37.6803300  50.8357650
  50.4650270  36.7829050  51.1160410  50.2427510  38.2275170  51.5104600
  53.6150940  38.2544790  44.1987400  53.7217690  39.1548520  44.5056160
  52.7043300  38.2062760  43.9082050  51.2634100  40.1763800  49.4439990
  51.9444210  40.4402170  50.0627390  50.9482150  39.3364670  49.7778000
  55.4558670  41.2231160  48.5312580  55.9636890  41.7212130  49.1717600
  55.9871910  40.4466360  48.3551940  53.7394770  35.8629720  52.7976000
  53.7413210  36.3802110  51.9921900  52.9099080  35.3859900  52.7745930
  54.9897620  45.5024900  50.9749500  54.6567000  46.1293820  51.6170570
  55.1664300  46.0286780  50.1951170  53.4210100  37.5739680  50.8046450
  53.7626910  38.4181730  50.5100320  52.4825910  37.7223420  50.9211790
  54.2016720  47.4705700  52.7898680  54.8190720  48.1456780  52.5083130
  53.3409840  47.8793680  52.6986180  49.4949060  46.6605560  41.6705530
  49.1177040  47.1492660  40.9390430  49.7522130  47.3330840  42.3012060
  57.1037990  35.0621950  47.1291040  57.4112970  34.5068840  46.4126540
  56.1738690  35.1966410  46.9464030  55.0975390  43.6535520  46.6470890
  54.6932390  42.9412770  46.1516790  55.1838510  43.3088760  47.5358930
  55.5657090  47.3403080  48.8110100  55.2685380  46.7348550  48.1317880
  56.5156910  47.3780390  48.6999460  53.8104010  40.4278730  50.4269930
  54.3618600  40.5374070  49.6523180  54.3247520  40.8016330  51.1425160
  54.6575520  47.0784770  55.4617900  53.7604050  47.3024740  55.7091300
  54.6828390  47.2019710  54.5129300  53.4846740  43.9498090  54.0375270
  53.3454510  44.8220890  54.4062670  52.6028100  43.6070900  53.8923210
  55.2827090  49.8919790  56.2460420  55.2542520  50.2962740  55.3788850
  55.1192060  48.9630150  56.0832020  51.7980020  42.5480500  44.1477540
  51.6777620  43.2742590  43.5358810  51.4880910  41.7783410  43.6705450
  49.4365390  45.7195640  49.9546180  49.5145810  45.8544410  49.0101900
  50.0507070  45.0111530  50.1474300  50.6813020  47.4195830  46.3652360
  50.2741100  47.5610420  45.5105960  51.5726030  47.1355990  46.1623570
  54.9534680  51.6341610  44.4775030  54.7777160  50.7177150  44.2642830
  54.0990420  51.9928900  44.7172830  49.4924910  46.7609810  52.4940640
  49.6555950  46.2915170  51.6760010  49.9577360  46.2533370  53.1589480
  54.2643680  35.8915570  47.5301210  53.8211830  36.6725110  47.1985730
  54.8228670  36.2145460  48.2372150  57.3802500  35.5126270  42.4107040
  56.7556680  35.5086140  43.1360350  57.2932620  34.6457230  42.0143010
  56.3019580  36.4362900  49.3890810  56.5991910  37.3425730  49.3082830
  56.8505140  35.9481680  48.7750380  54.0557900  41.0149140  45.2582460
  53.8298820  40.7986310  46.1629080  53.2750430  41.4477600  44.9128430
  56.4957110  41.9134720  55.9242730  56.4000710  40.9729450  55.7743130
  57.3389090  42.1349790  55.5290800  51.6267650  38.3248390  54.0776510
  51.2331040  39.1723600  54.2849290  50.9386050  37.6874760  54.2685150
  48.9284700  36.2476850  48.1106590  48.6397750  36.8179710  48.8231570
  49.6730460  35.7681300  48.4737820  49.1154930  40.1896970  39.3209310
  49.0329600  41.1327730  39.4624300  48.7637990  40.0471880  38.4421660
  56.9153060  38.9236000  48.3879660  56.9189120  38.4825950  47.5384200
  57.8104180  39.2453330  48.4951480  52.7655440  38.8062490  47.3473870
  52.4255490  39.2837720  48.1040920  52.0032760  38.3527610  46.9874970
  56.9773210  39.9248080  41.3786420  57.0986030  39.8834560  42.3272240
  56.5921720  40.7872230  41.2233150  55.9894710  42.2349220  40.7769720
  55.4211610  41.7867470  40.1505630  56.6983710  42.5942000  40.2434870
  51.0663890  46.1361240  54.6536450  50.6818680  45.4954910  55.2519410
  51.3776080  46.8397360  55.2231180  57.2161030  42.9837780  50.1345070
  57.5831160  42.5096350  50.8806410  57.0266090  43.8579350  50.4753410
  50.0801520  37.7281470  46.2638540  49.7948440  37.3637140  47.1017160
  50.0180380  36.9961930  45.6501680  55.0060400  42.0246420  52.4529280
  54.7017470  42.9038400  52.6779640  55.9606860  42.0846210  52.4886720
  53.5342190  46.2307410  43.0496130  52.7604450  45.6905030  42.8894850
  54.2636820  45.7114020  42.7113890  53.5779590  45.8987790  46.6874940
  54.0958260  45.0956050  46.6331830  53.1263610  45.8366930  47.5291770
  51.0624130  42.8649160  53.6000640  50.7039070  43.5303010  54.1873980
  50.7678690  42.0332710  53.9713260  54.2637250  43.3233400  56.4840190
  53.9637390  43.4690580  55.5868010  55.0348490  42.7638690  56.3913580
  57.4339780  47.2467600  44.7318160  58.1210910  47.7936810  45.1125750
  56.6472200  47.7908330  44.7667770  49.5732180  42.8640420  40.2235240
  50.4427030  43.1465220  40.5071160  49.0822500  43.6776290  40.1084050
  56.7366990  44.2513630  44.3443520  57.1929770  45.0618880  44.5703710
  56.3855200  43.9336770  45.1762010  52.6378770  34.5951280  44.8166040
  52.5093400  34.5869180  45.7650960  51.8140790  34.9334370  44.4657050
  49.9403430  52.0767800  40.7896870  50.3001070  52.6757140  40.1354140
  49.7995770  52.6227690  41.5631900  49.6372700  36.3542400  54.2772740
  48.9231220  36.5539320  54.8825350  50.0567740  35.5781970  54.6487540
  49.9245290  50.3422660  55.2639270  50.0336410  49.4017400  55.1234660
  49.2725850  50.6077410  54.6153000  57.9157880  48.6138550  56.6637390
  57.5954750  47.8947790  57.2083080  57.2416240  49.2893620  56.7373450
  55.9572050  49.4599000  41.6070540  55.9482150  50.1928690  40.9915050
  55.0370410  49.2130580  41.6997500  51.5578690  44.6813890  42.3517300
  50.9506640  45.4212790  42.3612600  52.0328040  44.7713250  41.5255500
  56.4657540  40.0807600  44.2519630  55.7573690  40.5493940  44.6933240
  56.7502020  39.4229610  44.8864820  57.5849760  52.0413560  44.9643400
  57.8391260  52.0034950  44.0422770  56.6362240  51.9146890  44.9571650
  54.6692560  38.3892680  41.6270340  55.5183090  38.8262830  41.5610530
  54.3023830  38.7012940  42.4542400  53.5683980  44.6425040  40.1005870
  54.3347250  44.5306400  40.6631300  53.6458670  43.9463010  39.4482640
  52.2630740  42.0750110  40.7838760  52.3434330  41.1277620  40.8956160
  53.1550490  42.4056990  40.8899420  53.0645450  52.2245500  47.8873300
  53.8007930  51.6760960  48.1581870  53.4486370  53.0901510  47.7479290
  49.9490930  48.2919070  43.7614810  49.0230710  48.5340210  43.7520220
  50.4147360  49.1193330  43.6399560  56.1747760  51.3975810  39.7098870
  56.9676370  51.6864640  39.2580660  55.6552110  50.9667980  39.0311350
  49.7901540  43.8965030  56.0194930  50.2940560  43.3172310  56.5911160
  49.0508960  44.1805260  56.5571300  56.6925160  46.6179220  39.5741220
  56.5875800  46.0031570  40.3002600  56.5249380  46.0945110  38.7904230
  56.8439480  45.3036020  55.5530450  56.0785150  45.8721020  55.4685120
  57.0255440  45.0112230  54.6598680  55.6003010  44.6390170  42.0748510
  56.0219430  44.4730040  42.9179900  55.7253850  43.8290400  41.5803650
  53.7630430  40.6186720  54.8819490  53.2326890  40.1277670  54.2542830
  54.4318500  41.0470920  54.3477420  54.2502730  37.5849090  54.9616780
  54.1559600  36.9669840  54.2367650  53.6700120  38.3115380  54.7346690
  57.0164170  36.1422330  51.9944170  56.5681470  36.1646590  51.1489720
  56.3829370  35.7441350  52.5914470  57.4223720  45.0376660  52.6156610
  57.8411830  45.8809390  52.4432850  56.5032350  45.1748700  52.3863390
  54.4961910  40.7123400  39.0206670  54.2950970  39.8490760  39.3820010
  54.3253960  40.6256760  38.0828270  55.2731140  51.3429670  53.7314340
  54.7352230  52.0675730  53.4123040  55.5265100  50.8660010  52.9411680
  56.5256390  39.3114190  55.2570270  57.1156080  39.0030040  55.9448090
  55.7076630  38.8393940  55.4130170  53.2944710  37.8124020  39.0084550
  53.5970610  37.8191450  38.1003700  54.0339300  37.4621880  39.5052210
  58.1293350  52.5780880  53.9900990  58.0552050  53.4816020  54.2973360
  57.2272190  52.2592780  53.9623060  56.5129640  36.7558640  39.9940750
  56.1651640  36.0782630  39.4143200  56.7142410  36.2948150  40.8084140
  52.3174840  47.1166440  39.8414350  52.7549710  47.6596110  40.4971930
  52.8022570  46.2913390  39.8510690  49.5320640  49.9055470  47.2934610
  49.8623650  49.0376530  47.0613250  49.9611640  50.1113990  48.1239570
  54.1282560  48.2364480  44.9536580  53.8278100  48.1129450  45.8540490
  54.0220050  47.3773070  44.5452310  50.0210850  50.7726060  50.0316240
  49.5841840  50.9526860  50.8640390  50.5888530  51.5300680  49.8897960
  49.8535280  43.2846290  46.3905120  49.1984120  43.0157930  45.7464820
  50.6913230  43.1750770  45.9407100  50.8911210  43.6698860  50.9308460
  51.2584250  43.5826260  51.8104480  50.3222030  42.9065410  50.8315320
  50.4427210  40.5807950  54.8366880  49.5483260  40.5474710  55.1760590
  50.9824760  40.7794740  55.6018130  49.0673360  40.4945220  42.3330450
  48.1637440  40.7575420  42.1582110  49.5513980  40.7656390  41.5530410
  51.6100570  39.5510760  40.2424830  52.3192270  39.1293980  39.7572110
  50.8940510  39.6185990  39.6108180  51.2574730  35.6050090  39.2827480
  51.9802860  36.1459030  39.6008700  51.5299250  35.3313510  38.4069020
  50.9466920  34.8556280  49.1850100  51.5943110  34.3053660  48.7445260
  51.3668760  35.1099430  50.0065910  50.6998920  35.0111950  51.9275420
  50.3513740  35.4675770  52.6933600  50.3686620  34.1169080  52.0097850
  52.3063290  48.1831550  56.0928610  52.2632920  47.8124460  56.9743070
  52.4374300  49.1209120  56.2330430  56.0069320  49.7391140  51.6938330
  55.7660680  50.0065700  50.8068850  56.9471960  49.9096870  51.7489190
  51.3719560  34.5388150  55.2026190  51.9202550  34.3576200  54.4392300
  51.4374870  33.7482260  55.7382500  52.1451320  51.1293800  53.2126390
  51.5511640  50.9978500  53.9516430  52.1375160  50.2931940  52.7468490
  51.7763550  48.4952180  52.1634430  51.0497610  47.8757470  52.0960380
  51.8372700  48.8892790  51.2932510  55.3808650  50.7097180  48.9483840
  55.8973670  50.0984540  48.4232100  56.0306030  51.2125960  49.4394850
  50.0593550  51.8126570  45.3731190  49.8915590  51.1797250  46.0713080
  49.1928060  52.0185970  45.0225380  50.6821570  35.6443350  42.8763050
  51.4400930  35.7572230  42.3027080  50.2198740  36.4812550  42.8306480
  57.2235380  37.7582620  45.8665360  56.4109890  37.3839510  45.5261240
  57.7277020  37.0027700  46.1686550  51.6656250  50.5059800  42.8181330
  51.1403870  50.8867830  42.1143290  51.5900830  51.1310570  43.5391040
  53.0546720  36.1707400  41.4165020  53.5839480  35.3837200  41.2872970
  53.6875040  36.8498590  41.6500550  55.2484560  35.9082540  44.4710410
  54.6187300  35.2069850  44.6380540  54.7089700  36.6686670  44.2543570
  55.3740120  35.1866520  56.9062900  55.0924390  35.6900120  56.1423720
  55.7559820  34.3888270  56.5405030  54.2649220  52.4542180  41.6930580
  54.9968040  52.1701460  41.1454470  54.5242890  52.2155460  42.5829960
  53.4264010  48.5706910  41.6976910  52.7972890  49.0392010  42.2462740
  53.5411840  47.7256130  42.1323100  53.0297600  44.7111400  30.6063140
  52.1982480  44.4560110  31.0059650  53.6378580  44.7822170  31.3421060
  53.0098860  48.7451490  30.8021160  53.3126900  47.8549230  30.6231380
  53.7542450  49.3021710  30.5743410  51.4389550  39.6713290  24.3905530
  50.5506250  40.0129260  24.2885410  51.7230740  39.4713610  23.4986360
  49.4022560  42.2718940  30.2745230  49.9738670  41.5041140  30.2748870
  49.4024100  42.5707700  29.3651840  50.6447430  37.6803300  32.0614160
  50.4650270  36.7829050  32.3416920  50.2427510  38.2275170  32.7361110
  53.6150940  38.2544790  25.4243910  53.7217690  39.1548520  25.7312670
  52.7043300  38.2062760  25.1338560  51.2634100  40.1763800  30.6696500
  51.9444210  40.4402170  31.2883900  50.9482150  39.3364670  31.0034510
  55.4558670  41.2231160  29.7569090  55.9636890  41.7212130  30.3974110
  55.9871910  40.4466360  29.5808450  53.7394770  35.8629720  34.0232510
  53.7413210  36.3802110  33.2178410  52.9099080  35.3859900  34.0002440
  54.9897620  45.5024900  32.2006010  54.6567000  46.1293820  32.8427080
  55.1664300  46.0286780  31.4207680  53.4210100  37.5739680  32.0302960
  53.7626910  38.4181730  31.7356830  52.4825910  37.7223420  32.1468300
  54.2016720  47.4705700  34.0155190  54.8190720  48.1456780  33.7339640
  53.3409840  47.8793680  33.9242690  49.4949060  46.6605560  22.8962040
  49.1177040  47.1492660  22.1646940  49.7522130  47.3330840  23.5268570
  57.1037990  35.0621950  28.3547550  57.4112970  34.5068840  27.6383050
  56.1738690  35.1966410  28.1720540  55.0975390  43.6535520  27.8727400
  54.6932390  42.9412770  27.3773300  55.1838510  43.3088760  28.7615440
  55.5657090  47.3403080  30.0366610  55.2685380  46.7348550  29.3574390
  56.5156910  47.3780390  29.9255970  53.8104010  40.4278730  31.6526440
  54.3618600  40.5374070  30.8779690  54.3247520  40.8016330  32.3681670
  54.6575520  47.0784770  36.6874410  53.7604050  47.3024740  36.9347810
  54.6828390  47.2019710  35.7385810  53.4846740  43.9498090  35.2631780
  53.3454510  44.8220890  35.6319180  52.6028100  43.6070900  35.1179720
  55.2827090  49.8919790  37.4716930  55.2542520  50.2962740  36.6045360
  55.1192060  48.9630150  37.3088530  51.7980020  42.5480500  25.3734050
  51.6777620  43.2742590  24.7615320  51.4880910  41.7783410  24.8961960
  49.4365390  45.7195640  31.1802690  49.5145810  45.8544410  30.2358410
  50.0507070  45.0111530  31.3730810  50.6813020  47.4195830  27.5908870
  50.2741100  47.5610420  26.7362470  51.5726030  47.1355990  27.3880080
  54.9534680  51.6341610  25.7031540  54.7777160  50.7177150  25.4899340
  54.0990420  51.9928900  25.9429340  49.4924910  46.7609810  33.7197150
  49.6555950  46.2915170  32.9016520  49.9577360  46.2533370  34.3845990
  54.2643680  35.8915570  28.7557720  53.8211830  36.6725110  28.4242240
  54.8228670  36.2145460  29.4628660  57.3802500  35.5126270  23.6363550
  56.7556680  35.5086140  24.3616860  57.2932620  34.6457230  23.2399520
  56.3019580  36.4362900  30.6147320  56.5991910  37.3425730  30.5339340
  56.8505140  35.9481680  30.0006890  54.0557900  41.0149140  26.4838970
  53.8298820  40.7986310  27.3885590  53.2750430  41.4477600  26.1384940
  56.4957110  41.9134720  37.1499240  56.4000710  40.9729450  36.9999640
  57.3389090  42.1349790  36.7547310  51.6267650  38.3248390  35.3033020
  51.2331040  39.1723600  35.5105800  50.9386050  37.6874760  35.4941660
  48.9284700  36.2476850  29.3363100  48.6397750  36.8179710  30.0488080
  49.6730460  35.7681300  29.6994330  49.1154930  40.1896970  20.5465820
  49.0329600  41.1327730  20.6880810  48.7637990  40.0471880  19.6678170
  56.9153060  38.9236000  29.6136170  56.9189120  38.4825950  28.7640710
  57.8104180  39.2453330  29.7207990  52.7655440  38.8062490  28.5730380
  52.4255490  39.2837720  29.3297430  52.0032760  38.3527610  28.2131480
  56.9773210  39.9248080  22.6042930  57.0986030  39.8834560  23.5528750
  56.5921720  40.7872230  22.4489660  55.9894710  42.2349220  22.0026230
  55.4211610  41.7867470  21.3762140  56.6983710  42.5942000  21.4691380
  51.0663890  46.1361240  35.8792960  50.6818680  45.4954910  36.4775920
  51.3776080  46.8397360  36.4487690  57.2161030  42.9837780  31.3601580
  57.5831160  42.5096350  32.1062920  57.0266090  43.8579350  31.7009920
  50.0801520  37.7281470  27.4895050  49.7948440  37.3637140  28.3273670
  50.0180380  36.9961930  26.8758190  55.0060400  42.0246420  33.6785790
  54.7017470  42.9038400  33.9036150  55.9606860  42.0846210  33.7143230
  53.5342190  46.2307410  24.2752640  52.7604450  45.6905030  24.1151360
  54.2636820  45.7114020  23.9370400  53.5779590  45.8987790  27.9131450
  54.0958260  45.0956050  27.8588340  53.1263610  45.8366930  28.7548280
  51.0624130  42.8649160  34.8257150  50.7039070  43.5303010  35.4130490
  50.7678690  42.0332710  35.1969770  54.2637250  43.3233400  37.7096700
  53.9637390  43.4690580  36.8124520  55.0348490  42.7638690  37.6170090
  57.4339780  47.2467600  25.9574670  58.1210910  47.7936810  26.3382260
  56.6472200  47.7908330  25.9924280  49.5732180  42.8640420  21.4491750
  50.4427030  43.1465220  21.7327670  49.0822500  43.6776290  21.3340560
  56.7366990  44.2513630  25.5700030  57.1929770  45.0618880  25.7960220
  56.3855200  43.9336770  26.4018520  52.6378770  34.5951280  26.0422550
  52.5093400  34.5869180  26.9907470  51.8140790  34.9334370  25.6913560
  49.9403430  52.0767800  22.0153380  50.3001070  52.6757140  21.3610650
  49.7995770  52.6227690  22.7888410  49.6372700  36.3542400  35.5029250
  48.9231220  36.5539320  36.1081860  50.0567740  35.5781970  35.8744050
  49.9245290  50.3422660  36.4895780  50.0336410  49.4017400  36.3491170
  49.2725850  50.6077410  35.8409510  57.9157880  48.6138550  37.8893900
  57.5954750  47.8947790  38.4339590  57.2416240  49.2893620  37.9629960
  55.9572050  49.4599000  22.8327050  55.9482150  50.1928690  22.2171560
  55.0370410  49.2130580  22.9254010  51.5578690  44.6813890  23.5773810
  50.9506640  45.4212790  23.5869110  52.0328040  44.7713250  22.7512010
  56.4657540  40.0807600  25.4776140  55.7573690  40.5493940  25.9189750
  56.7502020  39.4229610  26.1121330  57.5849760  52.0413560  26.1899910
  57.8391260  52.0034950  25.2679280  56.6362240  51.9146890  26.1828160
  54.6692560  38.3892680  22.8526850  55.5183090  38.8262830  22.7867040
  54.3023830  38.7012940  23.6798910  53.5683980  44.6425040  21.3262380
  54.3347250  44.5306400  21.8887810  53.6458670  43.9463010  20.6739150
  52.2630740  42.0750110  22.0095270  52.3434330  41.1277620  22.1212670
  53.1550490  42.4056990  22.1155930  53.0645450  52.2245500  29.1129810
  53.8007930  51.6760960  29.3838380  53.4486370  53.0901510  28.9735800
  49.9490930  48.2919070  24.9871320  49.0230710  48.5340210  24.9776730
  50.4147360  49.1193330  24.8656070  52.0703730  51.4091570  38.3015390
  52.8716460  51.7303620  38.7150790  51.5555550  51.0487150  39.0235300
  56.1747760  51.3975810  20.9355380  56.9676370  51.6864640  20.4837170
  55.6552110  50.9667980  20.2567860  49.7901540  43.8965030  37.2451440
  50.2940560  43.3172310  37.8167670  49.0508960  44.1805260  37.7827810
  56.6925160  46.6179220  20.7997730  56.5875800  46.0031570  21.5259110
  56.5249380  46.0945110  20.0160740  56.8439480  45.3036020  36.7786960
  56.0785150  45.8721020  36.6941630  57.0255440  45.0112230  35.8855190
  51.8224620  42.0394620  38.1401510  51.8629960  41.7408490  39.0486740
  52.6770120  42.4402230  37.9809030  55.6003010  44.6390170  23.3005020
  56.0219430  44.4730040  24.1436410  55.7253850  43.8290400  22.8060160
  53.7630430  40.6186720  36.1076000  53.2326890  40.1277670  35.4799340
  54.4318500  41.0470920  35.5733930  54.2502730  37.5849090  36.1873290
  54.1559600  36.9669840  35.4624160  53.6700120  38.3115380  35.9603200
  57.0164170  36.1422330  33.2200680  56.5681470  36.1646590  32.3746230
  56.3829370  35.7441350  33.8170980  57.4223720  45.0376660  33.8413120
  57.8411830  45.8809390  33.6689360  56.5032350  45.1748700  33.6119900
  54.4961910  40.7123400  20.2463180  54.2950970  39.8490760  20.6076520
  54.3253960  40.6256760  19.3084780  55.2731140  51.3429670  34.9570850
  54.7352230  52.0675730  34.6379550  55.5265100  50.8660010  34.1668190
  56.5256390  39.3114190  36.4826780  57.1156080  39.0030040  37.1704600
  55.7076630  38.8393940  36.6386680  53.2944710  37.8124020  20.2341060
  53.5970610  37.8191450  19.3260210  54.0339300  37.4621880  20.7308720
  58.1293350  52.5780880  35.2157500  58.0552050  53.4816020  35.5229870
  57.2272190  52.2592780  35.1879570  56.5129640  36.7558640  21.2197260
  56.1651640  36.0782630  20.6399710  56.7142410  36.2948150  22.0340650
  52.3174840  47.1166440  21.0670860  52.7549710  47.6596110  21.7228440
  52.8022570  46.2913390  21.0767200  49.5320640  49.9055470  28.5191120
  49.8623650  49.0376530  28.2869760  49.9611640  50.1113990  29.3496080
  54.1282560  48.2364480  26.1793090  53.8278100  48.1129450  27.0797000
  54.0220050  47.3773070  25.7708820  50.0210850  50.7726060  31.2572750
  49.5841840  50.9526860  32.0896900  50.5888530  51.5300680  31.1154470
  49.8535280  43.2846290  27.6161630  49.1984120  43.0157930  26.9721330
  50.6913230  43.1750770  27.1663610  50.8911210  43.6698860  32.1564970
  51.2584250  43.5826260  33.0360990  50.3222030  42.9065410  32.0571830
  50.4427210  40.5807950  36.0623390  49.5483260  40.5474710  36.4017100
  50.9824760  40.7794740  36.8274640  49.0673360  40.4945220  23.5586960
  48.1637440  40.7575420  23.3838620  49.5513980  40.7656390  22.7786920
  51.6100570  39.5510760  21.4681340  52.3192270  39.1293980  20.9828620
  50.8940510  39.6185990  20.8364690  51.2574730  35.6050090  20.5083990
  51.9802860  36.1459030  20.8265210  51.5299250  35.3313510  19.6325530
  50.9466920  34.8556280  30.4106610  51.5943110  34.3053660  29.9701770
  51.3668760  35.1099430  31.2322420  50.6998920  35.0111950  33.1531930
  50.3513740  35.4675770  33.9190110  50.3686620  34.1169080  33.2354360
  52.3063290  48.1831550  37.3185120  52.2632920  47.8124460  38.1999580
  52.4374300  49.1209120  37.4586940  56.0069320  49.7391140  32.9194840
  55.7660680  50.0065700  32.0325360  56.9471960  49.9096870  32.9745700
  51.3719560  34.5388150  36.4282700  51.9202550  34.3576200  35.6648810
  51.4374870  33.7482260  36.9639010  52.1451320  51.1293800  34.4382900
  51.5511640  50.9978500  35.1772940  52.1375160  50.2931940  33.9725000
  51.7763550  48.4952180  33.3890940  51.0497610  47.8757470  33.3216890
  51.8372700  48.8892790  32.5189020  55.3808650  50.7097180  30.1740350
  55.8973670  50.0984540  29.6488610  56.0306030  51.2125960  30.6651360
  50.0593550  51.8126570  26.5987700  49.8915590  51.1797250  27.2969590
  49.1928060  52.0185970  26.2481890  50.6821570  35.6443350  24.1019560
  51.4400930  35.7572230  23.5283590  50.2198740  36.4812550  24.0562990
  57.2235380  37.7582620  27.0921870  56.4109890  37.3839510  26.7517750
  57.7277020  37.0027700  27.3943060  51.6656250  50.5059800  24.0437840
  51.1403870  50.8867830  23.3399800  51.5900830  51.1310570  24.7647550
  53.0546720  36.1707400  22.6421530  53.5839480  35.3837200  22.5129480
  53.6875040  36.8498590  22.8757060  55.2484560  35.9082540  25.6966920
  54.6187300  35.2069850  25.8637050  54.7089700  36.6686670  25.4800080
  55.3740120  35.1866520  38.1319410  55.0924390  35.6900120  37.3680230
  55.7559820  34.3888270  37.7661540  54.2649220  52.4542180  22.9187090
  54.9968040  52.1701460  22.3710980  54.5242890  52.2155460  23.8086470
  53.4264010  48.5706910  22.9233420  52.7972890  49.0392010  23.4719250
  53.5411840  47.7256130  23.3579610  53.0297600  44.7111400  11.8319650
  52.1982480  44.4560110  12.2316160  53.6378580  44.7822170  12.5677570
  53.0098860  48.7451490  12.0277670  53.3126900  47.8549230  11.8487890
  53.7542450  49.3021710  11.7999920  51.4389550  39.6713290   5.6162040
  50.5506250  40.0129260   5.5141920  51.7230740  39.4713610   4.7242870
  49.4022560  42.2718940  11.5001740  49.9738670  41.5041140  11.5005380
  49.4024100  42.5707700  10.5908350  50.6447430  37.6803300  13.2870670
  50.4650270  36.7829050  13.5673430  50.2427510  38.2275170  13.9617620
  53.6150940  38.2544790   6.6500420  53.7217690  39.1548520   6.9569180
  52.7043300  38.2062760   6.3595070  51.2634100  40.1763800  11.8953010
  51.9444210  40.4402170  12.5140410  50.9482150  39.3364670  12.2291020
  55.4558670  41.2231160  10.9825600  55.9636890  41.7212130  11.6230620
  55.9871910  40.4466360  10.8064960  53.7394770  35.8629720  15.2489020
  53.7413210  36.3802110  14.4434920  52.9099080  35.3859900  15.2258950
  54.9897620  45.5024900  13.4262520  54.6567000  46.1293820  14.0683590
  55.1664300  46.0286780  12.6464190  53.4210100  37.5739680  13.2559470
  53.7626910  38.4181730  12.9613340  52.4825910  37.7223420  13.3724810
  54.2016720  47.4705700  15.2411700  54.8190720  48.1456780  14.9596150
  53.3409840  47.8793680  15.1499200  49.4949060  46.6605560   4.1218550
  49.1177040  47.1492660   3.3903450  49.7522130  47.3330840   4.7525080
  57.1037990  35.0621950   9.5804060  57.4112970  34.5068840   8.8639560
  56.1738690  35.1966410   9.3977050  55.0975390  43.6535520   9.0983910
  54.6932390  42.9412770   8.6029810  55.1838510  43.3088760   9.9871950
  55.5657090  47.3403080  11.2623120  55.2685380  46.7348550  10.5830900
  56.5156910  47.3780390  11.1512480  53.8104010  40.4278730  12.8782950
  54.3618600  40.5374070  12.1036200  54.3247520  40.8016330  13.5938180
  54.6575520  47.0784770  17.9130920  53.7604050  47.3024740  18.1604320
  54.6828390  47.2019710  16.9642320  53.4846740  43.9498090  16.4888290
  53.3454510  44.8220890  16.8575690  52.6028100  43.6070900  16.3436230
  55.2827090  49.8919790  18.6973440  55.2542520  50.2962740  17.8301870
  55.1192060  48.9630150  18.5345040  51.7980020  42.5480500   6.5990560
  51.6777620  43.2742590   5.9871830  51.4880910  41.7783410   6.1218470
  49.4365390  45.7195640  12.4059200  49.5145810  45.8544410  11.4614920
  50.0507070  45.0111530  12.5987320  50.6813020  47.4195830   8.8165380
  50.2741100  47.5610420   7.9618980  51.5726030  47.1355990   8.6136590
  54.9534680  51.6341610   6.9288050  54.7777160  50.7177150   6.7155850
  54.0990420  51.9928900   7.1685850  49.4924910  46.7609810  14.9453660
  49.6555950  46.2915170  14.1273030  49.9577360  46.2533370  15.6102500
  54.2643680  35.8915570   9.9814230  53.8211830  36.6725110   9.6498750
  54.8228670  36.2145460  10.6885170  57.3802500  35.5126270   4.8620060
  56.7556680  35.5086140   5.5873370  57.2932620  34.6457230   4.4656030
  56.3019580  36.4362900  11.8403830  56.5991910  37.3425730  11.7595850
  56.8505140  35.9481680  11.2263400  54.0557900  41.0149140   7.7095480
  53.8298820  40.7986310   8.6142100  53.2750430  41.4477600   7.3641450
  56.4957110  41.9134720  18.3755750  56.4000710  40.9729450  18.2256150
  57.3389090  42.1349790  17.9803820  51.6267650  38.3248390  16.5289530
  51.2331040  39.1723600  16.7362310  50.9386050  37.6874760  16.7198170
  48.9284700  36.2476850  10.5619610  48.6397750  36.8179710  11.2744590
  49.6730460  35.7681300  10.9250840  56.9153060  38.9236000  10.8392680
  56.9189120  38.4825950   9.9897220  57.8104180  39.2453330  10.9464500
  52.7655440  38.8062490   9.7986890  52.4255490  39.2837720  10.5553940
  52.0032760  38.3527610   9.4387990  56.9773210  39.9248080   3.8299440
  57.0986030  39.8834560   4.7785260  56.5921720  40.7872230   3.6746170
  55.9894710  42.2349220   3.2282740  55.4211610  41.7867470   2.6018650
  56.6983710  42.5942000   2.6947890  51.0663890  46.1361240  17.1049470
  50.6818680  45.4954910  17.7032430  51.3776080  46.8397360  17.6744200
  57.2161030  42.9837780  12.5858090  57.5831160  42.5096350  13.3319430
  57.0266090  43.8579350  12.9266430  50.0801520  37.7281470   8.7151560
  49.7948440  37.3637140   9.5530180  50.0180380  36.9961930   8.1014700
  55.0060400  42.0246420  14.9042300  54.7017470  42.9038400  15.1292660
  55.9606860  42.0846210  14.9399740  53.5342190  46.2307410   5.5009150
  52.7604450  45.6905030   5.3407870  54.2636820  45.7114020   5.1626910
  53.5779590  45.8987790   9.1387960  54.0958260  45.0956050   9.0844850
  53.1263610  45.8366930   9.9804790  51.0624130  42.8649160  16.0513660
  50.7039070  43.5303010  16.6387000  50.7678690  42.0332710  16.4226280
  54.2637250  43.3233400  18.9353210  53.9637390  43.4690580  18.0381030
  55.0348490  42.7638690  18.8426600  57.4339780  47.2467600   7.1831180
  58.1210910  47.7936810   7.5638770  56.6472200  47.7908330   7.2180790
  49.5732180  42.8640420   2.6748260  50.4427030  43.1465220   2.9584180
  49.0822500  43.6776290   2.5597070  56.7366990  44.2513630   6.7956540
  57.1929770  45.0618880   7.0216730  56.3855200  43.9336770   7.6275030
  52.6378770  34.5951280   7.2679060  52.5093400  34.5869180   8.2163980
  51.8140790  34.9334370   6.9170070  49.9403430  52.0767800   3.2409890
  50.3001070  52.6757140   2.5867160  49.7995770  52.6227690   4.0144920
  49.6372700  36.3542400  16.7285760  48.9231220  36.5539320  17.3338370
  50.0567740  35.5781970  17.1000560  49.9245290  50.3422660  17.7152290
  50.0336410  49.4017400  17.5747680  49.2725850  50.6077410  17.0666020
  57.9157880  48.6138550  19.1150410  57.5954750  47.8947790  19.6596100
  57.2416240  49.2893620  19.1886470  55.9572050  49.4599000   4.0583560
  55.9482150  50.1928690   3.4428070  55.0370410  49.2130580   4.1510520
  51.5578690  44.6813890   4.8030320  50.9506640  45.4212790   4.8125620
  52.0328040  44.7713250   3.9768520  56.4657540  40.0807600   6.7032650
  55.7573690  40.5493940   7.1446260  56.7502020  39.4229610   7.3377840
  57.5849760  52.0413560   7.4156420  57.8391260  52.0034950   6.4935790
  56.6362240  51.9146890   7.4084670  54.6692560  38.3892680   4.0783360
  55.5183090  38.8262830   4.0123550  54.3023830  38.7012940   4.9055420
  53.5683980  44.6425040   2.5518890  54.3347250  44.5306400   3.1144320
  53.6458670  43.9463010   1.8995660  52.2630740  42.0750110   3.2351780
  52.3434330  41.1277620   3.3469180  53.1550490  42.4056990   3.3412440
  53.0645450  52.2245500  10.3386320  53.8007930  51.6760960  10.6094890
  53.4486370  53.0901510  10.1992310  49.9490930  48.2919070   6.2127830
  49.0230710  48.5340210   6.2033240  50.4147360  49.1193330   6.0912580
  52.0703730  51.4091570  19.5271900  52.8716460  51.7303620  19.9407300
  51.5555550  51.0487150  20.2491810  49.7901540  43.8965030  18.4707950
  50.2940560  43.3172310  19.0424180  49.0508960  44.1805260  19.0084320
  56.8439480  45.3036020  18.0043470  56.0785150  45.8721020  17.9198140
  57.0255440  45.0112230  17.1111700  51.8224620  42.0394620  19.3658020
  51.8629960  41.7408490  20.2743250  52.6770120  42.4402230  19.2065540
  55.6003010  44.6390170   4.5261530  56.0219430  44.4730040   5.3692920
  55.7253850  43.8290400   4.0316670  53.7630430  40.6186720  17.3332510
  53.2326890  40.1277670  16.7055850  54.4318500  41.0470920  16.7990440
  54.2502730  37.5849090  17.4129800  54.1559600  36.9669840  16.6880670
  53.6700120  38.3115380  17.1859710  57.0164170  36.1422330  14.4457190
  56.5681470  36.1646590  13.6002740  56.3829370  35.7441350  15.0427490
  57.4223720  45.0376660  15.0669630  57.8411830  45.8809390  14.8945870
  56.5032350  45.1748700  14.8376410  55.2731140  51.3429670  16.1827360
  54.7352230  52.0675730  15.8636060  55.5265100  50.8660010  15.3924700
  56.5256390  39.3114190  17.7083290  57.1156080  39.0030040  18.3961110
  55.7076630  38.8393940  17.8643190  58.1293350  52.5780880  16.4414010
  58.0552050  53.4816020  16.7486380  57.2272190  52.2592780  16.4136080
  56.5129640  36.7558640   2.4453770  56.1651640  36.0782630   1.8656220
  56.7142410  36.2948150   3.2597160  52.3174840  47.1166440   2.2927370
  52.7549710  47.6596110   2.9484950  52.8022570  46.2913390   2.3023710
  49.5320640  49.9055470   9.7447630  49.8623650  49.0376530   9.5126270
  49.9611640  50.1113990  10.5752590  54.1282560  48.2364480   7.4049600
  53.8278100  48.1129450   8.3053510  54.0220050  47.3773070   6.9965330
  50.0210850  50.7726060  12.4829260  49.5841840  50.9526860  13.3153410
  50.5888530  51.5300680  12.3410980  49.8535280  43.2846290   8.8418140
  49.1984120  43.0157930   8.1977840  50.6913230  43.1750770   8.3920120
  50.8911210  43.6698860  13.3821480  51.2584250  43.5826260  14.2617500
  50.3222030  42.9065410  13.2828340  50.4427210  40.5807950  17.2879900
  49.5483260  40.5474710  17.6273610  50.9824760  40.7794740  18.0531150
  49.0673360  40.4945220   4.7843470  48.1637440  40.7575420   4.6095130
  49.5513980  40.7656390   4.0043430  51.6100570  39.5510760   2.6937850
  52.3192270  39.1293980   2.2085130  50.8940510  39.6185990   2.0621200
  50.9466920  34.8556280  11.6363120  51.5943110  34.3053660  11.1958280
  51.3668760  35.1099430  12.4578930  50.6998920  35.0111950  14.3788440
  50.3513740  35.4675770  15.1446620  50.3686620  34.1169080  14.4610870
  52.3063290  48.1831550  18.5441630  52.2632920  47.8124460  19.4256090
  52.4374300  49.1209120  18.6843450  56.0069320  49.7391140  14.1451350
  55.7660680  50.0065700  13.2581870  56.9471960  49.9096870  14.2002210
  51.3719560  34.5388150  17.6539210  51.9202550  34.3576200  16.8905320
  51.4374870  33.7482260  18.1895520  52.1451320  51.1293800  15.6639410
  51.5511640  50.9978500  16.4029450  52.1375160  50.2931940  15.1981510
  51.7763550  48.4952180  14.6147450  51.0497610  47.8757470  14.5473400
  51.8372700  48.8892790  13.7445530  55.3808650  50.7097180  11.3996860
  55.8973670  50.0984540  10.8745120  56.0306030  51.2125960  11.8907870
  50.0593550  51.8126570   7.8244210  49.8915590  51.1797250   8.5226100
  49.1928060  52.0185970   7.4738400  50.6821570  35.6443350   5.3276070
  51.4400930  35.7572230   4.7540100  50.2198740  36.4812550   5.2819500
  57.2235380  37.7582620   8.3178380  56.4109890  37.3839510   7.9774260
  57.7277020  37.0027700   8.6199570  51.6656250  50.5059800   5.2694350
  51.1403870  50.8867830   4.5656310  51.5900830  51.1310570   5.9904060
  53.0546720  36.1707400   3.8678040  53.5839480  35.3837200   3.7385990
  53.6875040  36.8498590   4.1013570  55.2484560  35.9082540   6.9223430
  54.6187300  35.2069850   7.0893560  54.7089700  36.6686670   6.7056590
  55.3740120  35.1866520  19.3575920  55.0924390  35.6900120  18.5936740
  55.7559820  34.3888270  18.9918050  54.2649220  52.4542180   4.1443600
  54.9968040  52.1701460   3.5967490  54.5242890  52.2155460   5.0342980
  53.4264010  48.5706910   4.1489930  52.7972890  49.0392010   4.6975760
  53.5411840  47.7256130   4.5836120  53.0297600  25.9367910  49.3806630
  52.1982480  25.6816620  49.7803140  53.6378580  26.0078680  50.1164550
  53.0098860  29.9708000  49.5764650  53.3126900  29.0805740  49.3974870
  53.7542450  30.5278220  49.3486900  51.4389550  20.8969800  43.1649020
  50.5506250  21.2385770  43.0628900  51.7230740  20.6970120  42.2729850
  49.4022560  23.4975450  49.0488720  49.9738670  22.7297650  49.0492360
  49.4024100  23.7964210  48.1395330  50.6447430  18.9059810  50.8357650
  50.4650270  18.0085560  51.1160410  50.2427510  19.4531680  51.5104600
  53.6150940  19.4801300  44.1987400  53.7217690  20.3805030  44.5056160
  52.7043300  19.4319270  43.9082050  51.2634100  21.4020310  49.4439990
  51.9444210  21.6658680  50.0627390  50.9482150  20.5621180  49.7778000
  55.4558670  22.4487670  48.5312580  55.9636890  22.9468640  49.1717600
  55.9871910  21.6722870  48.3551940  53.7394770  17.0886230  52.7976000
  53.7413210  17.6058620  51.9921900  52.9099080  16.6116410  52.7745930
  54.9897620  26.7281410  50.9749500  54.6567000  27.3550330  51.6170570
  55.1664300  27.2543290  50.1951170  53.4210100  18.7996190  50.8046450
  53.7626910  19.6438240  50.5100320  52.4825910  18.9479930  50.9211790
  54.2016720  28.6962210  52.7898680  54.8190720  29.3713290  52.5083130
  53.3409840  29.1050190  52.6986180  49.4949060  27.8862070  41.6705530
  49.1177040  28.3749170  40.9390430  49.7522130  28.5587350  42.3012060
  57.1037990  16.2878460  47.1291040  57.4112970  15.7325350  46.4126540
  56.1738690  16.4222920  46.9464030  55.0975390  24.8792030  46.6470890
  54.6932390  24.1669280  46.1516790  55.1838510  24.5345270  47.5358930
  55.5657090  28.5659590  48.8110100  55.2685380  27.9605060  48.1317880
  56.5156910  28.6036900  48.6999460  53.8104010  21.6535240  50.4269930
  54.3618600  21.7630580  49.6523180  54.3247520  22.0272840  51.1425160
  54.6575520  28.3041280  55.4617900  53.7604050  28.5281250  55.7091300
  54.6828390  28.4276220  54.5129300  53.4846740  25.1754600  54.0375270
  53.3454510  26.0477400  54.4062670  52.6028100  24.8327410  53.8923210
  55.2827090  31.1176300  56.2460420  55.2542520  31.5219250  55.3788850
  55.1192060  30.1886660  56.0832020  51.7980020  23.7737010  44.1477540
  51.6777620  24.4999100  43.5358810  51.4880910  23.0039920  43.6705450
  49.4365390  26.9452150  49.9546180  49.5145810  27.0800920  49.0101900
  50.0507070  26.2368040  50.1474300  50.6813020  28.6452340  46.3652360
  50.2741100  28.7866930  45.5105960  51.5726030  28.3612500  46.1623570
  54.9534680  32.8598120  44.4775030  54.7777160  31.9433660  44.2642830
  54.0990420  33.2185410  44.7172830  49.4924910  27.9866320  52.4940640
  49.6555950  27.5171680  51.6760010  49.9577360  27.4789880  53.1589480
  54.2643680  17.1172080  47.5301210  53.8211830  17.8981620  47.1985730
  54.8228670  17.4401970  48.2372150  57.3802500  16.7382780  42.4107040
  56.7556680  16.7342650  43.1360350  57.2932620  15.8713740  42.0143010
  56.3019580  17.6619410  49.3890810  56.5991910  18.5682240  49.3082830
  56.8505140  17.1738190  48.7750380  54.0557900  22.2405650  45.2582460
  53.8298820  22.0242820  46.1629080  53.2750430  22.6734110  44.9128430
  56.4957110  23.1391230  55.9242730  56.4000710  22.1985960  55.7743130
  57.3389090  23.3606300  55.5290800  51.6267650  19.5504900  54.0776510
  51.2331040  20.3980110  54.2849290  50.9386050  18.9131270  54.2685150
  48.9284700  17.4733360  48.1106590  48.6397750  18.0436220  48.8231570
  49.6730460  16.9937810  48.4737820  49.1154930  21.4153480  39.3209310
  49.0329600  22.3584240  39.4624300  48.7637990  21.2728390  38.4421660
  56.9153060  20.1492510  48.3879660  56.9189120  19.7082460  47.5384200
  57.8104180  20.4709840  48.4951480  52.7655440  20.0319000  47.3473870
  52.4255490  20.5094230  48.1040920  52.0032760  19.5784120  46.9874970
  56.9773210  21.1504590  41.3786420  57.0986030  21.1091070  42.3272240
  56.5921720  22.0128740  41.2233150  55.9894710  23.4605730  40.7769720
  55.4211610  23.0123980  40.1505630  56.6983710  23.8198510  40.2434870
  51.0663890  27.3617750  54.6536450  50.6818680  26.7211420  55.2519410
  51.3776080  28.0653870  55.2231180  57.2161030  24.2094290  50.1345070
  57.5831160  23.7352860  50.8806410  57.0266090  25.0835860  50.4753410
  50.0801520  18.9537980  46.2638540  49.7948440  18.5893650  47.1017160
  50.0180380  18.2218440  45.6501680  55.0060400  23.2502930  52.4529280
  54.7017470  24.1294910  52.6779640  55.9606860  23.3102720  52.4886720
  53.5342190  27.4563920  43.0496130  52.7604450  26.9161540  42.8894850
  54.2636820  26.9370530  42.7113890  53.5779590  27.1244300  46.6874940
  54.0958260  26.3212560  46.6331830  53.1263610  27.0623440  47.5291770
  51.0624130  24.0905670  53.6000640  50.7039070  24.7559520  54.1873980
  50.7678690  23.2589220  53.9713260  54.2637250  24.5489910  56.4840190
  53.9637390  24.6947090  55.5868010  55.0348490  23.9895200  56.3913580
  57.4339780  28.4724110  44.7318160  58.1210910  29.0193320  45.1125750
  56.6472200  29.0164840  44.7667770  49.5732180  24.0896930  40.2235240
  50.4427030  24.3721730  40.5071160  49.0822500  24.9032800  40.1084050
  56.7366990  25.4770140  44.3443520  57.1929770  26.2875390  44.5703710
  56.3855200  25.1593280  45.1762010  52.6378770  15.8207790  44.8166040
  52.5093400  15.8125690  45.7650960  51.8140790  16.1590880  44.4657050
  49.9403430  33.3024310  40.7896870  50.3001070  33.9013650  40.1354140
  49.7995770  33.8484200  41.5631900  49.6372700  17.5798910  54.2772740
  48.9231220  17.7795830  54.8825350  50.0567740  16.8038480  54.6487540
  49.9245290  31.5679170  55.2639270  50.0336410  30.6273910  55.1234660
  49.2725850  31.8333920  54.6153000  57.9157880  29.8395060  56.6637390
  57.5954750  29.1204300  57.2083080  57.2416240  30.5150130  56.7373450
  55.9572050  30.6855510  41.6070540  55.9482150  31.4185200  40.9915050
  55.0370410  30.4387090  41.6997500  51.5578690  25.9070400  42.3517300
  50.9506640  26.6469300  42.3612600  52.0328040  25.9969760  41.5255500
  56.4657540  21.3064110  44.2519630  55.7573690  21.7750450  44.6933240
  56.7502020  20.6486120  44.8864820  57.5849760  33.2670070  44.9643400
  57.8391260  33.2291460  44.0422770  56.6362240  33.1403400  44.9571650
  54.6692560  19.6149190  41.6270340  55.5183090  20.0519340  41.5610530
  54.3023830  19.9269450  42.4542400  53.5683980  25.8681550  40.1005870
  54.3347250  25.7562910  40.6631300  53.6458670  25.1719520  39.4482640
  52.2630740  23.3006620  40.7838760  52.3434330  22.3534130  40.8956160
  53.1550490  23.6313500  40.8899420  53.0645450  33.4502010  47.8873300
  53.8007930  32.9017470  48.1581870  53.4486370  34.3158020  47.7479290
  49.9490930  29.5175580  43.7614810  49.0230710  29.7596720  43.7520220
  50.4147360  30.3449840  43.6399560  56.1747760  32.6232320  39.7098870
  56.9676370  32.9121150  39.2580660  55.6552110  32.1924490  39.0311350
  49.7901540  25.1221540  56.0194930  50.2940560  24.5428820  56.5911160
  49.0508960  25.4061770  56.5571300  56.6925160  27.8435730  39.5741220
  56.5875800  27.2288080  40.3002600  56.5249380  27.3201620  38.7904230
  56.8439480  26.5292530  55.5530450  56.0785150  27.0977530  55.4685120
  57.0255440  26.2368740  54.6598680  55.6003010  25.8646680  42.0748510
  56.0219430  25.6986550  42.9179900  55.7253850  25.0546910  41.5803650
  53.7630430  21.8443230  54.8819490  53.2326890  21.3534180  54.2542830
  54.4318500  22.2727430  54.3477420  54.2502730  18.8105600  54.9616780
  54.1559600  18.1926350  54.2367650  53.6700120  19.5371890  54.7346690
  57.0164170  17.3678840  51.9944170  56.5681470  17.3903100  51.1489720
  56.3829370  16.9697860  52.5914470  57.4223720  26.2633170  52.6156610
  57.8411830  27.1065900  52.4432850  56.5032350  26.4005210  52.3863390
  54.4961910  21.9379910  39.0206670  54.2950970  21.0747270  39.3820010
  54.3253960  21.8513270  38.0828270  55.2731140  32.5686180  53.7314340
  54.7352230  33.2932240  53.4123040  55.5265100  32.0916520  52.9411680
  56.5256390  20.5370700  55.2570270  57.1156080  20.2286550  55.9448090
  55.7076630  20.0650450  55.4130170  53.2944710  19.0380530  39.0084550
  53.5970610  19.0447960  38.1003700  54.0339300  18.6878390  39.5052210
  58.1293350  33.8037390  53.9900990  58.0552050  34.7072530  54.2973360
  57.2272190  33.4849290  53.9623060  56.5129640  17.9815150  39.9940750
  56.1651640  17.3039140  39.4143200  56.7142410  17.5204660  40.8084140
  52.3174840  28.3422950  39.8414350  52.7549710  28.8852620  40.4971930
  52.8022570  27.5169900  39.8510690  49.5320640  31.1311980  47.2934610
  49.8623650  30.2633040  47.0613250  49.9611640  31.3370500  48.1239570
  54.1282560  29.4620990  44.9536580  53.8278100  29.3385960  45.8540490
  54.0220050  28.6029580  44.5452310  50.0210850  31.9982570  50.0316240
  49.5841840  32.1783370  50.8640390  50.5888530  32.7557190  49.8897960
  49.8535280  24.5102800  46.3905120  49.1984120  24.2414440  45.7464820
  50.6913230  24.4007280  45.9407100  50.8911210  24.8955370  50.9308460
  51.2584250  24.8082770  51.8104480  50.3222030  24.1321920  50.8315320
  50.4427210  21.8064460  54.8366880  49.5483260  21.7731220  55.1760590
  50.9824760  22.0051250  55.6018130  49.0673360  21.7201730  42.3330450
  48.1637440  21.9831930  42.1582110  49.5513980  21.9912900  41.5530410
  51.6100570  20.7767270  40.2424830  52.3192270  20.3550490  39.7572110
  50.8940510  20.8442500  39.6108180  51.2574730  16.8306600  39.2827480
  51.9802860  17.3715540  39.6008700  51.5299250  16.5570020  38.4069020
  50.9466920  16.0812790  49.1850100  51.5943110  15.5310170  48.7445260
  51.3668760  16.3355940  50.0065910  50.6998920  16.2368460  51.9275420
  50.3513740  16.6932280  52.6933600  50.3686620  15.3425590  52.0097850
  52.3063290  29.4088060  56.0928610  52.2632920  29.0380970  56.9743070
  52.4374300  30.3465630  56.2330430  56.0069320  30.9647650  51.6938330
  55.7660680  31.2322210  50.8068850  56.9471960  31.1353380  51.7489190
  51.3719560  15.7644660  55.2026190  51.9202550  15.5832710  54.4392300
  51.4374870  14.9738770  55.7382500  52.1451320  32.3550310  53.2126390
  51.5511640  32.2235010  53.9516430  52.1375160  31.5188450  52.7468490
  51.7763550  29.7208690  52.1634430  51.0497610  29.1013980  52.0960380
  51.8372700  30.1149300  51.2932510  55.3808650  31.9353690  48.9483840
  55.8973670  31.3241050  48.4232100  56.0306030  32.4382470  49.4394850
  50.0593550  33.0383080  45.3731190  49.8915590  32.4053760  46.0713080
  49.1928060  33.2442480  45.0225380  50.6821570  16.8699860  42.8763050
  51.4400930  16.9828740  42.3027080  50.2198740  17.7069060  42.8306480
  57.2235380  18.9839130  45.8665360  56.4109890  18.6096020  45.5261240
  57.7277020  18.2284210  46.1686550  51.6656250  31.7316310  42.8181330
  51.1403870  32.1124340  42.1143290  51.5900830  32.3567080  43.5391040
  53.0546720  17.3963910  41.4165020  53.5839480  16.6093710  41.2872970
  53.6875040  18.0755100  41.6500550  55.2484560  17.1339050  44.4710410
  54.6187300  16.4326360  44.6380540  54.7089700  17.8943180  44.2543570
  55.3740120  16.4123030  56.9062900  55.0924390  16.9156630  56.1423720
  55.7559820  15.6144780  56.5405030  54.2649220  33.6798690  41.6930580
  54.9968040  33.3957970  41.1454470  54.5242890  33.4411970  42.5829960
  53.4264010  29.7963420  41.6976910  52.7972890  30.2648520  42.2462740
  53.5411840  28.9512640  42.1323100  53.0297600  25.9367910  30.6063140
  52.1982480  25.6816620  31.0059650  53.6378580  26.0078680  31.3421060
  53.0098860  29.9708000  30.8021160  53.3126900  29.0805740  30.6231380
  53.7542450  30.5278220  30.5743410  51.4389550  20.8969800  24.3905530
  50.5506250  21.2385770  24.2885410  51.7230740  20.6970120  23.4986360
  49.4022560  23.4975450  30.2745230  49.9738670  22.7297650  30.2748870
  49.4024100  23.7964210  29.3651840  50.6447430  18.9059810  32.0614160
  50.4650270  18.0085560  32.3416920  50.2427510  19.4531680  32.7361110
  53.6150940  19.4801300  25.4243910  53.7217690  20.3805030  25.7312670
  52.7043300  19.4319270  25.1338560  51.2634100  21.4020310  30.6696500
  51.9444210  21.6658680  31.2883900  50.9482150  20.5621180  31.0034510
  55.4558670  22.4487670  29.7569090  55.9636890  22.9468640  30.3974110
  55.9871910  21.6722870  29.5808450  53.7394770  17.0886230  34.0232510
  53.7413210  17.6058620  33.2178410  52.9099080  16.6116410  34.0002440
  54.9897620  26.7281410  32.2006010  54.6567000  27.3550330  32.8427080
  55.1664300  27.2543290  31.4207680  53.4210100  18.7996190  32.0302960
  53.7626910  19.6438240  31.7356830  52.4825910  18.9479930  32.1468300
  54.2016720  28.6962210  34.0155190  54.8190720  29.3713290  33.7339640
  53.3409840  29.1050190  33.9242690  49.4949060  27.8862070  22.8962040
  49.1177040  28.3749170  22.1646940  49.7522130  28.5587350  23.5268570
  57.1037990  16.2878460  28.3547550  57.4112970  15.7325350  27.6383050
  56.1738690  16.4222920  28.1720540  55.0975390  24.8792030  27.8727400
  54.6932390  24.1669280  27.3773300  55.1838510  24.5345270  28.7615440
  55.5657090  28.5659590  30.0366610  55.2685380  27.9605060  29.3574390
  56.5156910  28.6036900  29.9255970  53.8104010  21.6535240  31.6526440
  54.3618600  21.7630580  30.8779690  54.3247520  22.0272840  32.3681670
  54.6575520  28.3041280  36.6874410  53.7604050  28.5281250  36.9347810
  54.6828390  28.4276220  35.7385810  53.4846740  25.1754600  35.2631780
  53.3454510  26.0477400  35.6319180  52.6028100  24.8327410  35.1179720
  55.2827090  31.1176300  37.4716930  55.2542520  31.5219250  36.6045360
  55.1192060  30.1886660  37.3088530  51.7980020  23.7737010  25.3734050
  51.6777620  24.4999100  24.7615320  51.4880910  23.0039920  24.8961960
  49.4365390  26.9452150  31.1802690  49.5145810  27.0800920  30.2358410
  50.0507070  26.2368040  31.3730810  50.6813020  28.6452340  27.5908870
  50.2741100  28.7866930  26.7362470  51.5726030  28.3612500  27.3880080
  54.9534680  32.8598120  25.7031540  54.7777160  31.9433660  25.4899340
  54.0990420  33.2185410  25.9429340  49.4924910  27.9866320  33.7197150
  49.6555950  27.5171680  32.9016520  49.9577360  27.4789880  34.3845990
  54.2643680  17.1172080  28.7557720  53.8211830  17.8981620  28.4242240
  54.8228670  17.4401970  29.4628660  57.3802500  16.7382780  23.6363550
  56.7556680  16.7342650  24.3616860  57.2932620  15.8713740  23.2399520
  56.3019580  17.6619410  30.6147320  56.5991910  18.5682240  30.5339340
  56.8505140  17.1738190  30.0006890  54.0557900  22.2405650  26.4838970
  53.8298820  22.0242820  27.3885590  53.2750430  22.6734110  26.1384940
  56.4957110  23.1391230  37.1499240  56.4000710  22.1985960  36.9999640
  57.3389090  23.3606300  36.7547310  51.6267650  19.5504900  35.3033020
  51.2331040  20.3980110  35.5105800  50.9386050  18.9131270  35.4941660
  48.9284700  17.4733360  29.3363100  48.6397750  18.0436220  30.0488080
  49.6730460  16.9937810  29.6994330  49.1154930  21.4153480  20.5465820
  49.0329600  22.3584240  20.6880810  48.7637990  21.2728390  19.6678170
  56.9153060  20.1492510  29.6136170  56.9189120  19.7082460  28.7640710
  57.8104180  20.4709840  29.7207990  52.7655440  20.0319000  28.5730380
  52.4255490  20.5094230  29.3297430  52.0032760  19.5784120  28.2131480
  56.9773210  21.1504590  22.6042930  57.0986030  21.1091070  23.5528750
  56.5921720  22.0128740  22.4489660  55.9894710  23.4605730  22.0026230
  55.4211610  23.0123980  21.3762140  56.6983710  23.8198510  21.4691380
  51.0663890  27.3617750  35.8792960  50.6818680  26.7211420  36.4775920
  51.3776080  28.0653870  36.4487690  57.2161030  24.2094290  31.3601580
  57.5831160  23.7352860  32.1062920  57.0266090  25.0835860  31.7009920
  50.0801520  18.9537980  27.4895050  49.7948440  18.5893650  28.3273670
  50.0180380  18.2218440  26.8758190  55.0060400  23.2502930  33.6785790
  54.7017470  24.1294910  33.9036150  55.9606860  23.3102720  33.7143230
  53.5342190  27.4563920  24.2752640  52.7604450  26.9161540  24.1151360
  54.2636820  26.9370530  23.9370400  53.5779590  27.1244300  27.9131450
  54.0958260  26.3212560  27.8588340  53.1263610  27.0623440  28.7548280
  51.0624130  24.0905670  34.8257150  50.7039070  24.7559520  35.4130490
  50.7678690  23.2589220  35.1969770  54.2637250  24.5489910  37.7096700
  53.9637390  24.6947090  36.8124520  55.0348490  23.9895200  37.6170090
  57.4339780  28.4724110  25.9574670  58.1210910  29.0193320  26.3382260
  56.6472200  29.0164840  25.9924280  49.5732180  24.0896930  21.4491750
  50.4427030  24.3721730  21.7327670  49.0822500  24.9032800  21.3340560
  56.7366990  25.4770140  25.5700030  57.1929770  26.2875390  25.7960220
  56.3855200  25.1593280  26.4018520  52.6378770  15.8207790  26.0422550
  52.5093400  15.8125690  26.9907470  51.8140790  16.1590880  25.6913560
  49.9403430  33.3024310  22.0153380  50.3001070  33.9013650  21.3610650
  49.7995770  33.8484200  22.7888410  49.6372700  17.5798910  35.5029250
  48.9231220  17.7795830  36.1081860  50.0567740  16.8038480  35.8744050
  49.9245290  31.5679170  36.4895780  50.0336410  30.6273910  36.3491170
  49.2725850  31.8333920  35.8409510  57.9157880  29.8395060  37.8893900
  57.5954750  29.1204300  38.4339590  57.2416240  30.5150130  37.9629960
  55.9572050  30.6855510  22.8327050  55.9482150  31.4185200  22.2171560
  55.0370410  30.4387090  22.9254010  51.5578690  25.9070400  23.5773810
  50.9506640  26.6469300  23.5869110  52.0328040  25.9969760  22.7512010
  56.4657540  21.3064110  25.4776140  55.7573690  21.7750450  25.9189750
  56.7502020  20.6486120  26.1121330  57.5849760  33.2670070  26.1899910
  57.8391260  33.2291460  25.2679280  56.6362240  33.1403400  26.1828160
  54.6692560  19.6149190  22.8526850  55.5183090  20.0519340  22.7867040
  54.3023830  19.9269450  23.6798910  53.5683980  25.8681550  21.3262380
  54.3347250  25.7562910  21.8887810  53.6458670  25.1719520  20.6739150
  52.2630740  23.3006620  22.0095270  52.3434330  22.3534130  22.1212670
  53.1550490  23.6313500  22.1155930  53.0645450  33.4502010  29.1129810
  53.8007930  32.9017470  29.3838380  53.4486370  34.3158020  28.9735800
  49.9490930  29.5175580  24.9871320  49.0230710  29.7596720  24.9776730
  50.4147360  30.3449840  24.8656070  52.0703730  32.6348080  38.3015390
  52.8716460  32.9560130  38.7150790  51.5555550  32.2743660  39.0235300
  56.1747760  32.6232320  20.9355380  56.9676370  32.9121150  20.4837170
  55.6552110  32.1924490  20.2567860  49.7901540  25.1221540  37.2451440
  50.2940560  24.5428820  37.8167670  49.0508960  25.4061770  37.7827810
  56.6925160  27.8435730  20.7997730  56.5875800  27.2288080  21.5259110
  56.5249380  27.3201620  20.0160740  56.8439480  26.5292530  36.7786960
  56.0785150  27.0977530  36.6941630  57.0255440  26.2368740  35.8855190
  51.8224620  23.2651130  38.1401510  51.8629960  22.9665000  39.0486740
  52.6770120  23.6658740  37.9809030  55.6003010  25.8646680  23.3005020
  56.0219430  25.6986550  24.1436410  55.7253850  25.0546910  22.8060160
  53.7630430  21.8443230  36.1076000  53.2326890  21.3534180  35.4799340
  54.4318500  22.2727430  35.5733930  54.2502730  18.8105600  36.1873290
  54.1559600  18.1926350  35.4624160  53.6700120  19.5371890  35.9603200
  57.0164170  17.3678840  33.2200680  56.5681470  17.3903100  32.3746230
  56.3829370  16.9697860  33.8170980  57.4223720  26.2633170  33.8413120
  57.8411830  27.1065900  33.6689360  56.5032350  26.4005210  33.6119900
  54.4961910  21.9379910  20.2463180  54.2950970  21.0747270  20.6076520
  54.3253960  21.8513270  19.3084780  55.2731140  32.5686180  34.9570850
  54.7352230  33.2932240  34.6379550  55.5265100  32.0916520  34.1668190
  56.5256390  20.5370700  36.4826780  57.1156080  20.2286550  37.1704600
  55.7076630  20.0650450  36.6386680  53.2944710  19.0380530  20.2341060
  53.5970610  19.0447960  19.3260210  54.0339300  18.6878390  20.7308720
  58.1293350  33.8037390  35.2157500  58.0552050  34.7072530  35.5229870
  57.2272190  33.4849290  35.1879570  56.5129640  17.9815150  21.2197260
  56.1651640  17.3039140  20.6399710  56.7142410  17.5204660  22.0340650
  52.3174840  28.3422950  21.0670860  52.7549710  28.8852620  21.7228440
  52.8022570  27.5169900  21.0767200  49.5320640  31.1311980  28.5191120
  49.8623650  30.2633040  28.2869760  49.9611640  31.3370500  29.3496080
  54.1282560  29.4620990  26.1793090  53.8278100  29.3385960  27.0797000
  54.0220050  28.6029580  25.7708820  50.0210850  31.9982570  31.2572750
  49.5841840  32.1783370  32.0896900  50.5888530  32.7557190  31.1154470
  49.8535280  24.5102800  27.6161630  49.1984120  24.2414440  26.9721330
  50.6913230  24.4007280  27.1663610  50.8911210  24.8955370  32.1564970
  51.2584250  24.8082770  33.0360990  50.3222030  24.1321920  32.0571830
  50.4427210  21.8064460  36.0623390  49.5483260  21.7731220  36.4017100
  50.9824760  22.0051250  36.8274640  49.0673360  21.7201730  23.5586960
  48.1637440  21.9831930  23.3838620  49.5513980  21.9912900  22.7786920
  51.6100570  20.7767270  21.4681340  52.3192270  20.3550490  20.9828620
  50.8940510  20.8442500  20.8364690  51.2574730  16.8306600  20.5083990
  51.9802860  17.3715540  20.8265210  51.5299250  16.5570020  19.6325530
  50.9466920  16.0812790  30.4106610  51.5943110  15.5310170  29.9701770
  51.3668760  16.3355940  31.2322420  50.6998920  16.2368460  33.1531930
  50.3513740  16.6932280  33.9190110  50.3686620  15.3425590  33.2354360
  52.3063290  29.4088060  37.3185120  52.2632920  29.0380970  38.1999580
  52.4374300  30.3465630  37.4586940  56.0069320  30.9647650  32.9194840
  55.7660680  31.2322210  32.0325360  56.9471960  31.1353380  32.9745700
  51.3719560  15.7644660  36.4282700  51.9202550  15.5832710  35.6648810
  51.4374870  14.9738770  36.9639010  52.1451320  32.3550310  34.4382900
  51.5511640  32.2235010  35.1772940  52.1375160  31.5188450  33.9725000
  51.7763550  29.7208690  33.3890940  51.0497610  29.1013980  33.3216890
  51.8372700  30.1149300  32.5189020  55.3808650  31.9353690  30.1740350
  55.8973670  31.3241050  29.6488610  56.0306030  32.4382470  30.6651360
  50.0593550  33.0383080  26.5987700  49.8915590  32.4053760  27.2969590
  49.1928060  33.2442480  26.2481890  50.6821570  16.8699860  24.1019560
  51.4400930  16.9828740  23.5283590  50.2198740  17.7069060  24.0562990
  57.2235380  18.9839130  27.0921870  56.4109890  18.6096020  26.7517750
  57.7277020  18.2284210  27.3943060  51.6656250  31.7316310  24.0437840
  51.1403870  32.1124340  23.3399800  51.5900830  32.3567080  24.7647550
  53.0546720  17.3963910  22.6421530  53.5839480  16.6093710  22.5129480
  53.6875040  18.0755100  22.8757060  55.2484560  17.1339050  25.6966920
  54.6187300  16.4326360  25.8637050  54.7089700  17.8943180  25.4800080
  55.3740120  16.4123030  38.1319410  55.0924390  16.9156630  37.3680230
  55.7559820  15.6144780  37.7661540  54.2649220  33.6798690  22.9187090
  54.9968040  33.3957970  22.3710980  54.5242890  33.4411970  23.8086470
  53.4264010  29.7963420  22.9233420  52.7972890  30.2648520  23.4719250
  53.5411840  28.9512640  23.3579610  53.0297600  25.9367910  11.8319650
  52.1982480  25.6816620  12.2316160  53.6378580  26.0078680  12.5677570
  53.0098860  29.9708000  12.0277670  53.3126900  29.0805740  11.8487890
  53.7542450  30.5278220  11.7999920  51.4389550  20.8969800   5.6162040
  50.5506250  21.2385770   5.5141920  51.7230740  20.6970120   4.7242870
  49.4022560  23.4975450  11.5001740  49.9738670  22.7297650  11.5005380
  49.4024100  23.7964210  10.5908350  50.6447430  18.9059810  13.2870670
  50.4650270  18.0085560  13.5673430  50.2427510  19.4531680  13.9617620
  53.6150940  19.4801300   6.6500420  53.7217690  20.3805030   6.9569180
  52.7043300  19.4319270   6.3595070  51.2634100  21.4020310  11.8953010
  51.9444210  21.6658680  12.5140410  50.9482150  20.5621180  12.2291020
  55.4558670  22.4487670  10.9825600  55.9636890  22.9468640  11.6230620
  55.9871910  21.6722870  10.8064960  53.7394770  17.0886230  15.2489020
  53.7413210  17.6058620  14.4434920  52.9099080  16.6116410  15.2258950
  54.9897620  26.7281410  13.4262520  54.6567000  27.3550330  14.0683590
  55.1664300  27.2543290  12.6464190  53.4210100  18.7996190  13.2559470
  53.7626910  19.6438240  12.9613340  52.4825910  18.9479930  13.3724810
  54.2016720  28.6962210  15.2411700  54.8190720  29.3713290  14.9596150
  53.3409840  29.1050190  15.1499200  49.4949060  27.8862070   4.1218550
  49.1177040  28.3749170   3.3903450  49.7522130  28.5587350   4.7525080
  57.1037990  16.2878460   9.5804060  57.4112970  15.7325350   8.8639560
  56.1738690  16.4222920   9.3977050  55.0975390  24.8792030   9.0983910
  54.6932390  24.1669280   8.6029810  55.1838510  24.5345270   9.9871950
  55.5657090  28.5659590  11.2623120  55.2685380  27.9605060  10.5830900
  56.5156910  28.6036900  11.1512480  53.8104010  21.6535240  12.8782950
  54.3618600  21.7630580  12.1036200  54.3247520  22.0272840  13.5938180
  54.6575520  28.3041280  17.9130920  53.7604050  28.5281250  18.1604320
  54.6828390  28.4276220  16.9642320  53.4846740  25.1754600  16.4888290
  53.3454510  26.0477400  16.8575690  52.6028100  24.8327410  16.3436230
  55.2827090  31.1176300  18.6973440  55.2542520  31.5219250  17.8301870
  55.1192060  30.1886660  18.5345040  51.7980020  23.7737010   6.5990560
  51.6777620  24.4999100   5.9871830  51.4880910  23.0039920   6.1218470
  49.4365390  26.9452150  12.4059200  49.5145810  27.0800920  11.4614920
  50.0507070  26.2368040  12.5987320  50.6813020  28.6452340   8.8165380
  50.2741100  28.7866930   7.9618980  51.5726030  28.3612500   8.6136590
  54.9534680  32.8598120   6.9288050  54.7777160  31.9433660   6.7155850
  54.0990420  33.2185410   7.1685850  49.4924910  27.9866320  14.9453660
  49.6555950  27.5171680  14.1273030  49.9577360  27.4789880  15.6102500
  54.2643680  17.1172080   9.9814230  53.8211830  17.8981620   9.6498750
  54.8228670  17.4401970  10.6885170  57.3802500  16.7382780   4.8620060
  56.7556680  16.7342650   5.5873370  57.2932620  15.8713740   4.4656030
  56.3019580  17.6619410  11.8403830  56.5991910  18.5682240  11.7595850
  56.8505140  17.1738190  11.2263400  54.0557900  22.2405650   7.7095480
  53.8298820  22.0242820   8.6142100  53.2750430  22.6734110   7.3641450
  56.4957110  23.1391230  18.3755750  56.4000710  22.1985960  18.2256150
  57.3389090  23.3606300  17.9803820  51.6267650  19.5504900  16.5289530
  51.2331040  20.3980110  16.7362310  50.9386050  18.9131270  16.7198170
  48.9284700  17.4733360  10.5619610  48.6397750  18.0436220  11.2744590
  49.6730460  16.9937810  10.9250840  56.9153060  20.1492510  10.8392680
  56.9189120  19.7082460   9.9897220  57.8104180  20.4709840  10.9464500
  52.7655440  20.0319000   9.7986890  52.4255490  20.5094230  10.5553940
  52.0032760  19.5784120   9.4387990  56.9773210  21.1504590   3.8299440
  57.0986030  21.1091070   4.7785260  56.5921720  22.0128740   3.6746170
  55.9894710  23.4605730   3.2282740  55.4211610  23.0123980   2.6018650
  56.6983710  23.8198510   2.6947890  51.0663890  27.3617750  17.1049470
  50.6818680  26.7211420  17.7032430  51.3776080  28.0653870  17.6744200
  57.2161030  24.2094290  12.5858090  57.5831160  23.7352860  13.3319430
  57.0266090  25.0835860  12.9266430  50.0801520  18.9537980   8.7151560
  49.7948440  18.5893650   9.5530180  50.0180380  18.2218440   8.1014700
  55.0060400  23.2502930  14.9042300  54.7017470  24.1294910  15.1292660
  55.9606860  23.3102720  14.9399740  53.5342190  27.4563920   5.5009150
  52.7604450  26.9161540   5.3407870  54.2636820  26.9370530   5.1626910
  53.5779590  27.1244300   9.1387960  54.0958260  26.3212560   9.0844850
  53.1263610  27.0623440   9.9804790  51.0624130  24.0905670  16.0513660
  50.7039070  24.7559520  16.6387000  50.7678690  23.2589220  16.4226280
  54.2637250  24.5489910  18.9353210  53.9637390  24.6947090  18.0381030
  55.0348490  23.9895200  18.8426600  57.4339780  28.4724110   7.1831180
  58.1210910  29.0193320   7.5638770  56.6472200  29.0164840   7.2180790
  49.5732180  24.0896930   2.6748260  50.4427030  24.3721730   2.9584180
  49.0822500  24.9032800   2.5597070  56.7366990  25.4770140   6.7956540
  57.1929770  26.2875390   7.0216730  56.3855200  25.1593280   7.6275030
  52.6378770  15.8207790   7.2679060  52.5093400  15.8125690   8.2163980
  51.8140790  16.1590880   6.9170070  49.9403430  33.3024310   3.2409890
  50.3001070  33.9013650   2.5867160  49.7995770  33.8484200   4.0144920
  49.6372700  17.5798910  16.7285760  48.9231220  17.7795830  17.3338370
  50.0567740  16.8038480  17.1000560  49.9245290  31.5679170  17.7152290
  50.0336410  30.6273910  17.5747680  49.2725850  31.8333920  17.0666020
  57.9157880  29.8395060  19.1150410  57.5954750  29.1204300  19.6596100
  57.2416240  30.5150130  19.1886470  55.9572050  30.6855510   4.0583560
  55.9482150  31.4185200   3.4428070  55.0370410  30.4387090   4.1510520
  51.5578690  25.9070400   4.8030320  50.9506640  26.6469300   4.8125620
  52.0328040  25.9969760   3.9768520  56.4657540  21.3064110   6.7032650
  55.7573690  21.7750450   7.1446260  56.7502020  20.6486120   7.3377840
  57.5849760  33.2670070   7.4156420  57.8391260  33.2291460   6.4935790
  56.6362240  33.1403400   7.4084670  54.6692560  19.6149190   4.0783360
  55.5183090  20.0519340   4.0123550  54.3023830  19.9269450   4.9055420
  53.5683980  25.8681550   2.5518890  54.3347250  25.7562910   3.1144320
  53.6458670  25.1719520   1.8995660  52.2630740  23.3006620   3.2351780
  52.3434330  22.3534130   3.3469180  53.1550490  23.6313500   3.3412440
  53.0645450  33.4502010  10.3386320  53.8007930  32.9017470  10.6094890
  53.4486370  34.3158020  10.1992310  49.9490930  29.5175580   6.2127830
  49.0230710  29.7596720   6.2033240  50.4147360  30.3449840   6.0912580
  52.0703730  32.6348080  19.5271900  52.8716460  32.9560130  19.9407300
  51.5555550  32.2743660  20.2491810  49.7901540  25.1221540  18.4707950
  50.2940560  24.5428820  19.0424180  49.0508960  25.4061770  19.0084320
  56.8439480  26.5292530  18.0043470  56.0785150  27.0977530  17.9198140
  57.0255440  26.2368740  17.1111700  51.8224620  23.2651130  19.3658020
  51.8629960  22.9665000  20.2743250  52.6770120  23.6658740  19.2065540
  55.6003010  25.8646680   4.5261530  56.0219430  25.6986550   5.3692920
  55.7253850  25.0546910   4.0316670  53.7630430  21.8443230  17.3332510
  53.2326890  21.3534180  16.7055850  54.4318500  22.2727430  16.7990440
  54.2502730  18.8105600  17.4129800  54.1559600  18.1926350  16.6880670
  53.6700120  19.5371890  17.1859710  57.0164170  17.3678840  14.4457190
  56.5681470  17.3903100  13.6002740  56.3829370  16.9697860  15.0427490
  57.4223720  26.2633170  15.0669630  57.8411830  27.1065900  14.8945870
  56.5032350  26.4005210  14.8376410  55.2731140  32.5686180  16.1827360
  54.7352230  33.2932240  15.8636060  55.5265100  32.0916520  15.3924700
  56.5256390  20.5370700  17.7083290  57.1156080  20.2286550  18.3961110
  55.7076630  20.0650450  17.8643190  58.1293350  33.8037390  16.4414010
  58.0552050  34.7072530  16.7486380  57.2272190  33.4849290  16.4136080
  56.5129640  17.9815150   2.4453770  56.1651640  17.3039140   1.8656220
  56.7142410  17.5204660   3.2597160  52.3174840  28.3422950   2.2927370
  52.7549710  28.8852620   2.9484950  52.8022570  27.5169900   2.3023710
  49.5320640  31.1311980   9.7447630  49.8623650  30.2633040   9.5126270
  49.9611640  31.3370500  10.5752590  54.1282560  29.4620990   7.4049600
  53.8278100  29.3385960   8.3053510  54.0220050  28.6029580   6.9965330
  50.0210850  31.9982570  12.4829260  49.5841840  32.1783370  13.3153410
  50.5888530  32.7557190  12.3410980  49.8535280  24.5102800   8.8418140
  49.1984120  24.2414440   8.1977840  50.6913230  24.4007280   8.3920120
  50.8911210  24.8955370  13.3821480  51.2584250  24.8082770  14.2617500
  50.3222030  24.1321920  13.2828340  50.4427210  21.8064460  17.2879900
  49.5483260  21.7731220  17.6273610  50.9824760  22.0051250  18.0531150
  49.0673360  21.7201730   4.7843470  48.1637440  21.9831930   4.6095130
  49.5513980  21.9912900   4.0043430  51.6100570  20.7767270   2.6937850
  52.3192270  20.3550490   2.2085130  50.8940510  20.8442500   2.0621200
  50.9466920  16.0812790  11.6363120  51.5943110  15.5310170  11.1958280
  51.3668760  16.3355940  12.4578930  50.6998920  16.2368460  14.3788440
  50.3513740  16.6932280  15.1446620  50.3686620  15.3425590  14.4610870
  52.3063290  29.4088060  18.5441630  52.2632920  29.0380970  19.4256090
  52.4374300  30.3465630  18.6843450  56.0069320  30.9647650  14.1451350
  55.7660680  31.2322210  13.2581870  56.9471960  31.1353380  14.2002210
  51.3719560  15.7644660  17.6539210  51.9202550  15.5832710  16.8905320
  51.4374870  14.9738770  18.1895520  52.1451320  32.3550310  15.6639410
  51.5511640  32.2235010  16.4029450  52.1375160  31.5188450  15.1981510
  51.7763550  29.7208690  14.6147450  51.0497610  29.1013980  14.5473400
  51.8372700  30.1149300  13.7445530  55.3808650  31.9353690  11.3996860
  55.8973670  31.3241050  10.8745120  56.0306030  32.4382470  11.8907870
  50.0593550  33.0383080   7.8244210  49.8915590  32.4053760   8.5226100
  49.1928060  33.2442480   7.4738400  50.6821570  16.8699860   5.3276070
  51.4400930  16.9828740   4.7540100  50.2198740  17.7069060   5.2819500
  57.2235380  18.9839130   8.3178380  56.4109890  18.6096020   7.9774260
  57.7277020  18.2284210   8.6199570  51.6656250  31.7316310   5.2694350
  51.1403870  32.1124340   4.5656310  51.5900830  32.3567080   5.9904060
  53.0546720  17.3963910   3.8678040  53.5839480  16.6093710   3.7385990
  53.6875040  18.0755100   4.1013570  55.2484560  17.1339050   6.9223430
  54.6187300  16.4326360   7.0893560  54.7089700  17.8943180   6.7056590
  55.3740120  16.4123030  19.3575920  55.0924390  16.9156630  18.5936740
  55.7559820  15.6144780  18.9918050  54.2649220  33.6798690   4.1443600
  54.9968040  33.3957970   3.5967490  54.5242890  33.4411970   5.0342980
  53.4264010  29.7963420   4.1489930  52.7972890  30.2648520   4.6975760
  53.5411840  28.9512640   4.5836120  53.0297600   7.1624420  49.3806630
  52.1982480   6.9073130  49.7803140  53.6378580   7.2335190  50.1164550
  53.0098860  11.1964510  49.5764650  53.3126900  10.3062250  49.3974870
  53.7542450  11.7534730  49.3486900  51.4389550   2.1226310  43.1649020
  50.5506250   2.4642280  43.0628900  51.7230740   1.9226630  42.2729850
  49.4022560   4.7231960  49.0488720  49.9738670   3.9554160  49.0492360
  49.4024100   5.0220720  48.1395330  51.2634100   2.6276820  49.4439990
  51.9444210   2.8915190  50.0627390  50.9482150   1.7877690  49.7778000
  55.4558670   3.6744180  48.5312580  55.9636890   4.1725150  49.1717600
  55.9871910   2.8979380  48.3551940  54.9897620   7.9537920  50.9749500
  54.6567000   8.5806840  51.6170570  55.1664300   8.4799800  50.1951170
  54.2016720   9.9218720  52.7898680  54.8190720  10.5969800  52.5083130
  53.3409840  10.3306700  52.6986180  49.4949060   9.1118580  41.6705530
  49.1177040   9.6005680  40.9390430  49.7522130   9.7843860  42.3012060
  55.0975390   6.1048540  46.6470890  54.6932390   5.3925790  46.1516790
  55.1838510   5.7601780  47.5358930  55.5657090   9.7916100  48.8110100
  55.2685380   9.1861570  48.1317880  56.5156910   9.8293410  48.6999460
  53.8104010   2.8791750  50.4269930  54.3618600   2.9887090  49.6523180
  54.3247520   3.2529350  51.1425160  54.6575520   9.5297790  55.4617900
  53.7604050   9.7537760  55.7091300  54.6828390   9.6532730  54.5129300
  53.4846740   6.4011110  54.0375270  53.3454510   7.2733910  54.4062670
  52.6028100   6.0583920  53.8923210  55.2827090  12.3432810  56.2460420
  55.2542520  12.7475760  55.3788850  55.1192060  11.4143170  56.0832020
  51.7980020   4.9993520  44.1477540  51.6777620   5.7255610  43.5358810
  51.4880910   4.2296430  43.6705450  49.4365390   8.1708660  49.9546180
  49.5145810   8.3057430  49.0101900  50.0507070   7.4624550  50.1474300
  50.6813020   9.8708850  46.3652360  50.2741100  10.0123440  45.5105960
  51.5726030   9.5869010  46.1623570  54.9534680  14.0854630  44.4775030
  54.7777160  13.1690170  44.2642830  54.0990420  14.4441920  44.7172830
  49.4924910   9.2122830  52.4940640  49.6555950   8.7428190  51.6760010
  49.9577360   8.7046390  53.1589480  54.0557900   3.4662160  45.2582460
  53.8298820   3.2499330  46.1629080  53.2750430   3.8990620  44.9128430
  56.4957110   4.3647740  55.9242730  56.4000710   3.4242470  55.7743130
  57.3389090   4.5862810  55.5290800  49.1154930   2.6409990  39.3209310
  49.0329600   3.5840750  39.4624300  48.7637990   2.4984900  38.4421660
  56.9773210   2.3761100  41.3786420  57.0986030   2.3347580  42.3272240
  56.5921720   3.2385250  41.2233150  55.9894710   4.6862240  40.7769720
  55.4211610   4.2380490  40.1505630  56.6983710   5.0455020  40.2434870
  51.0663890   8.5874260  54.6536450  50.6818680   7.9467930  55.2519410
  51.3776080   9.2910380  55.2231180  57.2161030   5.4350800  50.1345070
  57.5831160   4.9609370  50.8806410  57.0266090   6.3092370  50.4753410
  55.0060400   4.4759440  52.4529280  54.7017470   5.3551420  52.6779640
  55.9606860   4.5359230  52.4886720  53.5342190   8.6820430  43.0496130
  52.7604450   8.1418050  42.8894850  54.2636820   8.1627040  42.7113890
  53.5779590   8.3500810  46.6874940  54.0958260   7.5469070  46.6331830
  53.1263610   8.2879950  47.5291770  51.0624130   5.3162180  53.6000640
  50.7039070   5.9816030  54.1873980  50.7678690   4.4845730  53.9713260
  54.2637250   5.7746420  56.4840190  53.9637390   5.9203600  55.5868010
  55.0348490   5.2151710  56.3913580  57.4339780   9.6980620  44.7318160
  58.1210910  10.2449830  45.1125750  56.6472200  10.2421350  44.7667770
  49.5732180   5.3153440  40.2235240  50.4427030   5.5978240  40.5071160
  49.0822500   6.1289310  40.1084050  56.7366990   6.7026650  44.3443520
  57.1929770   7.5131900  44.5703710  56.3855200   6.3849790  45.1762010
  49.9403430  14.5280820  40.7896870  50.3001070  15.1270160  40.1354140
  49.7995770  15.0740710  41.5631900  49.9245290  12.7935680  55.2639270
  50.0336410  11.8530420  55.1234660  49.2725850  13.0590430  54.6153000
  57.9157880  11.0651570  56.6637390  57.5954750  10.3460810  57.2083080
  57.2416240  11.7406640  56.7373450  55.9572050  11.9112020  41.6070540
  55.9482150  12.6441710  40.9915050  55.0370410  11.6643600  41.6997500
  51.5578690   7.1326910  42.3517300  50.9506640   7.8725810  42.3612600
  52.0328040   7.2226270  41.5255500  56.4657540   2.5320620  44.2519630
  55.7573690   3.0006960  44.6933240  56.7502020   1.8742630  44.8864820
  57.5849760  14.4926580  44.9643400  57.8391260  14.4547970  44.0422770
  56.6362240  14.3659910  44.9571650  53.5683980   7.0938060  40.1005870
  54.3347250   6.9819420  40.6631300  53.6458670   6.3976030  39.4482640
  52.2630740   4.5263130  40.7838760  52.3434330   3.5790640  40.8956160
  53.1550490   4.8570010  40.8899420  53.0645450  14.6758520  47.8873300
  53.8007930  14.1273980  48.1581870  53.4486370  15.5414530  47.7479290
  49.9490930  10.7432090  43.7614810  49.0230710  10.9853230  43.7520220
  50.4147360  11.5706350  43.6399560  56.1747760  13.8488830  39.7098870
  56.9676370  14.1377660  39.2580660  55.6552110  13.4181000  39.0311350
  49.7901540   6.3478050  56.0194930  50.2940560   5.7685330  56.5911160
  49.0508960   6.6318280  56.5571300  56.6925160   9.0692240  39.5741220
  56.5875800   8.4544590  40.3002600  56.5249380   8.5458130  38.7904230
  56.8439480   7.7549040  55.5530450  56.0785150   8.3234040  55.4685120
  57.0255440   7.4625250  54.6598680  55.6003010   7.0903190  42.0748510
  56.0219430   6.9243060  42.9179900  55.7253850   6.2803420  41.5803650
  53.7630430   3.0699740  54.8819490  53.2326890   2.5790690  54.2542830
  54.4318500   3.4983940  54.3477420  57.4223720   7.4889680  52.6156610
  57.8411830   8.3322410  52.4432850  56.5032350   7.6261720  52.3863390
  54.4961910   3.1636420  39.0206670  54.2950970   2.3003780  39.3820010
  54.3253960   3.0769780  38.0828270  55.2731140  13.7942690  53.7314340
  54.7352230  14.5188750  53.4123040  55.5265100  13.3173030  52.9411680
  58.1293350  15.0293900  53.9900990  58.0552050  15.9329040  54.2973360
  57.2272190  14.7105800  53.9623060  52.3174840   9.5679460  39.8414350
  52.7549710  10.1109130  40.4971930  52.8022570   8.7426410  39.8510690
  49.5320640  12.3568490  47.2934610  49.8623650  11.4889550  47.0613250
  49.9611640  12.5627010  48.1239570  54.1282560  10.6877500  44.9536580
  53.8278100  10.5642470  45.8540490  54.0220050   9.8286090  44.5452310
  50.0210850  13.2239080  50.0316240  49.5841840  13.4039880  50.8640390
  50.5888530  13.9813700  49.8897960  49.8535280   5.7359310  46.3905120
  49.1984120   5.4670950  45.7464820  50.6913230   5.6263790  45.9407100
  50.8911210   6.1211880  50.9308460  51.2584250   6.0339280  51.8104480
  50.3222030   5.3578430  50.8315320  50.4427210   3.0320970  54.8366880
  49.5483260   2.9987730  55.1760590  50.9824760   3.2307760  55.6018130
  49.0673360   2.9458240  42.3330450  48.1637440   3.2088440  42.1582110
  49.5513980   3.2169410  41.5530410  51.6100570   2.0023780  40.2424830
  52.3192270   1.5807000  39.7572110  50.8940510   2.0699010  39.6108180
  52.3063290  10.6344570  56.0928610  52.2632920  10.2637480  56.9743070
  52.4374300  11.5722140  56.2330430  56.0069320  12.1904160  51.6938330
  55.7660680  12.4578720  50.8068850  56.9471960  12.3609890  51.7489190
  52.1451320  13.5806820  53.2126390  51.5511640  13.4491520  53.9516430
  52.1375160  12.7444960  52.7468490  51.7763550  10.9465200  52.1634430
  51.0497610  10.3270490  52.0960380  51.8372700  11.3405810  51.2932510
  55.3808650  13.1610200  48.9483840  55.8973670  12.5497560  48.4232100
  56.0306030  13.6638980  49.4394850  50.0593550  14.2639590  45.3731190
  49.8915590  13.6310270  46.0713080  49.1928060  14.4698990  45.0225380
  51.6656250  12.9572820  42.8181330  51.1403870  13.3380850  42.1143290
  51.5900830  13.5823590  43.5391040  54.2649220  14.9055200  41.6930580
  54.9968040  14.6214480  41.1454470  54.5242890  14.6668480  42.5829960
  53.4264010  11.0219930  41.6976910  52.7972890  11.4905030  42.2462740
  53.5411840  10.1769150  42.1323100  53.0297600   7.1624420  30.6063140
  52.1982480   6.9073130  31.0059650  53.6378580   7.2335190  31.3421060
  53.0098860  11.1964510  30.8021160  53.3126900  10.3062250  30.6231380
  53.7542450  11.7534730  30.5743410  51.4389550   2.1226310  24.3905530
  50.5506250   2.4642280  24.2885410  51.7230740   1.9226630  23.4986360
  49.4022560   4.7231960  30.2745230  49.9738670   3.9554160  30.2748870
  49.4024100   5.0220720  29.3651840  51.2634100   2.6276820  30.6696500
  51.9444210   2.8915190  31.2883900  50.9482150   1.7877690  31.0034510
  55.4558670   3.6744180  29.7569090  55.9636890   4.1725150  30.3974110
  55.9871910   2.8979380  29.5808450  54.9897620   7.9537920  32.2006010
  54.6567000   8.5806840  32.8427080  55.1664300   8.4799800  31.4207680
  54.2016720   9.9218720  34.0155190  54.8190720  10.5969800  33.7339640
  53.3409840  10.3306700  33.9242690  49.4949060   9.1118580  22.8962040
  49.1177040   9.6005680  22.1646940  49.7522130   9.7843860  23.5268570
  55.0975390   6.1048540  27.8727400  54.6932390   5.3925790  27.3773300
  55.1838510   5.7601780  28.7615440  55.5657090   9.7916100  30.0366610
  55.2685380   9.1861570  29.3574390  56.5156910   9.8293410  29.9255970
  53.8104010   2.8791750  31.6526440  54.3618600   2.9887090  30.8779690
  54.3247520   3.2529350  32.3681670  54.6575520   9.5297790  36.6874410
  53.7604050   9.7537760  36.9347810  54.6828390   9.6532730  35.7385810
  53.4846740   6.4011110  35.2631780  53.3454510   7.2733910  35.6319180
  52.6028100   6.0583920  35.1179720  55.2827090  12.3432810  37.4716930
  55.2542520  12.7475760  36.6045360  55.1192060  11.4143170  37.3088530
  51.7980020   4.9993520  25.3734050  51.6777620   5.7255610  24.7615320
  51.4880910   4.2296430  24.8961960  49.4365390   8.1708660  31.1802690
  49.5145810   8.3057430  30.2358410  50.0507070   7.4624550  31.3730810
  50.6813020   9.8708850  27.5908870  50.2741100  10.0123440  26.7362470
  51.5726030   9.5869010  27.3880080  54.9534680  14.0854630  25.7031540
  54.7777160  13.1690170  25.4899340  54.0990420  14.4441920  25.9429340
  49.4924910   9.2122830  33.7197150  49.6555950   8.7428190  32.9016520
  49.9577360   8.7046390  34.3845990  54.0557900   3.4662160  26.4838970
  53.8298820   3.2499330  27.3885590  53.2750430   3.8990620  26.1384940
  56.4957110   4.3647740  37.1499240  56.4000710   3.4242470  36.9999640
  57.3389090   4.5862810  36.7547310  49.1154930   2.6409990  20.5465820
  49.0329600   3.5840750  20.6880810  48.7637990   2.4984900  19.6678170
  56.9773210   2.3761100  22.6042930  57.0986030   2.3347580  23.5528750
  56.5921720   3.2385250  22.4489660  55.9894710   4.6862240  22.0026230
  55.4211610   4.2380490  21.3762140  56.6983710   5.0455020  21.4691380
  51.0663890   8.5874260  35.8792960  50.6818680   7.9467930  36.4775920
  51.3776080   9.2910380  36.4487690  57.2161030   5.4350800  31.3601580
  57.5831160   4.9609370  32.1062920  57.0266090   6.3092370  31.7009920
  55.0060400   4.4759440  33.6785790  54.7017470   5.3551420  33.9036150
  55.9606860   4.5359230  33.7143230  53.5342190   8.6820430  24.2752640
  52.7604450   8.1418050  24.1151360  54.2636820   8.1627040  23.9370400
  53.5779590   8.3500810  27.9131450  54.0958260   7.5469070  27.8588340
  53.1263610   8.2879950  28.7548280  51.0624130   5.3162180  34.8257150
  50.7039070   5.9816030  35.4130490  50.7678690   4.4845730  35.1969770
  54.2637250   5.7746420  37.7096700  53.9637390   5.9203600  36.8124520
  55.0348490   5.2151710  37.6170090  57.4339780   9.6980620  25.9574670
  58.1210910  10.2449830  26.3382260  56.6472200  10.2421350  25.9924280
  49.5732180   5.3153440  21.4491750  50.4427030   5.5978240  21.7327670
  49.0822500   6.1289310  21.3340560  56.7366990   6.7026650  25.5700030
  57.1929770   7.5131900  25.7960220  56.3855200   6.3849790  26.4018520
  49.9403430  14.5280820  22.0153380  50.3001070  15.1270160  21.3610650
  49.7995770  15.0740710  22.7888410  49.9245290  12.7935680  36.4895780
  50.0336410  11.8530420  36.3491170  49.2725850  13.0590430  35.8409510
  57.9157880  11.0651570  37.8893900  57.5954750  10.3460810  38.4339590
  57.2416240  11.7406640  37.9629960  55.9572050  11.9112020  22.8327050
  55.9482150  12.6441710  22.2171560  55.0370410  11.6643600  22.9254010
  51.5578690   7.1326910  23.5773810  50.9506640   7.8725810  23.5869110
  52.0328040   7.2226270  22.7512010  56.4657540   2.5320620  25.4776140
  55.7573690   3.0006960  25.9189750  56.7502020   1.8742630  26.1121330
  57.5849760  14.4926580  26.1899910  57.8391260  14.4547970  25.2679280
  56.6362240  14.3659910  26.1828160  53.5683980   7.0938060  21.3262380
  54.3347250   6.9819420  21.8887810  53.6458670   6.3976030  20.6739150
  52.2630740   4.5263130  22.0095270  52.3434330   3.5790640  22.1212670
  53.1550490   4.8570010  22.1155930  53.0645450  14.6758520  29.1129810
  53.8007930  14.1273980  29.3838380  53.4486370  15.5414530  28.9735800
  49.9490930  10.7432090  24.9871320  49.0230710  10.9853230  24.9776730
  50.4147360  11.5706350  24.8656070  52.0703730  13.8604590  38.3015390
  52.8716460  14.1816640  38.7150790  51.5555550  13.5000170  39.0235300
  56.1747760  13.8488830  20.9355380  56.9676370  14.1377660  20.4837170
  55.6552110  13.4181000  20.2567860  49.7901540   6.3478050  37.2451440
  50.2940560   5.7685330  37.8167670  49.0508960   6.6318280  37.7827810
  56.6925160   9.0692240  20.7997730  56.5875800   8.4544590  21.5259110
  56.5249380   8.5458130  20.0160740  56.8439480   7.7549040  36.7786960
  56.0785150   8.3234040  36.6941630  57.0255440   7.4625250  35.8855190
  51.8224620   4.4907640  38.1401510  51.8629960   4.1921510  39.0486740
  52.6770120   4.8915250  37.9809030  55.6003010   7.0903190  23.3005020
  56.0219430   6.9243060  24.1436410  55.7253850   6.2803420  22.8060160
  53.7630430   3.0699740  36.1076000  53.2326890   2.5790690  35.4799340
  54.4318500   3.4983940  35.5733930  57.4223720   7.4889680  33.8413120
  57.8411830   8.3322410  33.6689360  56.5032350   7.6261720  33.6119900
  54.4961910   3.1636420  20.2463180  54.2950970   2.3003780  20.6076520
  54.3253960   3.0769780  19.3084780  55.2731140  13.7942690  34.9570850
  54.7352230  14.5188750  34.6379550  55.5265100  13.3173030  34.1668190
  58.1293350  15.0293900  35.2157500  58.0552050  15.9329040  35.5229870
  57.2272190  14.7105800  35.1879570  52.3174840   9.5679460  21.0670860
  52.7549710  10.1109130  21.7228440  52.8022570   8.7426410  21.0767200
  49.5320640  12.3568490  28.5191120  49.8623650  11.4889550  28.2869760
  49.9611640  12.5627010  29.3496080  54.1282560  10.6877500  26.1793090
  53.8278100  10.5642470  27.0797000  54.0220050   9.8286090  25.7708820
  50.0210850  13.2239080  31.2572750  49.5841840  13.4039880  32.0896900
  50.5888530  13.9813700  31.1154470  49.8535280   5.7359310  27.6161630
  49.1984120   5.4670950  26.9721330  50.6913230   5.6263790  27.1663610
  50.8911210   6.1211880  32.1564970  51.2584250   6.0339280  33.0360990
  50.3222030   5.3578430  32.0571830  50.4427210   3.0320970  36.0623390
  49.5483260   2.9987730  36.4017100  50.9824760   3.2307760  36.8274640
  49.0673360   2.9458240  23.5586960  48.1637440   3.2088440  23.3838620
  49.5513980   3.2169410  22.7786920  51.6100570   2.0023780  21.4681340
  52.3192270   1.5807000  20.9828620  50.8940510   2.0699010  20.8364690
  52.3063290  10.6344570  37.3185120  52.2632920  10.2637480  38.1999580
  52.4374300  11.5722140  37.4586940  56.0069320  12.1904160  32.9194840
  55.7660680  12.4578720  32.0325360  56.9471960  12.3609890  32.9745700
  52.1451320  13.5806820  34.4382900  51.5511640  13.4491520  35.1772940
  52.1375160  12.7444960  33.9725000  51.7763550  10.9465200  33.3890940
  51.0497610  10.3270490  33.3216890  51.8372700  11.3405810  32.5189020
  55.3808650  13.1610200  30.1740350  55.8973670  12.5497560  29.6488610
  56.0306030  13.6638980  30.6651360  50.0593550  14.2639590  26.5987700
  49.8915590  13.6310270  27.2969590  49.1928060  14.4698990  26.2481890
  51.6656250  12.9572820  24.0437840  51.1403870  13.3380850  23.3399800
  51.5900830  13.5823590  24.7647550  54.2649220  14.9055200  22.9187090
  54.9968040  14.6214480  22.3710980  54.5242890  14.6668480  23.8086470
  53.4264010  11.0219930  22.9233420  52.7972890  11.4905030  23.4719250
  53.5411840  10.1769150  23.3579610  53.0297600   7.1624420  11.8319650
  52.1982480   6.9073130  12.2316160  53.6378580   7.2335190  12.5677570
  53.0098860  11.1964510  12.0277670  53.3126900  10.3062250  11.8487890
  53.7542450  11.7534730  11.7999920  51.4389550   2.1226310   5.6162040
  50.5506250   2.4642280   5.5141920  51.7230740   1.9226630   4.7242870
  49.4022560   4.7231960  11.5001740  49.9738670   3.9554160  11.5005380
  49.4024100   5.0220720  10.5908350  51.2634100   2.6276820  11.8953010
  51.9444210   2.8915190  12.5140410  50.9482150   1.7877690  12.2291020
  55.4558670   3.6744180  10.9825600  55.9636890   4.1725150  11.6230620
  55.9871910   2.8979380  10.8064960  54.9897620   7.9537920  13.4262520
  54.6567000   8.5806840  14.0683590  55.1664300   8.4799800  12.6464190
  54.2016720   9.9218720  15.2411700  54.8190720  10.5969800  14.9596150
  53.3409840  10.3306700  15.1499200  49.4949060   9.1118580   4.1218550
  49.1177040   9.6005680   3.3903450  49.7522130   9.7843860   4.7525080
  55.0975390   6.1048540   9.0983910  54.6932390   5.3925790   8.6029810
  55.1838510   5.7601780   9.9871950  55.5657090   9.7916100  11.2623120
  55.2685380   9.1861570  10.5830900  56.5156910   9.8293410  11.1512480
  53.8104010   2.8791750  12.8782950  54.3618600   2.9887090  12.1036200
  54.3247520   3.2529350  13.5938180  54.6575520   9.5297790  17.9130920
  53.7604050   9.7537760  18.1604320  54.6828390   9.6532730  16.9642320
  53.4846740   6.4011110  16.4888290  53.3454510   7.2733910  16.8575690
  52.6028100   6.0583920  16.3436230  55.2827090  12.3432810  18.6973440
  55.2542520  12.7475760  17.8301870  55.1192060  11.4143170  18.5345040
  51.7980020   4.9993520   6.5990560  51.6777620   5.7255610   5.9871830
  51.4880910   4.2296430   6.1218470  49.4365390   8.1708660  12.4059200
  49.5145810   8.3057430  11.4614920  50.0507070   7.4624550  12.5987320
  50.6813020   9.8708850   8.8165380  50.2741100  10.0123440   7.9618980
  51.5726030   9.5869010   8.6136590  54.9534680  14.0854630   6.9288050
  54.7777160  13.1690170   6.7155850  54.0990420  14.4441920   7.1685850
  49.4924910   9.2122830  14.9453660  49.6555950   8.7428190  14.1273030
  49.9577360   8.7046390  15.6102500  54.0557900   3.4662160   7.7095480
  53.8298820   3.2499330   8.6142100  53.2750430   3.8990620   7.3641450
  56.4957110   4.3647740  18.3755750  56.4000710   3.4242470  18.2256150
  57.3389090   4.5862810  17.9803820  56.9773210   2.3761100   3.8299440
  57.0986030   2.3347580   4.7785260  56.5921720   3.2385250   3.6746170
  55.9894710   4.6862240   3.2282740  55.4211610   4.2380490   2.6018650
  56.6983710   5.0455020   2.6947890  51.0663890   8.5874260  17.1049470
  50.6818680   7.9467930  17.7032430  51.3776080   9.2910380  17.6744200
  57.2161030   5.4350800  12.5858090  57.5831160   4.9609370  13.3319430
  57.0266090   6.3092370  12.9266430  55.0060400   4.4759440  14.9042300
  54.7017470   5.3551420  15.1292660  55.9606860   4.5359230  14.9399740
  53.5342190   8.6820430   5.5009150  52.7604450   8.1418050   5.3407870
  54.2636820   8.1627040   5.1626910  53.5779590   8.3500810   9.1387960
  54.0958260   7.5469070   9.0844850  53.1263610   8.2879950   9.9804790
  51.0624130   5.3162180  16.0513660  50.7039070   5.9816030  16.6387000
  50.7678690   4.4845730  16.4226280  54.2637250   5.7746420  18.9353210
  53.9637390   5.9203600  18.0381030  55.0348490   5.2151710  18.8426600
  57.4339780   9.6980620   7.1831180  58.1210910  10.2449830   7.5638770
  56.6472200  10.2421350   7.2180790  49.5732180   5.3153440   2.6748260
  50.4427030   5.5978240   2.9584180  49.0822500   6.1289310   2.5597070
  56.7366990   6.7026650   6.7956540  57.1929770   7.5131900   7.0216730
  56.3855200   6.3849790   7.6275030  49.9403430  14.5280820   3.2409890
  50.3001070  15.1270160   2.5867160  49.7995770  15.0740710   4.0144920
  49.9245290  12.7935680  17.7152290  50.0336410  11.8530420  17.5747680
  49.2725850  13.0590430  17.0666020  57.9157880  11.0651570  19.1150410
  57.5954750  10.3460810  19.6596100  57.2416240  11.7406640  19.1886470
  55.9572050  11.9112020   4.0583560  55.9482150  12.6441710   3.4428070
  55.0370410  11.6643600   4.1510520  51.5578690   7.1326910   4.8030320
  50.9506640   7.8725810   4.8125620  52.0328040   7.2226270   3.9768520
  56.4657540   2.5320620   6.7032650  55.7573690   3.0006960   7.1446260
  56.7502020   1.8742630   7.3377840  57.5849760  14.4926580   7.4156420
  57.8391260  14.4547970   6.4935790  56.6362240  14.3659910   7.4084670
  53.5683980   7.0938060   2.5518890  54.3347250   6.9819420   3.1144320
  53.6458670   6.3976030   1.8995660  52.2630740   4.5263130   3.2351780
  52.3434330   3.5790640   3.3469180  53.1550490   4.8570010   3.3412440
  53.0645450  14.6758520  10.3386320  53.8007930  14.1273980  10.6094890
  53.4486370  15.5414530  10.1992310  49.9490930  10.7432090   6.2127830
  49.0230710  10.9853230   6.2033240  50.4147360  11.5706350   6.0912580
  52.0703730  13.8604590  19.5271900  52.8716460  14.1816640  19.9407300
  51.5555550  13.5000170  20.2491810  49.7901540   6.3478050  18.4707950
  50.2940560   5.7685330  19.0424180  49.0508960   6.6318280  19.0084320
  56.8439480   7.7549040  18.0043470  56.0785150   8.3234040  17.9198140
  57.0255440   7.4625250  17.1111700  51.8224620   4.4907640  19.3658020
  51.8629960   4.1921510  20.2743250  52.6770120   4.8915250  19.2065540
  55.6003010   7.0903190   4.5261530  56.0219430   6.9243060   5.3692920
  55.7253850   6.2803420   4.0316670  53.7630430   3.0699740  17.3332510
  53.2326890   2.5790690  16.7055850  54.4318500   3.4983940  16.7990440
  57.4223720   7.4889680  15.0669630  57.8411830   8.3322410  14.8945870
  56.5032350   7.6261720  14.8376410  55.2731140  13.7942690  16.1827360
  54.7352230  14.5188750  15.8636060  55.5265100  13.3173030  15.3924700
  58.1293350  15.0293900  16.4414010  58.0552050  15.9329040  16.7486380
  57.2272190  14.7105800  16.4136080  52.3174840   9.5679460   2.2927370
  52.7549710  10.1109130   2.9484950  52.8022570   8.7426410   2.3023710
  49.5320640  12.3568490   9.7447630  49.8623650  11.4889550   9.5126270
  49.9611640  12.5627010  10.5752590  54.1282560  10.6877500   7.4049600
  53.8278100  10.5642470   8.3053510  54.0220050   9.8286090   6.9965330
  50.0210850  13.2239080  12.4829260  49.5841840  13.4039880  13.3153410
  50.5888530  13.9813700  12.3410980  49.8535280   5.7359310   8.8418140
  49.1984120   5.4670950   8.1977840  50.6913230   5.6263790   8.3920120
  50.8911210   6.1211880  13.3821480  51.2584250   6.0339280  14.2617500
  50.3222030   5.3578430  13.2828340  50.4427210   3.0320970  17.2879900
  49.5483260   2.9987730  17.6273610  50.9824760   3.2307760  18.0531150
  49.0673360   2.9458240   4.7843470  48.1637440   3.2088440   4.6095130
  49.5513980   3.2169410   4.0043430  51.6100570   2.0023780   2.6937850
  52.3192270   1.5807000   2.2085130  50.8940510   2.0699010   2.0621200
  52.3063290  10.6344570  18.5441630  52.2632920  10.2637480  19.4256090
  52.4374300  11.5722140  18.6843450  56.0069320  12.1904160  14.1451350
  55.7660680  12.4578720  13.2581870  56.9471960  12.3609890  14.2002210
  52.1451320  13.5806820  15.6639410  51.5511640  13.4491520  16.4029450
  52.1375160  12.7444960  15.1981510  51.7763550  10.9465200  14.6147450
  51.0497610  10.3270490  14.5473400  51.8372700  11.3405810  13.7445530
  55.3808650  13.1610200  11.3996860  55.8973670  12.5497560  10.8745120
  56.0306030  13.6638980  11.8907870  50.0593550  14.2639590   7.8244210
  49.8915590  13.6310270   8.5226100  49.1928060  14.4698990   7.4738400
  51.6656250  12.9572820   5.2694350  51.1403870  13.3380850   4.5656310
  51.5900830  13.5823590   5.9904060  54.2649220  14.9055200   4.1443600
  54.9968040  14.6214480   3.5967490  54.5242890  14.6668480   5.0342980
  53.4264010  11.0219930   4.1489930  52.7972890  11.4905030   4.6975760
  53.5411840  10.1769150   4.5836120  42.1070240  61.3956060  46.6221600
  42.0264290  60.4810670  46.3513310  41.6934660  61.8923130  45.9161310
  40.2388280  63.1735080  48.5030870  39.4630380  62.6935520  48.7929440
  40.8901210  62.4940730  48.3287030  34.2554110  63.4854890  49.3806630
  33.4238990  63.2303600  49.7803140  34.8635090  63.5565660  50.1164550
  32.6646060  58.4456780  43.1649020  31.7762760  58.7872750  43.0628900
  32.9487250  58.2457100  42.2729850  30.6279070  61.0462430  49.0488720
  31.1995180  60.2784630  49.0492360  30.6280610  61.3451190  48.1395330
  39.6797270  65.8492270  48.5101030  39.6105550  64.9082210  48.3490160
  40.4417130  65.9393680  49.0823600  31.8703940  56.4546790  50.8357650
  31.6906780  55.5572540  51.1160410  31.4684020  57.0018660  51.5104600
  40.7102440  58.6562650  48.7369960  41.0867260  57.7834530  48.6243630
  40.6121950  58.9921350  47.8460400  34.8407450  57.0288280  44.1987400
  34.9474200  57.9292010  44.5056160  33.9299810  56.9806250  43.9082050
  44.4926560  56.1513090  45.6698300  45.3136180  55.6609660  45.7123780
  44.5260640  56.7410750  46.4230140  32.4890610  58.9507290  49.4439990
  33.1700720  59.2145660  50.0627390  32.1738660  58.1108160  49.7778000
  36.6815180  59.9974650  48.5312580  37.1893400  60.4955620  49.1717600
  37.2128420  59.2209850  48.3551940  48.7826110  58.1679840  52.2341930
  48.0778280  58.5561550  51.7157040  49.0484030  58.8630130  52.8362860
  34.9651280  54.6373210  52.7976000  34.9669720  55.1545600  51.9921900
  34.1355590  54.1603390  52.7745930  41.3522370  64.7492520  44.2965900
  40.7339640  65.2141970  43.7328620  41.8645620  65.4420000  44.7135410
  36.2154130  64.2768390  50.9749500  35.8823510  64.9037310  51.6170570
  36.3920810  64.8030270  50.1951170  44.7288040  58.0913470  48.4425840
  44.0243610  58.3798360  49.0228950  45.0900200  58.9013580  48.0825400
  34.6466610  56.3483170  50.8046450  34.9883420  57.1925220  50.5100320
  33.7082420  56.4966910  50.9211790  30.7205570  65.4349050  41.6705530
  30.3433550  65.9236150  40.9390430  30.9778640  66.1074330  42.3012060
  47.7974960  57.5368260  48.8335050  46.8499870  57.5707240  48.9650480
  48.1224950  58.3507210  49.2184410  38.3294500  53.8365440  47.1291040
  38.6369480  53.2812330  46.4126540  37.3995200  53.9709900  46.9464030
  45.1754980  66.2748950  44.5088670  45.0651310  65.3323280  44.6338090
  45.1723230  66.6364590  45.3951430  43.2795000  64.4562570  50.7481110
  43.6963790  64.2422680  49.9134570  44.0034820  64.7135360  51.3189730
  40.7175260  61.9014270  43.8651160  39.7904540  61.8351650  44.0939630
  40.8700080  62.8394400  43.7506400  40.7044340  58.1731270  40.8618320
  39.7648010  58.3345230  40.9470780  41.0227600  58.8916950  40.3154310
  47.2257100  62.8549790  50.8397350  46.3975730  62.9242880  50.3647480
  47.8207580  63.4404100  50.3713180  44.7472550  63.4634570  44.3686410
  44.1284970  63.1254120  43.7212710  44.7297000  62.8194330  45.0765600
  44.1899110  59.6419110  51.7852220  43.7770290  60.4672820  52.0392210
  43.4575060  59.0564150  51.5928580  36.3231900  62.4279010  46.6470890
  35.9188900  61.7156260  46.1516790  36.4095020  62.0832250  47.5358930
  36.7913600  66.1146570  48.8110100  36.4941890  65.5092040  48.1317880
  37.7413420  66.1523880  48.6999460  35.0360520  59.2022220  50.4269930
  35.5875110  59.3117560  49.6523180  35.5504030  59.5759820  51.1425160
  35.8832030  65.8528260  55.4617900  34.9860560  66.0768230  55.7091300
  35.9084900  65.9763200  54.5129300  42.9237250  62.7021380  41.3759160
  43.3630530  61.8643810  41.2296980  43.6365670  63.3350780  41.4623300
  34.7103250  62.7241580  54.0375270  34.5711020  63.5964380  54.4062670
  33.8284610  62.3814390  53.8923210  46.5054390  53.9564190  39.6900200
  46.1927050  54.0491020  40.5899270  47.2666860  54.5345220  39.6397630
  33.0236530  61.3223990  44.1477540  32.9034130  62.0486080  43.5358810
  32.7137420  60.5526900  43.6705450  30.6621900  64.4939130  49.9546180
  30.7402320  64.6287900  49.0101900  31.2763580  63.7855020  50.1474300
  31.9069530  66.1939320  46.3652360  31.4997610  66.3353910  45.5105960
  32.7982540  65.9099480  46.1623570  47.8631670  66.6403230  54.7024600
  47.9894730  66.4015110  53.7841780  47.9053050  65.8087770  55.1746680
  47.7155680  58.6935690  55.6674340  47.0999950  59.2015360  55.1389800
  47.3952100  57.7934020  55.6100280  30.7181420  65.5353300  52.4940640
  30.8812460  65.0658660  51.6760010  31.1833870  65.0276860  53.1589480
  35.4900190  54.6659060  47.5301210  35.0468340  55.4468600  47.1985730
  36.0485180  54.9888950  48.2372150  39.7770000  57.5327580  53.1336530
  39.3149370  57.7410600  53.9456470  39.3748110  56.7186930  52.8307200
  44.7774510  58.7536530  54.2633190  43.9268100  58.4542280  54.5842260
  44.6176300  58.9978540  53.3517010  41.8724220  60.2538280  56.3631980
  42.1977630  59.4202030  56.0234210  42.6604550  60.7766800  56.5110310
  38.6059010  54.2869760  42.4107040  37.9813190  54.2829630  43.1360350
  38.5189130  53.4200720  42.0143010  37.5276090  55.2106390  49.3890810
  37.8248420  56.1169220  49.3082830  38.0761650  54.7225170  48.7750380
  35.2814410  59.7892630  45.2582460  35.0555330  59.5729800  46.1629080
  34.5006940  60.2221090  44.9128430  42.5112170  59.7956000  43.8573110
  41.9121060  60.5191800  43.6736730  43.0591780  59.7332780  43.0749560
  37.7213620  60.6878210  55.9242730  37.6257220  59.7472940  55.7743130
  38.5645600  60.9093280  55.5290800  41.1177040  58.4319540  45.8876390
  41.5106610  58.7491740  45.0745080  41.4793890  57.5531420  46.0020910
  32.8524160  57.0991880  54.0776510  32.4587550  57.9467090  54.2849290
  32.1642560  56.4618250  54.2685150  30.1541210  55.0220340  48.1106590
  29.8654260  55.5923200  48.8231570  30.8986970  54.5424790  48.4737820
  30.3411440  58.9640460  39.3209310  30.2586110  59.9071220  39.4624300
  29.9894500  58.8215370  38.4421660  41.7032180  61.0225290  49.9827170
  40.9713300  61.5312100  50.3317270  41.3056520  60.2055270  49.6815950
  38.1409570  57.6979490  48.3879660  38.1445630  57.2569440  47.5384200
  39.0360690  58.0196820  48.4951480  33.9911950  57.5805980  47.3473870
  33.6512000  58.0581210  48.1040920  33.2289270  57.1271100  46.9874970
  38.2029720  58.6991570  41.3786420  38.3242540  58.6578050  42.3272240
  37.8178230  59.5615720  41.2233150  42.1658090  56.4758970  49.3950110
  42.1830830  56.9267620  50.2391960  41.9173670  55.5764610  49.6083550
  37.2151220  61.0092710  40.7769720  36.6468120  60.5610960  40.1505630
  37.9240220  61.3685490  40.2434870  45.5928840  53.8891150  55.2336490
  45.9174610  53.1580810  55.7594470  45.6285350  53.5704790  54.3317480
  32.2920400  64.9104730  54.6536450  31.9075190  64.2698400  55.2519410
  32.6032590  65.6140850  55.2231180  38.4417540  61.7581270  50.1345070
  38.8087670  61.2839840  50.8806410  38.2522600  62.6322840  50.4753410
  31.3058030  56.5024960  46.2638540  31.0204950  56.1380630  47.1017160
  31.2436890  55.7705420  45.6501680  36.2316910  60.7989910  52.4529280
  35.9273980  61.6781890  52.6779640  37.1863370  60.8589700  52.4886720
  34.7598700  65.0050900  43.0496130  33.9860960  64.4648520  42.8894850
  35.4893330  64.4857510  42.7113890  45.5186680  64.0016260  48.8422520
  46.2385800  64.4971550  48.4518630  45.3168500  63.3234150  48.1976390
  40.9796620  55.3954220  42.9851910  40.1661230  54.8967390  42.9097220
  40.7858570  56.2352470  42.5688260  40.9005480  64.0725320  54.7291520
  40.8342790  63.1520990  54.4749110  40.2710620  64.1700760  55.4436160
  43.6945010  59.7673870  41.2814070  44.5824630  60.0791100  41.1065410
  43.6650100  58.8946120  40.8894650  34.8036100  64.6731280  46.6874940
  35.3214770  63.8699540  46.6331830  34.3520120  64.6110420  47.5291770
  39.6905600  65.9397560  41.9602240  40.0321300  66.6839790  41.4645560
  38.8618310  66.2528680  42.3227070  32.2880640  61.6392650  53.6000640
  31.9295580  62.3046500  54.1873980  31.9935200  60.8076200  53.9713260
  35.4893760  62.0976890  56.4840190  35.1893900  62.2434070  55.5868010
  36.2605000  61.5382180  56.3913580  45.9659280  61.0785710  40.7493930
  45.8823000  61.5099930  39.8990370  46.6853470  61.5384060  41.1820750
  47.0433420  63.5353230  53.8263900  46.3181610  64.1282010  53.6293290
  47.5708880  63.5276770  53.0277270  42.5733010  65.2613400  47.3247750
  42.9256830  64.6641530  46.6649120  41.6895340  64.9357630  47.4956000
  38.6596290  66.0211090  44.7318160  39.3467420  66.5680300  45.1125750
  37.8728710  66.5651820  44.7667770  30.7988690  61.6383910  40.2235240
  31.6683540  61.9208710  40.5071160  30.3079010  62.4519780  40.1084050
  37.9623500  63.0257120  44.3443520  38.4186280  63.8362370  44.5703710
  37.6111710  62.7080260  45.1762010  33.8635280  53.3694770  44.8166040
  33.7349910  53.3612670  45.7650960  33.0397300  53.7077860  44.4657050
  30.8629210  55.1285890  54.2772740  30.1487730  55.3282810  54.8825350
  31.2824250  54.3525460  54.6487540  44.9660160  64.7416370  41.6766570
  44.6781860  65.2029060  42.4644450  45.7612330  64.2814140  41.9450790
  32.7835200  63.4557380  42.3517300  32.1763150  64.1956280  42.3612600
  33.2584550  63.5456740  41.5255500  42.3567990  57.6208200  52.0274190
  42.7248810  56.8003410  52.3553760  41.4966190  57.6810090  52.4429840
  45.7230020  56.5765140  42.8361750  45.0943180  56.6810810  42.1219980
  45.2281940  56.7961920  43.6255630  37.6914050  58.8551090  44.2519630
  36.9830200  59.3237430  44.6933240  37.9758530  58.1973100  44.8864820
  39.3169980  60.2747790  52.2512160  39.8155230  60.7493610  52.9164010
  39.4592930  59.3511310  52.4582190  41.7229480  55.5801750  45.6915420
  41.5997260  55.5987880  44.7424930  42.6714040  55.6280690  45.8113820
  35.8949070  57.1636170  41.6270340  36.7439600  57.6006320  41.5610530
  35.5280340  57.4756430  42.4542400  46.5236840  56.4915750  53.0940550
  46.0210440  57.2321150  53.4334360  47.3393500  56.8799750  52.7777340
  44.8158850  61.7348930  46.5401910  43.8748990  61.7499160  46.7149600
  45.1302920  60.9484890  46.9862210  34.7940490  63.4168530  40.1005870
  35.5603760  63.3049890  40.6631300  34.8715180  62.7206500  39.4482640
  33.4887250  60.8493600  40.7838760  33.5690840  59.9021110  40.8956160
  34.3807000  61.1800480  40.8899420  31.0158050  62.6708520  56.0194930
  31.5197070  62.0915800  56.5911160  30.2765470  62.9548750  56.5571300
  37.9181670  65.3922710  39.5741220  37.8132310  64.7775060  40.3002600
  37.7505890  64.8688600  38.7904230  38.0695990  64.0779510  55.5530450
  37.3041660  64.6464510  55.4685120  38.2511950  63.7855720  54.6598680
  41.1584400  64.4542740  40.1783210  40.6094500  64.9012040  40.8225950
  41.7803660  63.9491990  40.7020880  45.2119340  65.8084840  56.1105470
  45.9528810  66.1460600  55.6072930  44.4492020  65.9776900  55.5575240
  36.8259520  63.4133660  42.0748510  37.2475940  63.2473530  42.9179900
  36.9510360  62.6033890  41.5803650  34.9886940  59.3930210  54.8819490
  34.4583400  58.9021160  54.2542830  35.6575010  59.8214410  54.3477420
  39.3387160  62.4371270  39.3225610  39.8592820  61.7220290  38.9566760
  39.9855560  63.0757140  39.6226120  43.8865000  63.8599670  54.6460680
  44.3006020  64.0144750  55.4951100  42.9516000  63.9854890  54.8086460
  44.3587170  61.1995830  56.6499830  44.9407940  60.4448150  56.5620310
  44.5348940  61.7303270  55.8731310  35.4759240  56.3592580  54.9616780
  35.3816110  55.7413330  54.2367650  34.8956630  57.0858870  54.7346690
  38.2420680  54.9165820  51.9944170  37.7937980  54.9390080  51.1489720
  37.6085880  54.5184840  52.5914470  38.6480230  63.8120150  52.6156610
  39.0668340  64.6552880  52.4432850  37.7288860  63.9492190  52.3863390
  40.9844130  61.5436330  53.9994450  41.1040340  60.9477470  54.7389290
  41.8438130  61.5806020  53.5795750  43.3232030  62.0973520  52.5756960
  42.7967250  62.6216140  51.9722100  43.6663370  62.7300910  53.2066690
  35.7218420  59.4866890  39.0206670  35.5207480  58.6234250  39.3820010
  35.5510470  59.4000250  38.0828270  37.7512900  58.0857680  55.2570270
  38.3412590  57.7773530  55.9448090  36.9333140  57.6137430  55.4130170
  42.5706330  57.7023490  55.4903290  41.8821850  57.0405030  55.4253280
  43.2912350  57.2561760  55.9351750  43.2006730  54.2975120  41.5493550
  43.4809020  53.4543020  41.9052970  42.4272460  54.5298230  42.0632300
  34.5201220  56.5867510  39.0084550  34.8227120  56.5934940  38.1003700
  35.2595810  56.2365370  39.5052210  37.7386150  55.5302130  39.9940750
  37.3908150  54.8526120  39.4143200  37.9398920  55.0691640  40.8084140
  33.5431350  65.8909930  39.8414350  33.9806220  66.4339600  40.4971930
  34.0279080  65.0656880  39.8510690  47.5787450  63.5351850  42.1597460
  48.3406360  64.1048500  42.2657150  47.5941820  62.9679050  42.9305770
  31.0791790  62.0589780  46.3905120  30.4240630  61.7901420  45.7464820
  31.9169740  61.9494260  45.9407100  48.5847420  64.3901950  47.0039390
  48.9556250  63.6069270  46.5975360  49.2249350  65.0791050  46.8256690
  45.5681180  65.7738530  52.4169710  44.7541020  66.2035690  52.6795500
  45.9755380  66.3856940  51.8038760  47.6306620  63.8286220  39.3169980
  47.9055460  64.7365100  39.1889200  47.4417360  63.7648750  40.2531970
  44.0282230  56.8531070  40.6123610  44.4467110  56.6662050  39.7720270
  43.7218290  56.0010120  40.9226540  47.5271960  61.7655210  44.3099410
  47.1515560  60.9983140  43.8780700  46.7975080  62.1477910  44.7974340
  32.1167720  62.4442350  50.9308460  32.4840760  62.3569750  51.8104480
  31.5478540  61.6808900  50.8315320  46.9171580  60.9126730  53.9438930
  46.6857670  60.6839480  53.0436880  47.1776130  61.8326280  53.8983820
  31.6683720  59.3551440  54.8366880  30.7739770  59.3218200  55.1760590
  32.2081270  59.5538230  55.6018130  45.3559650  56.1383160  56.7218630
  46.2329830  56.1466560  57.1052630  45.3680490  55.4014000  56.1110980
  30.2929870  59.2688710  42.3330450  29.3893950  59.5318910  42.1582110
  30.7770490  59.5399880  41.5530410  46.8022920  59.9912700  47.6106650
  47.3260400  59.4975350  46.9796820  47.3882340  60.1263060  48.3554220
  46.9812640  60.0752570  51.1326200  46.0315350  60.0416110  51.2471190
  47.1625650  60.9852680  50.8975970  32.8357080  58.3254250  40.2424830
  33.5448780  57.9037470  39.7572110  32.1197020  58.3929480  39.6108180
  32.4831240  54.3793580  39.2827480  33.2059370  54.9202520  39.6008700
  32.7555760  54.1057000  38.4069020  46.2922890  59.2486050  43.5499060
  46.7882010  59.0156920  44.3347940  46.0938960  58.4097890  43.1336700
  32.1723430  53.6299770  49.1850100  32.8199620  53.0797150  48.7445260
  32.5925270  53.8842920  50.0065910  47.7210050  57.8847000  46.0836740
  47.6109330  57.7303040  47.0219010  48.4817640  57.3567940  45.8412150
  46.0675770  53.8241130  52.5419740  46.7047990  54.4375270  52.9078930
  46.2150660  53.8601790  51.5968970  48.6100320  55.7154920  39.3242880
  49.5349630  55.5836100  39.1161170  48.5876110  55.7947740  40.2779330
  48.6838810  56.4865580  41.9499590  47.8890310  56.4210700  42.4792500
  48.8882090  57.4216220  41.9384940  31.9255430  53.7855440  51.9275420
  31.5770250  54.2419260  52.6933600  31.5943130  52.8912570  52.0097850
  39.4380250  54.9767320  55.4494840  39.3769140  55.5689150  56.1990250
  40.3780630  54.8693280  55.3045100  42.0754810  54.6337380  55.0887130
  42.6895220  54.9516670  54.4268210  42.6204370  54.1485970  55.7082990
  32.5976070  53.3131640  55.2026190  33.1459060  53.1319690  54.4392300
  32.6631380  52.5225750  55.7382500  42.8162850  53.1969520  51.4156420
  41.9422690  53.5304630  51.2129350  42.7073600  52.7242700  52.2408290
  43.7234830  55.4040390  52.7998140  43.3948190  54.5892150  52.4199870
  44.6717130  55.3610200  52.6763830  40.5637670  54.1139360  50.3549330
  39.7809460  54.5884860  50.6346090  40.2700600  53.2094190  50.2462510
  45.1158740  54.8162460  48.3998420  45.5566830  54.7607560  47.5520020
  44.8466330  55.7320470  48.4708600  46.9797310  54.4477700  46.4107240
  46.9185710  53.5038920  46.2638260  47.7589340  54.5557790  46.9560700
  31.9078080  54.4186840  42.8763050  32.6657440  54.5315720  42.3027080
  31.4455250  55.2556040  42.8306480  38.4491890  56.5326110  45.8665360
  37.6366400  56.1583000  45.5261240  38.9533530  55.7771190  46.1686550
  42.9516870  53.1968560  47.1048430  43.5546240  53.7688770  47.5796950
  42.2109860  53.7608000  46.8822330  46.0951470  53.5990120  42.3788710
  46.2902100  54.4973570  42.6456140  45.3081340  53.3677200  42.8721660
  34.2803230  54.9450890  41.4165020  34.8095990  54.1580690  41.2872970
  34.9131550  55.6242080  41.6500550  36.4741070  54.6826030  44.4710410
  35.8443810  53.9813340  44.6380540  35.9346210  55.4430160  44.2543570
  36.5996630  53.9610010  56.9062900  36.3180900  54.4643610  56.1423720
  36.9816330  53.1631760  56.5405030  42.1070240  61.3956060  27.8478110
  42.0264290  60.4810670  27.5769820  41.6934660  61.8923130  27.1417820
  40.2388280  63.1735080  29.7287380  39.4630380  62.6935520  30.0185950
  40.8901210  62.4940730  29.5543540  34.2554110  63.4854890  30.6063140
  33.4238990  63.2303600  31.0059650  34.8635090  63.5565660  31.3421060
  32.6646060  58.4456780  24.3905530  31.7762760  58.7872750  24.2885410
  32.9487250  58.2457100  23.4986360  30.6279070  61.0462430  30.2745230
  31.1995180  60.2784630  30.2748870  30.6280610  61.3451190  29.3651840
  39.6797270  65.8492270  29.7357540  39.6105550  64.9082210  29.5746670
  40.4417130  65.9393680  30.3080110  31.8703940  56.4546790  32.0614160
  31.6906780  55.5572540  32.3416920  31.4684020  57.0018660  32.7361110
  40.7102440  58.6562650  29.9626470  41.0867260  57.7834530  29.8500140
  40.6121950  58.9921350  29.0716910  34.8407450  57.0288280  25.4243910
  34.9474200  57.9292010  25.7312670  33.9299810  56.9806250  25.1338560
  44.4926560  56.1513090  26.8954810  45.3136180  55.6609660  26.9380290
  44.5260640  56.7410750  27.6486650  32.4890610  58.9507290  30.6696500
  33.1700720  59.2145660  31.2883900  32.1738660  58.1108160  31.0034510
  36.6815180  59.9974650  29.7569090  37.1893400  60.4955620  30.3974110
  37.2128420  59.2209850  29.5808450  48.7826110  58.1679840  33.4598440
  48.0778280  58.5561550  32.9413550  49.0484030  58.8630130  34.0619370
  34.9651280  54.6373210  34.0232510  34.9669720  55.1545600  33.2178410
  34.1355590  54.1603390  34.0002440  41.3522370  64.7492520  25.5222410
  40.7339640  65.2141970  24.9585130  41.8645620  65.4420000  25.9391920
  36.2154130  64.2768390  32.2006010  35.8823510  64.9037310  32.8427080
  36.3920810  64.8030270  31.4207680  44.7288040  58.0913470  29.6682350
  44.0243610  58.3798360  30.2485460  45.0900200  58.9013580  29.3081910
  34.6466610  56.3483170  32.0302960  34.9883420  57.1925220  31.7356830
  33.7082420  56.4966910  32.1468300  30.7205570  65.4349050  22.8962040
  30.3433550  65.9236150  22.1646940  30.9778640  66.1074330  23.5268570
  47.7974960  57.5368260  30.0591560  46.8499870  57.5707240  30.1906990
  48.1224950  58.3507210  30.4440920  38.3294500  53.8365440  28.3547550
  38.6369480  53.2812330  27.6383050  37.3995200  53.9709900  28.1720540
  45.1754980  66.2748950  25.7345180  45.0651310  65.3323280  25.8594600
  45.1723230  66.6364590  26.6207940  43.2795000  64.4562570  31.9737620
  43.6963790  64.2422680  31.1391080  44.0034820  64.7135360  32.5446240
  40.7175260  61.9014270  25.0907670  39.7904540  61.8351650  25.3196140
  40.8700080  62.8394400  24.9762910  40.7044340  58.1731270  22.0874830
  39.7648010  58.3345230  22.1727290  41.0227600  58.8916950  21.5410820
  47.2257100  62.8549790  32.0653860  46.3975730  62.9242880  31.5903990
  47.8207580  63.4404100  31.5969690  44.7472550  63.4634570  25.5942920
  44.1284970  63.1254120  24.9469220  44.7297000  62.8194330  26.3022110
  44.1899110  59.6419110  33.0108730  43.7770290  60.4672820  33.2648720
  43.4575060  59.0564150  32.8185090  36.3231900  62.4279010  27.8727400
  35.9188900  61.7156260  27.3773300  36.4095020  62.0832250  28.7615440
  36.7913600  66.1146570  30.0366610  36.4941890  65.5092040  29.3574390
  37.7413420  66.1523880  29.9255970  35.0360520  59.2022220  31.6526440
  35.5875110  59.3117560  30.8779690  35.5504030  59.5759820  32.3681670
  35.8832030  65.8528260  36.6874410  34.9860560  66.0768230  36.9347810
  35.9084900  65.9763200  35.7385810  42.9237250  62.7021380  22.6015670
  43.3630530  61.8643810  22.4553490  43.6365670  63.3350780  22.6879810
  34.7103250  62.7241580  35.2631780  34.5711020  63.5964380  35.6319180
  33.8284610  62.3814390  35.1179720  46.5054390  53.9564190  20.9156710
  46.1927050  54.0491020  21.8155780  47.2666860  54.5345220  20.8654140
  33.0236530  61.3223990  25.3734050  32.9034130  62.0486080  24.7615320
  32.7137420  60.5526900  24.8961960  30.6621900  64.4939130  31.1802690
  30.7402320  64.6287900  30.2358410  31.2763580  63.7855020  31.3730810
  31.9069530  66.1939320  27.5908870  31.4997610  66.3353910  26.7362470
  32.7982540  65.9099480  27.3880080  47.8631670  66.6403230  35.9281110
  47.9894730  66.4015110  35.0098290  47.9053050  65.8087770  36.4003190
  47.7155680  58.6935690  36.8930850  47.0999950  59.2015360  36.3646310
  47.3952100  57.7934020  36.8356790  30.7181420  65.5353300  33.7197150
  30.8812460  65.0658660  32.9016520  31.1833870  65.0276860  34.3845990
  35.4900190  54.6659060  28.7557720  35.0468340  55.4468600  28.4242240
  36.0485180  54.9888950  29.4628660  39.7770000  57.5327580  34.3593040
  39.3149370  57.7410600  35.1712980  39.3748110  56.7186930  34.0563710
  44.7774510  58.7536530  35.4889700  43.9268100  58.4542280  35.8098770
  44.6176300  58.9978540  34.5773520  41.8724220  60.2538280  37.5888490
  42.1977630  59.4202030  37.2490720  42.6604550  60.7766800  37.7366820
  38.6059010  54.2869760  23.6363550  37.9813190  54.2829630  24.3616860
  38.5189130  53.4200720  23.2399520  37.5276090  55.2106390  30.6147320
  37.8248420  56.1169220  30.5339340  38.0761650  54.7225170  30.0006890
  35.2814410  59.7892630  26.4838970  35.0555330  59.5729800  27.3885590
  34.5006940  60.2221090  26.1384940  42.5112170  59.7956000  25.0829620
  41.9121060  60.5191800  24.8993240  43.0591780  59.7332780  24.3006070
  37.7213620  60.6878210  37.1499240  37.6257220  59.7472940  36.9999640
  38.5645600  60.9093280  36.7547310  41.1177040  58.4319540  27.1132900
  41.5106610  58.7491740  26.3001590  41.4793890  57.5531420  27.2277420
  32.8524160  57.0991880  35.3033020  32.4587550  57.9467090  35.5105800
  32.1642560  56.4618250  35.4941660  39.4269210  57.1826850  38.3729760
  38.7367530  56.9899050  39.0075850  40.1701510  57.4661490  38.9054060
  30.1541210  55.0220340  29.3363100  29.8654260  55.5923200  30.0488080
  30.8986970  54.5424790  29.6994330  30.3411440  58.9640460  20.5465820
  30.2586110  59.9071220  20.6880810  29.9894500  58.8215370  19.6678170
  41.7032180  61.0225290  31.2083680  40.9713300  61.5312100  31.5573780
  41.3056520  60.2055270  30.9072460  38.1409570  57.6979490  29.6136170
  38.1445630  57.2569440  28.7640710  39.0360690  58.0196820  29.7207990
  33.9911950  57.5805980  28.5730380  33.6512000  58.0581210  29.3297430
  33.2289270  57.1271100  28.2131480  38.2029720  58.6991570  22.6042930
  38.3242540  58.6578050  23.5528750  37.8178230  59.5615720  22.4489660
  42.1658090  56.4758970  30.6206620  42.1830830  56.9267620  31.4648470
  41.9173670  55.5764610  30.8340060  37.2151220  61.0092710  22.0026230
  36.6468120  60.5610960  21.3762140  37.9240220  61.3685490  21.4691380
  45.5928840  53.8891150  36.4593000  45.9174610  53.1580810  36.9850980
  45.6285350  53.5704790  35.5573990  32.2920400  64.9104730  35.8792960
  31.9075190  64.2698400  36.4775920  32.6032590  65.6140850  36.4487690
  38.4417540  61.7581270  31.3601580  38.8087670  61.2839840  32.1062920
  38.2522600  62.6322840  31.7009920  31.3058030  56.5024960  27.4895050
  31.0204950  56.1380630  28.3273670  31.2436890  55.7705420  26.8758190
  36.2316910  60.7989910  33.6785790  35.9273980  61.6781890  33.9036150
  37.1863370  60.8589700  33.7143230  34.7598700  65.0050900  24.2752640
  33.9860960  64.4648520  24.1151360  35.4893330  64.4857510  23.9370400
  45.5186680  64.0016260  30.0679030  46.2385800  64.4971550  29.6775140
  45.3168500  63.3234150  29.4232900  40.9796620  55.3954220  24.2108420
  40.1661230  54.8967390  24.1353730  40.7858570  56.2352470  23.7944770
  40.9005480  64.0725320  35.9548030  40.8342790  63.1520990  35.7005620
  40.2710620  64.1700760  36.6692670  43.6945010  59.7673870  22.5070580
  44.5824630  60.0791100  22.3321920  43.6650100  58.8946120  22.1151160
  34.8036100  64.6731280  27.9131450  35.3214770  63.8699540  27.8588340
  34.3520120  64.6110420  28.7548280  39.6905600  65.9397560  23.1858750
  40.0321300  66.6839790  22.6902070  38.8618310  66.2528680  23.5483580
  32.2880640  61.6392650  34.8257150  31.9295580  62.3046500  35.4130490
  31.9935200  60.8076200  35.1969770  35.4893760  62.0976890  37.7096700
  35.1893900  62.2434070  36.8124520  36.2605000  61.5382180  37.6170090
  45.9659280  61.0785710  21.9750440  45.8823000  61.5099930  21.1246880
  46.6853470  61.5384060  22.4077260  47.0433420  63.5353230  35.0520410
  46.3181610  64.1282010  34.8549800  47.5708880  63.5276770  34.2533780
  42.5733010  65.2613400  28.5504260  42.9256830  64.6641530  27.8905630
  41.6895340  64.9357630  28.7212510  38.6596290  66.0211090  25.9574670
  39.3467420  66.5680300  26.3382260  37.8728710  66.5651820  25.9924280
  30.7988690  61.6383910  21.4491750  31.6683540  61.9208710  21.7327670
  30.3079010  62.4519780  21.3340560  37.9623500  63.0257120  25.5700030
  38.4186280  63.8362370  25.7960220  37.6111710  62.7080260  26.4018520
  33.8635280  53.3694770  26.0422550  33.7349910  53.3612670  26.9907470
  33.0397300  53.7077860  25.6913560  30.8629210  55.1285890  35.5029250
  30.1487730  55.3282810  36.1081860  31.2824250  54.3525460  35.8744050
  44.9660160  64.7416370  22.9023080  44.6781860  65.2029060  23.6900960
  45.7612330  64.2814140  23.1707300  32.7835200  63.4557380  23.5773810
  32.1763150  64.1956280  23.5869110  33.2584550  63.5456740  22.7512010
  42.3567990  57.6208200  33.2530700  42.7248810  56.8003410  33.5810270
  41.4966190  57.6810090  33.6686350  45.7230020  56.5765140  24.0618260
  45.0943180  56.6810810  23.3476490  45.2281940  56.7961920  24.8512140
  37.6914050  58.8551090  25.4776140  36.9830200  59.3237430  25.9189750
  37.9758530  58.1973100  26.1121330  39.3169980  60.2747790  33.4768670
  39.8155230  60.7493610  34.1420520  39.4592930  59.3511310  33.6838700
  41.7229480  55.5801750  26.9171930  41.5997260  55.5987880  25.9681440
  42.6714040  55.6280690  27.0370330  35.8949070  57.1636170  22.8526850
  36.7439600  57.6006320  22.7867040  35.5280340  57.4756430  23.6798910
  46.5236840  56.4915750  34.3197060  46.0210440  57.2321150  34.6590870
  47.3393500  56.8799750  34.0033850  44.8158850  61.7348930  27.7658420
  43.8748990  61.7499160  27.9406110  45.1302920  60.9484890  28.2118720
  34.7940490  63.4168530  21.3262380  35.5603760  63.3049890  21.8887810
  34.8715180  62.7206500  20.6739150  33.4887250  60.8493600  22.0095270
  33.5690840  59.9021110  22.1212670  34.3807000  61.1800480  22.1155930
  42.1324870  66.2914930  38.2490800  41.5263030  66.3146530  37.5086550
  41.8278980  65.5597970  38.7858050  31.0158050  62.6708520  37.2451440
  31.5197070  62.0915800  37.8167670  30.2765470  62.9548750  37.7827810
  37.9181670  65.3922710  20.7997730  37.8132310  64.7775060  21.5259110
  37.7505890  64.8688600  20.0160740  38.0695990  64.0779510  36.7786960
  37.3041660  64.6464510  36.6941630  38.2511950  63.7855720  35.8855190
  41.1584400  64.4542740  21.4039720  40.6094500  64.9012040  22.0482460
  41.7803660  63.9491990  21.9277390  45.2119340  65.8084840  37.3361980
  45.9528810  66.1460600  36.8329440  44.4492020  65.9776900  36.7831750
  33.0481130  60.8138110  38.1401510  33.0886470  60.5151980  39.0486740
  33.9026630  61.2145720  37.9809030  36.8259520  63.4133660  23.3005020
  37.2475940  63.2473530  24.1436410  36.9510360  62.6033890  22.8060160
  34.9886940  59.3930210  36.1076000  34.4583400  58.9021160  35.4799340
  35.6575010  59.8214410  35.5733930  39.3387160  62.4371270  20.5482120
  39.8592820  61.7220290  20.1823270  39.9855560  63.0757140  20.8482630
  43.8865000  63.8599670  35.8717190  44.3006020  64.0144750  36.7207610
  42.9516000  63.9854890  36.0342970  44.3587170  61.1995830  37.8756340
  44.9407940  60.4448150  37.7876820  44.5348940  61.7303270  37.0987820
  35.4759240  56.3592580  36.1873290  35.3816110  55.7413330  35.4624160
  34.8956630  57.0858870  35.9603200  38.2420680  54.9165820  33.2200680
  37.7937980  54.9390080  32.3746230  37.6085880  54.5184840  33.8170980
  38.6480230  63.8120150  33.8413120  39.0668340  64.6552880  33.6689360
  37.7288860  63.9492190  33.6119900  40.9844130  61.5436330  35.2250960
  41.1040340  60.9477470  35.9645800  41.8438130  61.5806020  34.8052260
  43.3232030  62.0973520  33.8013470  42.7967250  62.6216140  33.1978610
  43.6663370  62.7300910  34.4323200  35.7218420  59.4866890  20.2463180
  35.5207480  58.6234250  20.6076520  35.5510470  59.4000250  19.3084780
  37.7512900  58.0857680  36.4826780  38.3412590  57.7773530  37.1704600
  36.9333140  57.6137430  36.6386680  42.5706330  57.7023490  36.7159800
  41.8821850  57.0405030  36.6509790  43.2912350  57.2561760  37.1608260
  43.2006730  54.2975120  22.7750060  43.4809020  53.4543020  23.1309480
  42.4272460  54.5298230  23.2888810  34.5201220  56.5867510  20.2341060
  34.8227120  56.5934940  19.3260210  35.2595810  56.2365370  20.7308720
  37.7386150  55.5302130  21.2197260  37.3908150  54.8526120  20.6399710
  37.9398920  55.0691640  22.0340650  33.5431350  65.8909930  21.0670860
  33.9806220  66.4339600  21.7228440  34.0279080  65.0656880  21.0767200
  47.5787450  63.5351850  23.3853970  48.3406360  64.1048500  23.4913660
  47.5941820  62.9679050  24.1562280  31.0791790  62.0589780  27.6161630
  30.4240630  61.7901420  26.9721330  31.9169740  61.9494260  27.1663610
  48.5847420  64.3901950  28.2295900  48.9556250  63.6069270  27.8231870
  49.2249350  65.0791050  28.0513200  45.5681180  65.7738530  33.6426220
  44.7541020  66.2035690  33.9052010  45.9755380  66.3856940  33.0295270
  47.6306620  63.8286220  20.5426490  47.9055460  64.7365100  20.4145710
  47.4417360  63.7648750  21.4788480  44.0282230  56.8531070  21.8380120
  44.4467110  56.6662050  20.9976780  43.7218290  56.0010120  22.1483050
  47.5271960  61.7655210  25.5355920  47.1515560  60.9983140  25.1037210
  46.7975080  62.1477910  26.0230850  32.1167720  62.4442350  32.1564970
  32.4840760  62.3569750  33.0360990  31.5478540  61.6808900  32.0571830
  46.9171580  60.9126730  35.1695440  46.6857670  60.6839480  34.2693390
  47.1776130  61.8326280  35.1240330  31.6683720  59.3551440  36.0623390
  30.7739770  59.3218200  36.4017100  32.2081270  59.5538230  36.8274640
  45.3559650  56.1383160  37.9475140  46.2329830  56.1466560  38.3309140
  45.3680490  55.4014000  37.3367490  30.2929870  59.2688710  23.5586960
  29.3893950  59.5318910  23.3838620  30.7770490  59.5399880  22.7786920
  46.8022920  59.9912700  28.8363160  47.3260400  59.4975350  28.2053330
  47.3882340  60.1263060  29.5810730  46.9812640  60.0752570  32.3582710
  46.0315350  60.0416110  32.4727700  47.1625650  60.9852680  32.1232480
  32.8357080  58.3254250  21.4681340  33.5448780  57.9037470  20.9828620
  32.1197020  58.3929480  20.8364690  32.4831240  54.3793580  20.5083990
  33.2059370  54.9202520  20.8265210  32.7555760  54.1057000  19.6325530
  46.2922890  59.2486050  24.7755570  46.7882010  59.0156920  25.5604450
  46.0938960  58.4097890  24.3593210  32.1723430  53.6299770  30.4106610
  32.8199620  53.0797150  29.9701770  32.5925270  53.8842920  31.2322420
  47.7210050  57.8847000  27.3093250  47.6109330  57.7303040  28.2475520
  48.4817640  57.3567940  27.0668660  46.0675770  53.8241130  33.7676250
  46.7047990  54.4375270  34.1335440  46.2150660  53.8601790  32.8225480
  48.6100320  55.7154920  20.5499390  49.5349630  55.5836100  20.3417680
  48.5876110  55.7947740  21.5035840  48.6838810  56.4865580  23.1756100
  47.8890310  56.4210700  23.7049010  48.8882090  57.4216220  23.1641450
  31.9255430  53.7855440  33.1531930  31.5770250  54.2419260  33.9190110
  31.5943130  52.8912570  33.2354360  39.4380250  54.9767320  36.6751350
  39.3769140  55.5689150  37.4246760  40.3780630  54.8693280  36.5301610
  42.0754810  54.6337380  36.3143640  42.6895220  54.9516670  35.6524720
  42.6204370  54.1485970  36.9339500  32.5976070  53.3131640  36.4282700
  33.1459060  53.1319690  35.6648810  32.6631380  52.5225750  36.9639010
  42.8162850  53.1969520  32.6412930  41.9422690  53.5304630  32.4385860
  42.7073600  52.7242700  33.4664800  43.7234830  55.4040390  34.0254650
  43.3948190  54.5892150  33.6456380  44.6717130  55.3610200  33.9020340
  40.5637670  54.1139360  31.5805840  39.7809460  54.5884860  31.8602600
  40.2700600  53.2094190  31.4719020  45.1158740  54.8162460  29.6254930
  45.5566830  54.7607560  28.7776530  44.8466330  55.7320470  29.6965110
  46.9797310  54.4477700  27.6363750  46.9185710  53.5038920  27.4894770
  47.7589340  54.5557790  28.1817210  31.9078080  54.4186840  24.1019560
  32.6657440  54.5315720  23.5283590  31.4455250  55.2556040  24.0562990
  38.4491890  56.5326110  27.0921870  37.6366400  56.1583000  26.7517750
  38.9533530  55.7771190  27.3943060  42.9516870  53.1968560  28.3304940
  43.5546240  53.7688770  28.8053460  42.2109860  53.7608000  28.1078840
  46.0951470  53.5990120  23.6045220  46.2902100  54.4973570  23.8712650
  45.3081340  53.3677200  24.0978170  34.2803230  54.9450890  22.6421530
  34.8095990  54.1580690  22.5129480  34.9131550  55.6242080  22.8757060
  36.4741070  54.6826030  25.6966920  35.8443810  53.9813340  25.8637050
  35.9346210  55.4430160  25.4800080  36.5996630  53.9610010  38.1319410
  36.3180900  54.4643610  37.3680230  36.9816330  53.1631760  37.7661540
  43.2012090  53.3763590  38.7099880  43.0877540  53.6958200  39.6051400
  44.0181830  53.7776100  38.4137160  42.1070240  61.3956060   9.0734620
  42.0264290  60.4810670   8.8026330  41.6934660  61.8923130   8.3674330
  40.2388280  63.1735080  10.9543890  39.4630380  62.6935520  11.2442460
  40.8901210  62.4940730  10.7800050  34.2554110  63.4854890  11.8319650
  33.4238990  63.2303600  12.2316160  34.8635090  63.5565660  12.5677570
  32.6646060  58.4456780   5.6162040  31.7762760  58.7872750   5.5141920
  32.9487250  58.2457100   4.7242870  30.6279070  61.0462430  11.5001740
  31.1995180  60.2784630  11.5005380  30.6280610  61.3451190  10.5908350
  39.6797270  65.8492270  10.9614050  39.6105550  64.9082210  10.8003180
  40.4417130  65.9393680  11.5336620  31.8703940  56.4546790  13.2870670
  31.6906780  55.5572540  13.5673430  31.4684020  57.0018660  13.9617620
  40.7102440  58.6562650  11.1882980  41.0867260  57.7834530  11.0756650
  40.6121950  58.9921350  10.2973420  34.8407450  57.0288280   6.6500420
  34.9474200  57.9292010   6.9569180  33.9299810  56.9806250   6.3595070
  44.4926560  56.1513090   8.1211320  45.3136180  55.6609660   8.1636800
  44.5260640  56.7410750   8.8743160  32.4890610  58.9507290  11.8953010
  33.1700720  59.2145660  12.5140410  32.1738660  58.1108160  12.2291020
  36.6815180  59.9974650  10.9825600  37.1893400  60.4955620  11.6230620
  37.2128420  59.2209850  10.8064960  48.7826110  58.1679840  14.6854950
  48.0778280  58.5561550  14.1670060  49.0484030  58.8630130  15.2875880
  34.9651280  54.6373210  15.2489020  34.9669720  55.1545600  14.4434920
  34.1355590  54.1603390  15.2258950  41.3522370  64.7492520   6.7478920
  40.7339640  65.2141970   6.1841640  41.8645620  65.4420000   7.1648430
  36.2154130  64.2768390  13.4262520  35.8823510  64.9037310  14.0683590
  36.3920810  64.8030270  12.6464190  44.7288040  58.0913470  10.8938860
  44.0243610  58.3798360  11.4741970  45.0900200  58.9013580  10.5338420
  34.6466610  56.3483170  13.2559470  34.9883420  57.1925220  12.9613340
  33.7082420  56.4966910  13.3724810  30.7205570  65.4349050   4.1218550
  30.3433550  65.9236150   3.3903450  30.9778640  66.1074330   4.7525080
  47.7974960  57.5368260  11.2848070  46.8499870  57.5707240  11.4163500
  48.1224950  58.3507210  11.6697430  38.3294500  53.8365440   9.5804060
  38.6369480  53.2812330   8.8639560  37.3995200  53.9709900   9.3977050
  45.1754980  66.2748950   6.9601690  45.0651310  65.3323280   7.0851110
  45.1723230  66.6364590   7.8464450  43.2795000  64.4562570  13.1994130
  43.6963790  64.2422680  12.3647590  44.0034820  64.7135360  13.7702750
  40.7175260  61.9014270   6.3164180  39.7904540  61.8351650   6.5452650
  40.8700080  62.8394400   6.2019420  40.7044340  58.1731270   3.3131340
  39.7648010  58.3345230   3.3983800  41.0227600  58.8916950   2.7667330
  47.2257100  62.8549790  13.2910370  46.3975730  62.9242880  12.8160500
  47.8207580  63.4404100  12.8226200  44.7472550  63.4634570   6.8199430
  44.1284970  63.1254120   6.1725730  44.7297000  62.8194330   7.5278620
  44.1899110  59.6419110  14.2365240  43.7770290  60.4672820  14.4905230
  43.4575060  59.0564150  14.0441600  36.3231900  62.4279010   9.0983910
  35.9188900  61.7156260   8.6029810  36.4095020  62.0832250   9.9871950
  36.7913600  66.1146570  11.2623120  36.4941890  65.5092040  10.5830900
  37.7413420  66.1523880  11.1512480  35.0360520  59.2022220  12.8782950
  35.5875110  59.3117560  12.1036200  35.5504030  59.5759820  13.5938180
  35.8832030  65.8528260  17.9130920  34.9860560  66.0768230  18.1604320
  35.9084900  65.9763200  16.9642320  42.9237250  62.7021380   3.8272180
  43.3630530  61.8643810   3.6810000  43.6365670  63.3350780   3.9136320
  34.7103250  62.7241580  16.4888290  34.5711020  63.5964380  16.8575690
  33.8284610  62.3814390  16.3436230  46.5054390  53.9564190   2.1413220
  46.1927050  54.0491020   3.0412290  47.2666860  54.5345220   2.0910650
  33.0236530  61.3223990   6.5990560  32.9034130  62.0486080   5.9871830
  32.7137420  60.5526900   6.1218470  30.6621900  64.4939130  12.4059200
  30.7402320  64.6287900  11.4614920  31.2763580  63.7855020  12.5987320
  31.9069530  66.1939320   8.8165380  31.4997610  66.3353910   7.9618980
  32.7982540  65.9099480   8.6136590  47.8631670  66.6403230  17.1537620
  47.9894730  66.4015110  16.2354800  47.9053050  65.8087770  17.6259700
  47.7155680  58.6935690  18.1187360  47.0999950  59.2015360  17.5902820
  47.3952100  57.7934020  18.0613300  30.7181420  65.5353300  14.9453660
  30.8812460  65.0658660  14.1273030  31.1833870  65.0276860  15.6102500
  35.4900190  54.6659060   9.9814230  35.0468340  55.4468600   9.6498750
  36.0485180  54.9888950  10.6885170  39.7770000  57.5327580  15.5849550
  39.3149370  57.7410600  16.3969490  39.3748110  56.7186930  15.2820220
  44.7774510  58.7536530  16.7146210  43.9268100  58.4542280  17.0355280
  44.6176300  58.9978540  15.8030030  41.8724220  60.2538280  18.8145000
  42.1977630  59.4202030  18.4747230  42.6604550  60.7766800  18.9623330
  38.6059010  54.2869760   4.8620060  37.9813190  54.2829630   5.5873370
  38.5189130  53.4200720   4.4656030  37.5276090  55.2106390  11.8403830
  37.8248420  56.1169220  11.7595850  38.0761650  54.7225170  11.2263400
  35.2814410  59.7892630   7.7095480  35.0555330  59.5729800   8.6142100
  34.5006940  60.2221090   7.3641450  42.5112170  59.7956000   6.3086130
  41.9121060  60.5191800   6.1249750  43.0591780  59.7332780   5.5262580
  37.7213620  60.6878210  18.3755750  37.6257220  59.7472940  18.2256150
  38.5645600  60.9093280  17.9803820  41.1177040  58.4319540   8.3389410
  41.5106610  58.7491740   7.5258100  41.4793890  57.5531420   8.4533930
  32.8524160  57.0991880  16.5289530  32.4587550  57.9467090  16.7362310
  32.1642560  56.4618250  16.7198170  39.4269210  57.1826850  19.5986270
  38.7367530  56.9899050  20.2332360  40.1701510  57.4661490  20.1310570
  30.1541210  55.0220340  10.5619610  29.8654260  55.5923200  11.2744590
  30.8986970  54.5424790  10.9250840  41.7032180  61.0225290  12.4340190
  40.9713300  61.5312100  12.7830290  41.3056520  60.2055270  12.1328970
  38.1409570  57.6979490  10.8392680  38.1445630  57.2569440   9.9897220
  39.0360690  58.0196820  10.9464500  33.9911950  57.5805980   9.7986890
  33.6512000  58.0581210  10.5553940  33.2289270  57.1271100   9.4387990
  38.2029720  58.6991570   3.8299440  38.3242540  58.6578050   4.7785260
  37.8178230  59.5615720   3.6746170  42.1658090  56.4758970  11.8463130
  42.1830830  56.9267620  12.6904980  41.9173670  55.5764610  12.0596570
  37.2151220  61.0092710   3.2282740  36.6468120  60.5610960   2.6018650
  37.9240220  61.3685490   2.6947890  45.5928840  53.8891150  17.6849510
  45.9174610  53.1580810  18.2107490  45.6285350  53.5704790  16.7830500
  32.2920400  64.9104730  17.1049470  31.9075190  64.2698400  17.7032430
  32.6032590  65.6140850  17.6744200  38.4417540  61.7581270  12.5858090
  38.8087670  61.2839840  13.3319430  38.2522600  62.6322840  12.9266430
  31.3058030  56.5024960   8.7151560  31.0204950  56.1380630   9.5530180
  31.2436890  55.7705420   8.1014700  36.2316910  60.7989910  14.9042300
  35.9273980  61.6781890  15.1292660  37.1863370  60.8589700  14.9399740
  34.7598700  65.0050900   5.5009150  33.9860960  64.4648520   5.3407870
  35.4893330  64.4857510   5.1626910  45.5186680  64.0016260  11.2935540
  46.2385800  64.4971550  10.9031650  45.3168500  63.3234150  10.6489410
  40.9796620  55.3954220   5.4364930  40.1661230  54.8967390   5.3610240
  40.7858570  56.2352470   5.0201280  40.9005480  64.0725320  17.1804540
  40.8342790  63.1520990  16.9262130  40.2710620  64.1700760  17.8949180
  43.6945010  59.7673870   3.7327090  44.5824630  60.0791100   3.5578430
  43.6650100  58.8946120   3.3407670  34.8036100  64.6731280   9.1387960
  35.3214770  63.8699540   9.0844850  34.3520120  64.6110420   9.9804790
  39.6905600  65.9397560   4.4115260  40.0321300  66.6839790   3.9158580
  38.8618310  66.2528680   4.7740090  32.2880640  61.6392650  16.0513660
  31.9295580  62.3046500  16.6387000  31.9935200  60.8076200  16.4226280
  35.4893760  62.0976890  18.9353210  35.1893900  62.2434070  18.0381030
  36.2605000  61.5382180  18.8426600  45.9659280  61.0785710   3.2006950
  45.8823000  61.5099930   2.3503390  46.6853470  61.5384060   3.6333770
  47.0433420  63.5353230  16.2776920  46.3181610  64.1282010  16.0806310
  47.5708880  63.5276770  15.4790290  42.5733010  65.2613400   9.7760770
  42.9256830  64.6641530   9.1162140  41.6895340  64.9357630   9.9469020
  38.6596290  66.0211090   7.1831180  39.3467420  66.5680300   7.5638770
  37.8728710  66.5651820   7.2180790  30.7988690  61.6383910   2.6748260
  31.6683540  61.9208710   2.9584180  30.3079010  62.4519780   2.5597070
  37.9623500  63.0257120   6.7956540  38.4186280  63.8362370   7.0216730
  37.6111710  62.7080260   7.6275030  33.8635280  53.3694770   7.2679060
  33.7349910  53.3612670   8.2163980  33.0397300  53.7077860   6.9170070
  30.8629210  55.1285890  16.7285760  30.1487730  55.3282810  17.3338370
  31.2824250  54.3525460  17.1000560  44.9660160  64.7416370   4.1279590
  44.6781860  65.2029060   4.9157470  45.7612330  64.2814140   4.3963810
  32.7835200  63.4557380   4.8030320  32.1763150  64.1956280   4.8125620
  33.2584550  63.5456740   3.9768520  42.3567990  57.6208200  14.4787210
  42.7248810  56.8003410  14.8066780  41.4966190  57.6810090  14.8942860
  45.7230020  56.5765140   5.2874770  45.0943180  56.6810810   4.5733000
  45.2281940  56.7961920   6.0768650  37.6914050  58.8551090   6.7032650
  36.9830200  59.3237430   7.1446260  37.9758530  58.1973100   7.3377840
  39.3169980  60.2747790  14.7025180  39.8155230  60.7493610  15.3677030
  39.4592930  59.3511310  14.9095210  41.7229480  55.5801750   8.1428440
  41.5997260  55.5987880   7.1937950  42.6714040  55.6280690   8.2626840
  35.8949070  57.1636170   4.0783360  36.7439600  57.6006320   4.0123550
  35.5280340  57.4756430   4.9055420  46.5236840  56.4915750  15.5453570
  46.0210440  57.2321150  15.8847380  47.3393500  56.8799750  15.2290360
  44.8158850  61.7348930   8.9914930  43.8748990  61.7499160   9.1662620
  45.1302920  60.9484890   9.4375230  34.7940490  63.4168530   2.5518890
  35.5603760  63.3049890   3.1144320  34.8715180  62.7206500   1.8995660
  33.4887250  60.8493600   3.2351780  33.5690840  59.9021110   3.3469180
  34.3807000  61.1800480   3.3412440  42.1324870  66.2914930  19.4747310
  41.5263030  66.3146530  18.7343060  41.8278980  65.5597970  20.0114560
  31.0158050  62.6708520  18.4707950  31.5197070  62.0915800  19.0424180
  30.2765470  62.9548750  19.0084320  38.0695990  64.0779510  18.0043470
  37.3041660  64.6464510  17.9198140  38.2511950  63.7855720  17.1111700
  41.1584400  64.4542740   2.6296230  40.6094500  64.9012040   3.2738970
  41.7803660  63.9491990   3.1533900  45.2119340  65.8084840  18.5618490
  45.9528810  66.1460600  18.0585950  44.4492020  65.9776900  18.0088260
  33.0481130  60.8138110  19.3658020  33.0886470  60.5151980  20.2743250
  33.9026630  61.2145720  19.2065540  36.8259520  63.4133660   4.5261530
  37.2475940  63.2473530   5.3692920  36.9510360  62.6033890   4.0316670
  34.9886940  59.3930210  17.3332510  34.4583400  58.9021160  16.7055850
  35.6575010  59.8214410  16.7990440  43.8865000  63.8599670  17.0973700
  44.3006020  64.0144750  17.9464120  42.9516000  63.9854890  17.2599480
  44.3587170  61.1995830  19.1012850  44.9407940  60.4448150  19.0133330
  44.5348940  61.7303270  18.3244330  35.4759240  56.3592580  17.4129800
  35.3816110  55.7413330  16.6880670  34.8956630  57.0858870  17.1859710
  38.2420680  54.9165820  14.4457190  37.7937980  54.9390080  13.6002740
  37.6085880  54.5184840  15.0427490  38.6480230  63.8120150  15.0669630
  39.0668340  64.6552880  14.8945870  37.7288860  63.9492190  14.8376410
  40.9844130  61.5436330  16.4507470  41.1040340  60.9477470  17.1902310
  41.8438130  61.5806020  16.0308770  43.3232030  62.0973520  15.0269980
  42.7967250  62.6216140  14.4235120  43.6663370  62.7300910  15.6579710
  37.7512900  58.0857680  17.7083290  38.3412590  57.7773530  18.3961110
  36.9333140  57.6137430  17.8643190  42.5706330  57.7023490  17.9416310
  41.8821850  57.0405030  17.8766300  43.2912350  57.2561760  18.3864770
  43.2006730  54.2975120   4.0006570  43.4809020  53.4543020   4.3565990
  42.4272460  54.5298230   4.5145320  37.7386150  55.5302130   2.4453770
  37.3908150  54.8526120   1.8656220  37.9398920  55.0691640   3.2597160
  33.5431350  65.8909930   2.2927370  33.9806220  66.4339600   2.9484950
  34.0279080  65.0656880   2.3023710  47.5787450  63.5351850   4.6110480
  48.3406360  64.1048500   4.7170170  47.5941820  62.9679050   5.3818790
  31.0791790  62.0589780   8.8418140  30.4240630  61.7901420   8.1977840
  31.9169740  61.9494260   8.3920120  48.5847420  64.3901950   9.4552410
  48.9556250  63.6069270   9.0488380  49.2249350  65.0791050   9.2769710
  45.5681180  65.7738530  14.8682730  44.7541020  66.2035690  15.1308520
  45.9755380  66.3856940  14.2551780  47.6306620  63.8286220   1.7683000
  47.9055460  64.7365100   1.6402220  47.4417360  63.7648750   2.7044990
  44.0282230  56.8531070   3.0636630  44.4467110  56.6662050   2.2233290
  43.7218290  56.0010120   3.3739560  47.5271960  61.7655210   6.7612430
  47.1515560  60.9983140   6.3293720  46.7975080  62.1477910   7.2487360
  32.1167720  62.4442350  13.3821480  32.4840760  62.3569750  14.2617500
  31.5478540  61.6808900  13.2828340  46.9171580  60.9126730  16.3951950
  46.6857670  60.6839480  15.4949900  47.1776130  61.8326280  16.3496840
  31.6683720  59.3551440  17.2879900  30.7739770  59.3218200  17.6273610
  32.2081270  59.5538230  18.0531150  45.3559650  56.1383160  19.1731650
  46.2329830  56.1466560  19.5565650  45.3680490  55.4014000  18.5624000
  30.2929870  59.2688710   4.7843470  29.3893950  59.5318910   4.6095130
  30.7770490  59.5399880   4.0043430  46.8022920  59.9912700  10.0619670
  47.3260400  59.4975350   9.4309840  47.3882340  60.1263060  10.8067240
  46.9812640  60.0752570  13.5839220  46.0315350  60.0416110  13.6984210
  47.1625650  60.9852680  13.3488990  32.8357080  58.3254250   2.6937850
  33.5448780  57.9037470   2.2085130  32.1197020  58.3929480   2.0621200
  46.2922890  59.2486050   6.0012080  46.7882010  59.0156920   6.7860960
  46.0938960  58.4097890   5.5849720  32.1723430  53.6299770  11.6363120
  32.8199620  53.0797150  11.1958280  32.5925270  53.8842920  12.4578930
  47.7210050  57.8847000   8.5349760  47.6109330  57.7303040   9.4732030
  48.4817640  57.3567940   8.2925170  46.0675770  53.8241130  14.9932760
  46.7047990  54.4375270  15.3591950  46.2150660  53.8601790  14.0481990
  48.6838810  56.4865580   4.4012610  47.8890310  56.4210700   4.9305520
  48.8882090  57.4216220   4.3897960  31.9255430  53.7855440  14.3788440
  31.5770250  54.2419260  15.1446620  31.5943130  52.8912570  14.4610870
  39.4380250  54.9767320  17.9007860  39.3769140  55.5689150  18.6503270
  40.3780630  54.8693280  17.7558120  42.0754810  54.6337380  17.5400150
  42.6895220  54.9516670  16.8781230  42.6204370  54.1485970  18.1596010
  32.5976070  53.3131640  17.6539210  33.1459060  53.1319690  16.8905320
  32.6631380  52.5225750  18.1895520  42.8162850  53.1969520  13.8669440
  41.9422690  53.5304630  13.6642370  42.7073600  52.7242700  14.6921310
  43.7234830  55.4040390  15.2511160  43.3948190  54.5892150  14.8712890
  44.6717130  55.3610200  15.1276850  40.5637670  54.1139360  12.8062350
  39.7809460  54.5884860  13.0859110  40.2700600  53.2094190  12.6975530
  45.1158740  54.8162460  10.8511440  45.5566830  54.7607560  10.0033040
  44.8466330  55.7320470  10.9221620  46.9797310  54.4477700   8.8620260
  46.9185710  53.5038920   8.7151280  47.7589340  54.5557790   9.4073720
  31.9078080  54.4186840   5.3276070  32.6657440  54.5315720   4.7540100
  31.4455250  55.2556040   5.2819500  38.4491890  56.5326110   8.3178380
  37.6366400  56.1583000   7.9774260  38.9533530  55.7771190   8.6199570
  42.9516870  53.1968560   9.5561450  43.5546240  53.7688770  10.0309970
  42.2109860  53.7608000   9.3335350  46.0951470  53.5990120   4.8301730
  46.2902100  54.4973570   5.0969160  45.3081340  53.3677200   5.3234680
  34.2803230  54.9450890   3.8678040  34.8095990  54.1580690   3.7385990
  34.9131550  55.6242080   4.1013570  36.4741070  54.6826030   6.9223430
  35.8443810  53.9813340   7.0893560  35.9346210  55.4430160   6.7056590
  36.5996630  53.9610010  19.3575920  36.3180900  54.4643610  18.5936740
  36.9816330  53.1631760  18.9918050  43.2012090  53.3763590  19.9356390
  43.0877540  53.6958200  20.8307910  44.0181830  53.7776100  19.6393670
  42.1070240  42.6212570  46.6221600  42.0264290  41.7067180  46.3513310
  41.6934660  43.1179640  45.9161310  40.2388280  44.3991590  48.5030870
  39.4630380  43.9192030  48.7929440  40.8901210  43.7197240  48.3287030
  34.2554110  44.7111400  49.3806630  33.4238990  44.4560110  49.7803140
  34.8635090  44.7822170  50.1164550  44.2595710  48.8051780  47.2830000
  43.7977240  48.0339020  47.6117170  45.0721260  48.8317850  47.7882450
  34.2355370  48.7451490  49.5764650  34.5383410  47.8549230  49.3974870
  34.9798960  49.3021710  49.3486900  32.6646060  39.6713290  43.1649020
  31.7762760  40.0129260  43.0628900  32.9487250  39.4713610  42.2729850
  30.6279070  42.2718940  49.0488720  31.1995180  41.5041140  49.0492360
  30.6280610  42.5707700  48.1395330  40.4859020  51.0909790  46.9033990
  39.8670460  51.5467290  46.3328430  41.3410800  51.2461250  46.5023690
  39.6797270  47.0748780  48.5101030  39.6105550  46.1338720  48.3490160
  40.4417130  47.1650190  49.0823600  31.8703940  37.6803300  50.8357650
  31.6906780  36.7829050  51.1160410  31.4684020  38.2275170  51.5104600
  40.7102440  39.8819160  48.7369960  41.0867260  39.0091040  48.6243630
  40.6121950  40.2177860  47.8460400  34.8407450  38.2544790  44.1987400
  34.9474200  39.1548520  44.5056160  33.9299810  38.2062760  43.9082050
  44.4926560  37.3769600  45.6698300  45.3136180  36.8866170  45.7123780
  44.5260640  37.9667260  46.4230140  32.4890610  40.1763800  49.4439990
  33.1700720  40.4402170  50.0627390  32.1738660  39.3364670  49.7778000
  36.6815180  41.2231160  48.5312580  37.1893400  41.7212130  49.1717600
  37.2128420  40.4466360  48.3551940  48.7826110  39.3936350  52.2341930
  48.0778280  39.7818060  51.7157040  49.0484030  40.0886640  52.8362860
  34.9651280  35.8629720  52.7976000  34.9669720  36.3802110  51.9921900
  34.1355590  35.3859900  52.7745930  41.3522370  45.9749030  44.2965900
  40.7339640  46.4398480  43.7328620  41.8645620  46.6676510  44.7135410
  36.2154130  45.5024900  50.9749500  35.8823510  46.1293820  51.6170570
  36.3920810  46.0286780  50.1951170  44.7288040  39.3169980  48.4425840
  44.0243610  39.6054870  49.0228950  45.0900200  40.1270090  48.0825400
  34.6466610  37.5739680  50.8046450  34.9883420  38.4181730  50.5100320
  33.7082420  37.7223420  50.9211790  35.4273230  47.4705700  52.7898680
  36.0447230  48.1456780  52.5083130  34.5666350  47.8793680  52.6986180
  30.7205570  46.6605560  41.6705530  30.3433550  47.1492660  40.9390430
  30.9778640  47.3330840  42.3012060  46.3450820  48.9345110  50.7053320
  45.6614340  49.6044220  50.6969990  46.8845110  49.1325760  49.9398180
  47.7974960  38.7624770  48.8335050  46.8499870  38.7963750  48.9650480
  48.1224950  39.5763720  49.2184410  38.3294500  35.0621950  47.1291040
  38.6369480  34.5068840  46.4126540  37.3995200  35.1966410  46.9464030
  43.8809560  50.7789240  49.4198500  43.8936720  50.3751530  48.5520760
  43.3284780  51.5536530  49.3159930  45.1754980  47.5005460  44.5088670
  45.0651310  46.5579790  44.6338090  45.1723230  47.8621100  45.3951430
  43.2795000  45.6819080  50.7481110  43.6963790  45.4679190  49.9134570
  44.0034820  45.9391870  51.3189730  40.7175260  43.1270780  43.8651160
  39.7904540  43.0608160  44.0939630  40.8700080  44.0650910  43.7506400
  40.7044340  39.3987780  40.8618320  39.7648010  39.5601740  40.9470780
  41.0227600  40.1173460  40.3154310  47.2257100  44.0806300  50.8397350
  46.3975730  44.1499390  50.3647480  47.8207580  44.6660610  50.3713180
  44.7472550  44.6891080  44.3686410  44.1284970  44.3510630  43.7212710
  44.7297000  44.0450840  45.0765600  44.1899110  40.8675620  51.7852220
  43.7770290  41.6929330  52.0392210  43.4575060  40.2820660  51.5928580
  36.3231900  43.6535520  46.6470890  35.9188900  42.9412770  46.1516790
  36.4095020  43.3088760  47.5358930  36.7913600  47.3403080  48.8110100
  36.4941890  46.7348550  48.1317880  37.7413420  47.3780390  48.6999460
  35.0360520  40.4278730  50.4269930  35.5875110  40.5374070  49.6523180
  35.5504030  40.8016330  51.1425160  44.8799210  50.9134950  52.4733200
  44.4029770  51.7207140  52.2805810  44.1961000  50.2613280  52.6259410
  35.8832030  47.0784770  55.4617900  34.9860560  47.3024740  55.7091300
  35.9084900  47.2019710  54.5129300  42.9237250  43.9277890  41.3759160
  43.3630530  43.0900320  41.2296980  43.6365670  44.5607290  41.4623300
  34.7103250  43.9498090  54.0375270  34.5711020  44.8220890  54.4062670
  33.8284610  43.6070900  53.8923210  41.0332630  48.8673960  45.3440400
  41.4728540  49.6098290  44.9295790  40.9719520  49.1100530  46.2679360
  36.5083600  49.8919790  56.2460420  36.4799030  50.2962740  55.3788850
  36.3448570  48.9630150  56.0832020  46.5054390  35.1820700  39.6900200
  46.1927050  35.2747530  40.5899270  47.2666860  35.7601730  39.6397630
  33.0236530  42.5480500  44.1477540  32.9034130  43.2742590  43.5358810
  32.7137420  41.7783410  43.6705450  30.6621900  45.7195640  49.9546180
  30.7402320  45.8544410  49.0101900  31.2763580  45.0111530  50.1474300
  31.9069530  47.4195830  46.3652360  31.4997610  47.5610420  45.5105960
  32.7982540  47.1355990  46.1623570  47.8631670  47.8659740  54.7024600
  47.9894730  47.6271620  53.7841780  47.9053050  47.0344280  55.1746680
  41.7248410  51.5687740  53.2719410  42.2393080  51.4795750  54.0741840
  40.8817490  51.9147440  53.5647320  43.7002810  51.8543080  42.7003410
  43.5403950  51.5646020  43.5985240  43.5349520  51.0783210  42.1648640
  36.1791190  51.6341610  44.4775030  36.0033670  50.7177150  44.2642830
  35.3246930  51.9928900  44.7172830  43.4028940  49.3630640  41.2601410
  42.7094100  49.3607930  40.6003690  44.1451800  48.9389960  40.8295580
  42.9678870  50.9893350  45.3349900  43.4235820  50.2082730  45.6488520
  43.3071390  51.7000170  45.8791080  47.7155680  39.9192200  55.6674340
  47.0999950  40.4271870  55.1389800  47.3952100  39.0190530  55.6100280
  30.7181420  46.7609810  52.4940640  30.8812460  46.2915170  51.6760010
  31.1833870  46.2533370  53.1589480  35.4900190  35.8915570  47.5301210
  35.0468340  36.6725110  47.1985730  36.0485180  36.2145460  48.2372150
  39.7770000  38.7584090  53.1336530  39.3149370  38.9667110  53.9456470
  39.3748110  37.9443440  52.8307200  44.7774510  39.9793040  54.2633190
  43.9268100  39.6798790  54.5842260  44.6176300  40.2235050  53.3517010
  41.8724220  41.4794790  56.3631980  42.1977630  40.6458540  56.0234210
  42.6604550  42.0023310  56.5110310  38.6059010  35.5126270  42.4107040
  37.9813190  35.5086140  43.1360350  38.5189130  34.6457230  42.0143010
  37.5276090  36.4362900  49.3890810  37.8248420  37.3425730  49.3082830
  38.0761650  35.9481680  48.7750380  35.2814410  41.0149140  45.2582460
  35.0555330  40.7986310  46.1629080  34.5006940  41.4477600  44.9128430
  42.5112170  41.0212510  43.8573110  41.9121060  41.7448310  43.6736730
  43.0591780  40.9589290  43.0749560  37.7213620  41.9134720  55.9242730
  37.6257220  40.9729450  55.7743130  38.5645600  42.1349790  55.5290800
  41.1177040  39.6576050  45.8876390  41.5106610  39.9748250  45.0745080
  41.4793890  38.7787930  46.0020910  32.8524160  38.3248390  54.0776510
  32.4587550  39.1723600  54.2849290  32.1642560  37.6874760  54.2685150
  30.1541210  36.2476850  48.1106590  29.8654260  36.8179710  48.8231570
  30.8986970  35.7681300  48.4737820  41.7032180  42.2481800  49.9827170
  40.9713300  42.7568610  50.3317270  41.3056520  41.4311780  49.6815950
  38.1409570  38.9236000  48.3879660  38.1445630  38.4825950  47.5384200
  39.0360690  39.2453330  48.4951480  33.9911950  38.8062490  47.3473870
  33.6512000  39.2837720  48.1040920  33.2289270  38.3527610  46.9874970
  38.2029720  39.9248080  41.3786420  38.3242540  39.8834560  42.3272240
  37.8178230  40.7872230  41.2233150  42.1658090  37.7015480  49.3950110
  42.1830830  38.1524130  50.2391960  41.9173670  36.8021120  49.6083550
  37.2151220  42.2349220  40.7769720  36.6468120  41.7867470  40.1505630
  37.9240220  42.5942000  40.2434870  45.5928840  35.1147660  55.2336490
  45.9174610  34.3837320  55.7594470  45.6285350  34.7961300  54.3317480
  32.2920400  46.1361240  54.6536450  31.9075190  45.4954910  55.2519410
  32.6032590  46.8397360  55.2231180  38.4417540  42.9837780  50.1345070
  38.8087670  42.5096350  50.8806410  38.2522600  43.8579350  50.4753410
  31.3058030  37.7281470  46.2638540  31.0204950  37.3637140  47.1017160
  31.2436890  36.9961930  45.6501680  36.2316910  42.0246420  52.4529280
  35.9273980  42.9038400  52.6779640  37.1863370  42.0846210  52.4886720
  34.7598700  46.2307410  43.0496130  33.9860960  45.6905030  42.8894850
  35.4893330  45.7114020  42.7113890  45.5186680  45.2272770  48.8422520
  46.2385800  45.7228060  48.4518630  45.3168500  44.5490660  48.1976390
  40.9796620  36.6210730  42.9851910  40.1661230  36.1223900  42.9097220
  40.7858570  37.4608980  42.5688260  40.9005480  45.2981830  54.7291520
  40.8342790  44.3777500  54.4749110  40.2710620  45.3957270  55.4436160
  43.6945010  40.9930380  41.2814070  44.5824630  41.3047610  41.1065410
  43.6650100  40.1202630  40.8894650  34.8036100  45.8987790  46.6874940
  35.3214770  45.0956050  46.6331830  34.3520120  45.8366930  47.5291770
  39.6905600  47.1654070  41.9602240  40.0321300  47.9096300  41.4645560
  38.8618310  47.4785190  42.3227070  32.2880640  42.8649160  53.6000640
  31.9295580  43.5303010  54.1873980  31.9935200  42.0332710  53.9713260
  35.4893760  43.3233400  56.4840190  35.1893900  43.4690580  55.5868010
  36.2605000  42.7638690  56.3913580  40.8322210  48.1202400  54.4795320
  40.8466750  47.1883360  54.2614230  40.1247310  48.2062160  55.1185090
  45.9659280  42.3042220  40.7493930  45.8823000  42.7356440  39.8990370
  46.6853470  42.7640570  41.1820750  47.0433420  44.7609740  53.8263900
  46.3181610  45.3538520  53.6293290  47.5708880  44.7533280  53.0277270
  46.9946530  49.1584480  43.4776060  46.3522690  48.5040100  43.7519780
  46.6077190  49.5639570  42.7016730  42.5733010  46.4869910  47.3247750
  42.9256830  45.8898040  46.6649120  41.6895340  46.1614140  47.4956000
  38.6596290  47.2467600  44.7318160  39.3467420  47.7936810  45.1125750
  37.8728710  47.7908330  44.7667770  30.7988690  42.8640420  40.2235240
  31.6683540  43.1465220  40.5071160  30.3079010  43.6776290  40.1084050
  37.9623500  44.2513630  44.3443520  38.4186280  45.0618880  44.5703710
  37.6111710  43.9336770  45.1762010  40.2656110  49.7619970  51.5735820
  40.9098330  49.9679350  52.2509240  40.6285550  49.0008370  51.1206670
  33.8635280  34.5951280  44.8166040  33.7349910  34.5869180  45.7650960
  33.0397300  34.9334370  44.4657050  41.5388190  47.7652320  50.2913270
  42.1810420  47.0645480  50.4045440  42.0637540  48.5450760  50.1110160
  45.3843910  48.0500940  40.0152410  45.1581490  47.3331380  40.6077050
  44.9940110  47.8013380  39.1774160  43.3125810  48.5647220  53.4949330
  43.6482050  49.1513910  54.1727250  42.3926150  48.4339930  53.7247120
  31.1659940  52.0767800  40.7896870  31.5257580  52.6757140  40.1354140
  31.0252280  52.6227690  41.5631900  30.8629210  36.3542400  54.2772740
  30.1487730  36.5539320  54.8825350  31.2824250  35.5781970  54.6487540
  44.9660160  45.9672880  41.6766570  44.6781860  46.4285570  42.4644450
  45.7612330  45.5070650  41.9450790  31.1501800  50.3422660  55.2639270
  31.2592920  49.4017400  55.1234660  30.4982360  50.6077410  54.6153000
  39.1414390  48.6138550  56.6637390  38.8211260  47.8947790  57.2083080
  38.4672750  49.2893620  56.7373450  37.1828560  49.4599000  41.6070540
  37.1738660  50.1928690  40.9915050  36.2626920  49.2130580  41.6997500
  32.7835200  44.6813890  42.3517300  32.1763150  45.4212790  42.3612600
  33.2584550  44.7713250  41.5255500  42.3567990  38.8464710  52.0274190
  42.7248810  38.0259920  52.3553760  41.4966190  38.9066600  52.4429840
  45.7230020  37.8021650  42.8361750  45.0943180  37.9067320  42.1219980
  45.2281940  38.0218430  43.6255630  40.1688160  49.5227240  40.2695730
  40.2700140  49.3191230  39.3397710  39.2689900  49.2685520  40.4743510
  37.6914050  40.0807600  44.2519630  36.9830200  40.5493940  44.6933240
  37.9758530  39.4229610  44.8864820  39.3169980  41.5004300  52.2512160
  39.8155230  41.9750120  52.9164010  39.4592930  40.5767820  52.4582190
  41.7229480  36.8058260  45.6915420  41.5997260  36.8244390  44.7424930
  42.6714040  36.8537200  45.8113820  38.8106270  52.0413560  44.9643400
  39.0647770  52.0034950  44.0422770  37.8618750  51.9146890  44.9571650
  35.8949070  38.3892680  41.6270340  36.7439600  38.8262830  41.5610530
  35.5280340  38.7012940  42.4542400  46.5236840  37.7172260  53.0940550
  46.0210440  38.4577660  53.4334360  47.3393500  38.1056260  52.7777340
  44.8158850  42.9605440  46.5401910  43.8748990  42.9755670  46.7149600
  45.1302920  42.1741400  46.9862210  34.7940490  44.6425040  40.1005870
  35.5603760  44.5306400  40.6631300  34.8715180  43.9463010  39.4482640
  33.4887250  42.0750110  40.7838760  33.5690840  41.1277620  40.8956160
  34.3807000  42.4056990  40.8899420  46.8184430  50.1314290  48.2156170
  46.9431850  50.9545460  48.6879980  47.6849990  49.9205020  47.8680320
  34.2901960  52.2245500  47.8873300  35.0264440  51.6760960  48.1581870
  34.6742880  53.0901510  47.7479290  31.1747440  48.2919070  43.7614810
  30.2487220  48.5340210  43.7520220  31.6403870  49.1193330  43.6399560
  37.4004270  51.3975810  39.7098870  38.1932880  51.6864640  39.2580660
  36.8808620  50.9667980  39.0311350  43.5625240  51.2451730  55.6343700
  44.5146990  51.1609750  55.5843940  43.4153460  51.9093440  56.3077490
  46.4534440  50.6245940  41.1335610  46.1675950  50.2111080  40.3189790
  46.2553990  51.5533650  41.0136130  31.0158050  43.8965030  56.0194930
  31.5197070  43.3172310  56.5911160  30.2765470  44.1805260  56.5571300
  37.9181670  46.6179220  39.5741220  37.8132310  46.0031570  40.3002600
  37.7505890  46.0945110  38.7904230  38.0695990  45.3036020  55.5530450
  37.3041660  45.8721020  55.4685120  38.2511950  45.0112230  54.6598680
  41.1584400  45.6799250  40.1783210  40.6094500  46.1268550  40.8225950
  41.7803660  45.1748500  40.7020880  45.2119340  47.0341350  56.1105470
  45.9528810  47.3717110  55.6072930  44.4492020  47.2033410  55.5575240
  36.8259520  44.6390170  42.0748510  37.2475940  44.4730040  42.9179900
  36.9510360  43.8290400  41.5803650  34.9886940  40.6186720  54.8819490
  34.4583400  40.1277670  54.2542830  35.6575010  41.0470920  54.3477420
  39.3387160  43.6627780  39.3225610  39.8592820  42.9476800  38.9566760
  39.9855560  44.3013650  39.6226120  43.8865000  45.0856180  54.6460680
  44.3006020  45.2401260  55.4951100  42.9516000  45.2111400  54.8086460
  44.3587170  42.4252340  56.6499830  44.9407940  41.6704660  56.5620310
  44.5348940  42.9559780  55.8731310  35.4759240  37.5849090  54.9616780
  35.3816110  36.9669840  54.2367650  34.8956630  38.3115380  54.7346690
  38.2420680  36.1422330  51.9944170  37.7937980  36.1646590  51.1489720
  37.6085880  35.7441350  52.5914470  38.6480230  45.0376660  52.6156610
  39.0668340  45.8809390  52.4432850  37.7288860  45.1748700  52.3863390
  40.9844130  42.7692840  53.9994450  41.1040340  42.1733980  54.7389290
  41.8438130  42.8062530  53.5795750  43.3232030  43.3230030  52.5756960
  42.7967250  43.8472650  51.9722100  43.6663370  43.9557420  53.2066690
  36.4987650  51.3429670  53.7314340  35.9608740  52.0675730  53.4123040
  36.7521610  50.8660010  52.9411680  37.7512900  39.3114190  55.2570270
  38.3412590  39.0030040  55.9448090  36.9333140  38.8393940  55.4130170
  42.5706330  38.9280000  55.4903290  41.8821850  38.2661540  55.4253280
  43.2912350  38.4818270  55.9351750  43.2006730  35.5231630  41.5493550
  43.4809020  34.6799530  41.9052970  42.4272460  35.7554740  42.0632300
  39.3549860  52.5780880  53.9900990  39.2808560  53.4816020  54.2973360
  38.4528700  52.2592780  53.9623060  37.7386150  36.7558640  39.9940750
  37.3908150  36.0782630  39.4143200  37.9398920  36.2948150  40.8084140
  39.9035190  51.7439390  41.6127350  40.7985980  52.0824360  41.6346110
  39.9352820  51.0218800  40.9851630  33.5431350  47.1166440  39.8414350
  33.9806220  47.6596110  40.4971930  34.0279080  46.2913390  39.8510690
  30.7577150  49.9055470  47.2934610  31.0880160  49.0376530  47.0613250
  31.1868150  50.1113990  48.1239570  35.3539070  48.2364480  44.9536580
  35.0534610  48.1129450  45.8540490  35.2476560  47.3773070  44.5452310
  31.2467360  50.7726060  50.0316240  30.8098350  50.9526860  50.8640390
  31.8145040  51.5300680  49.8897960  46.8829540  50.2743060  54.3193550
  46.2831530  50.3335620  53.5757470  47.0123440  49.3348040  54.4490400
  48.1230990  48.0160880  39.6563260  47.2923950  48.0837530  40.1270490
  48.3002820  48.9065000  39.3530120  47.5787450  44.7608360  42.1597460
  48.3406360  45.3305010  42.2657150  47.5941820  44.1935560  42.9305770
  31.0791790  43.2846290  46.3905120  30.4240630  43.0157930  45.7464820
  31.9169740  43.1750770  45.9407100  48.5847420  45.6158460  47.0039390
  48.9556250  44.8325780  46.5975360  49.2249350  46.3047560  46.8256690
  45.5681180  46.9995040  52.4169710  44.7541020  47.4292200  52.6795500
  45.9755380  47.6113450  51.8038760  47.6306620  45.0542730  39.3169980
  47.9055460  45.9621610  39.1889200  47.4417360  44.9905260  40.2531970
  44.0282230  38.0787580  40.6123610  44.4467110  37.8918560  39.7720270
  43.7218290  37.2266630  40.9226540  47.5271960  42.9911720  44.3099410
  47.1515560  42.2239650  43.8780700  46.7975080  43.3734420  44.7974340
  32.1167720  43.6698860  50.9308460  32.4840760  43.5826260  51.8104480
  31.5478540  42.9065410  50.8315320  46.9171580  42.1383240  53.9438930
  46.6857670  41.9095990  53.0436880  47.1776130  43.0582790  53.8983820
  31.6683720  40.5807950  54.8366880  30.7739770  40.5474710  55.1760590
  32.2081270  40.7794740  55.6018130  45.3559650  37.3639670  56.7218630
  46.2329830  37.3723070  57.1052630  45.3680490  36.6270510  56.1110980
  30.2929870  40.4945220  42.3330450  29.3893950  40.7575420  42.1582110
  30.7770490  40.7656390  41.5530410  46.8022920  41.2169210  47.6106650
  47.3260400  40.7231860  46.9796820  47.3882340  41.3519570  48.3554220
  46.9812640  41.3009080  51.1326200  46.0315350  41.2672620  51.2471190
  47.1625650  42.2109190  50.8975970  46.2922890  40.4742560  43.5499060
  46.7882010  40.2413430  44.3347940  46.0938960  39.6354400  43.1336700
  32.1723430  34.8556280  49.1850100  32.8199620  34.3053660  48.7445260
  32.5925270  35.1099430  50.0065910  47.7210050  39.1103510  46.0836740
  47.6109330  38.9559550  47.0219010  48.4817640  38.5824450  45.8412150
  46.0675770  35.0497640  52.5419740  46.7047990  35.6631780  52.9078930
  46.2150660  35.0858300  51.5968970  48.6100320  36.9411430  39.3242880
  49.5349630  36.8092610  39.1161170  48.5876110  37.0204250  40.2779330
  48.6838810  37.7122090  41.9499590  47.8890310  37.6467210  42.4792500
  48.8882090  38.6472730  41.9384940  45.6257230  51.7513640  45.9437980
  46.2216300  51.4298210  45.2672400  45.8835380  51.2785460  46.7351250
  31.9255430  35.0111950  51.9275420  31.5770250  35.4675770  52.6933600
  31.5943130  34.1169080  52.0097850  33.5319800  48.1831550  56.0928610
  33.4889430  47.8124460  56.9743070  33.6630810  49.1209120  56.2330430
  37.2325830  49.7391140  51.6938330  36.9917190  50.0065700  50.8068850
  38.1728470  49.9096870  51.7489190  39.4380250  36.2023830  55.4494840
  39.3769140  36.7945660  56.1990250  40.3780630  36.0949790  55.3045100
  42.0754810  35.8593890  55.0887130  42.6895220  36.1773180  54.4268210
  42.6204370  35.3742480  55.7082990  48.4929990  51.7585520  52.4948970
  47.9988270  52.1554390  51.7776100  47.8843280  51.1334730  52.8886250
  32.5976070  34.5388150  55.2026190  33.1459060  34.3576200  54.4392300
  32.6631380  33.7482260  55.7382500  33.3707830  51.1293800  53.2126390
  32.7768150  50.9978500  53.9516430  33.3631670  50.2931940  52.7468490
  42.8162850  34.4226030  51.4156420  41.9422690  34.7561140  51.2129350
  42.7073600  33.9499210  52.2408290  43.7234830  36.6296900  52.7998140
  43.3948190  35.8148660  52.4199870  44.6717130  36.5866710  52.6763830
  46.1769440  52.4008940  49.7735710  45.7172410  53.1524750  49.3993730
  45.5481900  51.6815410  49.7150510  33.0020060  48.4952180  52.1634430
  32.2754120  47.8757470  52.0960380  33.0629210  48.8892790  51.2932510
  36.6065160  50.7097180  48.9483840  37.1230180  50.0984540  48.4232100
  37.2562540  51.2125960  49.4394850  39.3460660  51.6005670  49.7752820
  39.6338470  51.3459970  48.8985830  39.8583880  51.0483030  50.3658390
  40.5637670  35.3395870  50.3549330  39.7809460  35.8141370  50.6346090
  40.2700600  34.4350700  50.2462510  45.1158740  36.0418970  48.3998420
  45.5566830  35.9864070  47.5520020  44.8466330  36.9576980  48.4708600
  46.9797310  35.6734210  46.4107240  46.9185710  34.7295430  46.2638260
  47.7589340  35.7814300  46.9560700  31.2850060  51.8126570  45.3731190
  31.1172100  51.1797250  46.0713080  30.4184570  52.0185970  45.0225380
  31.9078080  35.6443350  42.8763050  32.6657440  35.7572230  42.3027080
  31.4455250  36.4812550  42.8306480  38.4491890  37.7582620  45.8665360
  37.6366400  37.3839510  45.5261240  38.9533530  37.0027700  46.1686550
  42.9516870  34.4225070  47.1048430  43.5546240  34.9945280  47.5796950
  42.2109860  34.9864510  46.8822330  46.0951470  34.8246630  42.3788710
  46.2902100  35.7230080  42.6456140  45.3081340  34.5933710  42.8721660
  32.8912760  50.5059800  42.8181330  32.3660380  50.8867830  42.1143290
  32.8157340  51.1310570  43.5391040  34.2803230  36.1707400  41.4165020
  34.8095990  35.3837200  41.2872970  34.9131550  36.8498590  41.6500550
  36.4741070  35.9082540  44.4710410  35.8443810  35.2069850  44.6380540
  35.9346210  36.6686670  44.2543570  39.4133020  52.5221770  57.1421020
  40.3400330  52.2866040  57.1856980  39.3983450  53.3493770  56.6607050
  47.6478080  52.0647340  44.1395270  47.8230270  51.3785080  43.4956190
  46.9499650  52.5894390  43.7471940  36.5996630  35.1866520  56.9062900
  36.3180900  35.6900120  56.1423720  36.9816330  34.3888270  56.5405030
  35.4905730  52.4542180  41.6930580  36.2224550  52.1701460  41.1454470
  35.7499400  52.2155460  42.5829960  34.6520520  48.5706910  41.6976910
  34.0229400  49.0392010  42.2462740  34.7668350  47.7256130  42.1323100
  42.1070240  42.6212570  27.8478110  42.0264290  41.7067180  27.5769820
  41.6934660  43.1179640  27.1417820  40.2388280  44.3991590  29.7287380
  39.4630380  43.9192030  30.0185950  40.8901210  43.7197240  29.5543540
  44.2595710  48.8051780  28.5086510  43.7977240  48.0339020  28.8373680
  45.0721260  48.8317850  29.0138960  34.2355370  48.7451490  30.8021160
  34.5383410  47.8549230  30.6231380  34.9798960  49.3021710  30.5743410
  32.6646060  39.6713290  24.3905530  31.7762760  40.0129260  24.2885410
  32.9487250  39.4713610  23.4986360  40.4859020  51.0909790  28.1290500
  39.8670460  51.5467290  27.5584940  41.3410800  51.2461250  27.7280200
  39.6797270  47.0748780  29.7357540  39.6105550  46.1338720  29.5746670
  40.4417130  47.1650190  30.3080110  40.7102440  39.8819160  29.9626470
  41.0867260  39.0091040  29.8500140  40.6121950  40.2177860  29.0716910
  36.6815180  41.2231160  29.7569090  37.1893400  41.7212130  30.3974110
  37.2128420  40.4466360  29.5808450  48.7826110  39.3936350  33.4598440
  48.0778280  39.7818060  32.9413550  49.0484030  40.0886640  34.0619370
  41.3522370  45.9749030  25.5222410  40.7339640  46.4398480  24.9585130
  41.8645620  46.6676510  25.9391920  36.2154130  45.5024900  32.2006010
  35.8823510  46.1293820  32.8427080  36.3920810  46.0286780  31.4207680
  35.4273230  47.4705700  34.0155190  36.0447230  48.1456780  33.7339640
  34.5666350  47.8793680  33.9242690  30.7205570  46.6605560  22.8962040
  30.3433550  47.1492660  22.1646940  30.9778640  47.3330840  23.5268570
  46.3450820  48.9345110  31.9309830  45.6614340  49.6044220  31.9226500
  46.8845110  49.1325760  31.1654690  47.7974960  38.7624770  30.0591560
  46.8499870  38.7963750  30.1906990  48.1224950  39.5763720  30.4440920
  43.8809560  50.7789240  30.6455010  43.8936720  50.3751530  29.7777270
  43.3284780  51.5536530  30.5416440  45.1754980  47.5005460  25.7345180
  45.0651310  46.5579790  25.8594600  45.1723230  47.8621100  26.6207940
  43.2795000  45.6819080  31.9737620  43.6963790  45.4679190  31.1391080
  44.0034820  45.9391870  32.5446240  40.7175260  43.1270780  25.0907670
  39.7904540  43.0608160  25.3196140  40.8700080  44.0650910  24.9762910
  40.7044340  39.3987780  22.0874830  39.7648010  39.5601740  22.1727290
  41.0227600  40.1173460  21.5410820  47.2257100  44.0806300  32.0653860
  46.3975730  44.1499390  31.5903990  47.8207580  44.6660610  31.5969690
  44.7472550  44.6891080  25.5942920  44.1284970  44.3510630  24.9469220
  44.7297000  44.0450840  26.3022110  44.1899110  40.8675620  33.0108730
  43.7770290  41.6929330  33.2648720  43.4575060  40.2820660  32.8185090
  36.3231900  43.6535520  27.8727400  35.9188900  42.9412770  27.3773300
  36.4095020  43.3088760  28.7615440  36.7913600  47.3403080  30.0366610
  36.4941890  46.7348550  29.3574390  37.7413420  47.3780390  29.9255970
  44.8799210  50.9134950  33.6989710  44.4029770  51.7207140  33.5062320
  44.1961000  50.2613280  33.8515920  35.8832030  47.0784770  36.6874410
  34.9860560  47.3024740  36.9347810  35.9084900  47.2019710  35.7385810
  42.9237250  43.9277890  22.6015670  43.3630530  43.0900320  22.4553490
  43.6365670  44.5607290  22.6879810  41.0332630  48.8673960  26.5696910
  41.4728540  49.6098290  26.1552300  40.9719520  49.1100530  27.4935870
  36.5083600  49.8919790  37.4716930  36.4799030  50.2962740  36.6045360
  36.3448570  48.9630150  37.3088530  46.5054390  35.1820700  20.9156710
  46.1927050  35.2747530  21.8155780  47.2666860  35.7601730  20.8654140
  33.0236530  42.5480500  25.3734050  32.9034130  43.2742590  24.7615320
  32.7137420  41.7783410  24.8961960  48.4598420  50.6746890  38.7681100
  48.9358140  51.1529780  39.4470180  49.0805580  50.6064380  38.0426600
  31.9069530  47.4195830  27.5908870  31.4997610  47.5610420  26.7362470
  32.7982540  47.1355990  27.3880080  47.8631670  47.8659740  35.9281110
  47.9894730  47.6271620  35.0098290  47.9053050  47.0344280  36.4003190
  41.7248410  51.5687740  34.4975920  42.2393080  51.4795750  35.2998350
  40.8817490  51.9147440  34.7903830  43.7002810  51.8543080  23.9259920
  43.5403950  51.5646020  24.8241750  43.5349520  51.0783210  23.3905150
  36.1791190  51.6341610  25.7031540  36.0033670  50.7177150  25.4899340
  35.3246930  51.9928900  25.9429340  43.4028940  49.3630640  22.4857920
  42.7094100  49.3607930  21.8260200  44.1451800  48.9389960  22.0552090
  42.9678870  50.9893350  26.5606410  43.4235820  50.2082730  26.8745030
  43.3071390  51.7000170  27.1047590  47.7155680  39.9192200  36.8930850
  47.0999950  40.4271870  36.3646310  47.3952100  39.0190530  36.8356790
  39.7770000  38.7584090  34.3593040  39.3149370  38.9667110  35.1712980
  39.3748110  37.9443440  34.0563710  44.7774510  39.9793040  35.4889700
  43.9268100  39.6798790  35.8098770  44.6176300  40.2235050  34.5773520
  41.8724220  41.4794790  37.5888490  42.1977630  40.6458540  37.2490720
  42.6604550  42.0023310  37.7366820  42.5112170  41.0212510  25.0829620
  41.9121060  41.7448310  24.8993240  43.0591780  40.9589290  24.3006070
  37.7213620  41.9134720  37.1499240  37.6257220  40.9729450  36.9999640
  38.5645600  42.1349790  36.7547310  41.1177040  39.6576050  27.1132900
  41.5106610  39.9748250  26.3001590  41.4793890  38.7787930  27.2277420
  39.4269210  38.4083360  38.3729760  38.7367530  38.2155560  39.0075850
  40.1701510  38.6918000  38.9054060  30.3411440  40.1896970  20.5465820
  30.2586110  41.1327730  20.6880810  29.9894500  40.0471880  19.6678170
  41.7032180  42.2481800  31.2083680  40.9713300  42.7568610  31.5573780
  41.3056520  41.4311780  30.9072460  38.2029720  39.9248080  22.6042930
  38.3242540  39.8834560  23.5528750  37.8178230  40.7872230  22.4489660
  37.2151220  42.2349220  22.0026230  36.6468120  41.7867470  21.3762140
  37.9240220  42.5942000  21.4691380  45.5928840  35.1147660  36.4593000
  45.9174610  34.3837320  36.9850980  45.6285350  34.7961300  35.5573990
  38.4417540  42.9837780  31.3601580  38.8087670  42.5096350  32.1062920
  38.2522600  43.8579350  31.7009920  36.2316910  42.0246420  33.6785790
  35.9273980  42.9038400  33.9036150  37.1863370  42.0846210  33.7143230
  34.7598700  46.2307410  24.2752640  33.9860960  45.6905030  24.1151360
  35.4893330  45.7114020  23.9370400  45.5186680  45.2272770  30.0679030
  46.2385800  45.7228060  29.6775140  45.3168500  44.5490660  29.4232900
  40.9005480  45.2981830  35.9548030  40.8342790  44.3777500  35.7005620
  40.2710620  45.3957270  36.6692670  43.6945010  40.9930380  22.5070580
  44.5824630  41.3047610  22.3321920  43.6650100  40.1202630  22.1151160
  34.8036100  45.8987790  27.9131450  35.3214770  45.0956050  27.8588340
  34.3520120  45.8366930  28.7548280  39.6905600  47.1654070  23.1858750
  40.0321300  47.9096300  22.6902070  38.8618310  47.4785190  23.5483580
  35.4893760  43.3233400  37.7096700  35.1893900  43.4690580  36.8124520
  36.2605000  42.7638690  37.6170090  40.8322210  48.1202400  35.7051830
  40.8466750  47.1883360  35.4870740  40.1247310  48.2062160  36.3441600
  45.9659280  42.3042220  21.9750440  45.8823000  42.7356440  21.1246880
  46.6853470  42.7640570  22.4077260  47.0433420  44.7609740  35.0520410
  46.3181610  45.3538520  34.8549800  47.5708880  44.7533280  34.2533780
  46.9946530  49.1584480  24.7032570  46.3522690  48.5040100  24.9776290
  46.6077190  49.5639570  23.9273240  42.5733010  46.4869910  28.5504260
  42.9256830  45.8898040  27.8905630  41.6895340  46.1614140  28.7212510
  38.6596290  47.2467600  25.9574670  39.3467420  47.7936810  26.3382260
  37.8728710  47.7908330  25.9924280  30.7988690  42.8640420  21.4491750
  31.6683540  43.1465220  21.7327670  30.3079010  43.6776290  21.3340560
  37.9623500  44.2513630  25.5700030  38.4186280  45.0618880  25.7960220
  37.6111710  43.9336770  26.4018520  40.2656110  49.7619970  32.7992330
  40.9098330  49.9679350  33.4765750  40.6285550  49.0008370  32.3463180
  41.5388190  47.7652320  31.5169780  42.1810420  47.0645480  31.6301950
  42.0637540  48.5450760  31.3366670  45.3843910  48.0500940  21.2408920
  45.1581490  47.3331380  21.8333560  44.9940110  47.8013380  20.4030670
  43.3125810  48.5647220  34.7205840  43.6482050  49.1513910  35.3983760
  42.3926150  48.4339930  34.9503630  31.1659940  52.0767800  22.0153380
  31.5257580  52.6757140  21.3610650  31.0252280  52.6227690  22.7888410
  44.9660160  45.9672880  22.9023080  44.6781860  46.4285570  23.6900960
  45.7612330  45.5070650  23.1707300  31.1501800  50.3422660  36.4895780
  31.2592920  49.4017400  36.3491170  30.4982360  50.6077410  35.8409510
  39.1414390  48.6138550  37.8893900  38.8211260  47.8947790  38.4339590
  38.4672750  49.2893620  37.9629960  37.1828560  49.4599000  22.8327050
  37.1738660  50.1928690  22.2171560  36.2626920  49.2130580  22.9254010
  32.7835200  44.6813890  23.5773810  32.1763150  45.4212790  23.5869110
  33.2584550  44.7713250  22.7512010  42.3567990  38.8464710  33.2530700
  42.7248810  38.0259920  33.5810270  41.4966190  38.9066600  33.6686350
  45.7230020  37.8021650  24.0618260  45.0943180  37.9067320  23.3476490
  45.2281940  38.0218430  24.8512140  40.1688160  49.5227240  21.4952240
  40.2700140  49.3191230  20.5654220  39.2689900  49.2685520  21.7000020
  39.3169980  41.5004300  33.4768670  39.8155230  41.9750120  34.1420520
  39.4592930  40.5767820  33.6838700  38.8106270  52.0413560  26.1899910
  39.0647770  52.0034950  25.2679280  37.8618750  51.9146890  26.1828160
  35.8949070  38.3892680  22.8526850  36.7439600  38.8262830  22.7867040
  35.5280340  38.7012940  23.6798910  46.5236840  37.7172260  34.3197060
  46.0210440  38.4577660  34.6590870  47.3393500  38.1056260  34.0033850
  44.8158850  42.9605440  27.7658420  43.8748990  42.9755670  27.9406110
  45.1302920  42.1741400  28.2118720  34.7940490  44.6425040  21.3262380
  35.5603760  44.5306400  21.8887810  34.8715180  43.9463010  20.6739150
  33.4887250  42.0750110  22.0095270  33.5690840  41.1277620  22.1212670
  34.3807000  42.4056990  22.1155930  46.8184430  50.1314290  29.4412680
  46.9431850  50.9545460  29.9136490  47.6849990  49.9205020  29.0936830
  34.2901960  52.2245500  29.1129810  35.0264440  51.6760960  29.3838380
  34.6742880  53.0901510  28.9735800  31.1747440  48.2919070  24.9871320
  30.2487220  48.5340210  24.9776730  31.6403870  49.1193330  24.8656070
  33.2960240  51.4091570  38.3015390  34.0972970  51.7303620  38.7150790
  32.7812060  51.0487150  39.0235300  37.4004270  51.3975810  20.9355380
  38.1932880  51.6864640  20.4837170  36.8808620  50.9667980  20.2567860
  42.1324870  47.5171440  38.2490800  41.5263030  47.5403040  37.5086550
  41.8278980  46.7854480  38.7858050  43.5625240  51.2451730  36.8600210
  44.5146990  51.1609750  36.8100450  43.4153460  51.9093440  37.5334000
  46.4534440  50.6245940  22.3592120  46.1675950  50.2111080  21.5446300
  46.2553990  51.5533650  22.2392640  37.9181670  46.6179220  20.7997730
  37.8132310  46.0031570  21.5259110  37.7505890  46.0945110  20.0160740
  38.0695990  45.3036020  36.7786960  37.3041660  45.8721020  36.6941630
  38.2511950  45.0112230  35.8855190  41.1584400  45.6799250  21.4039720
  40.6094500  46.1268550  22.0482460  41.7803660  45.1748500  21.9277390
  45.2119340  47.0341350  37.3361980  45.9528810  47.3717110  36.8329440
  44.4492020  47.2033410  36.7831750  36.8259520  44.6390170  23.3005020
  37.2475940  44.4730040  24.1436410  36.9510360  43.8290400  22.8060160
  39.3387160  43.6627780  20.5482120  39.8592820  42.9476800  20.1823270
  39.9855560  44.3013650  20.8482630  43.8865000  45.0856180  35.8717190
  44.3006020  45.2401260  36.7207610  42.9516000  45.2111400  36.0342970
  44.3587170  42.4252340  37.8756340  44.9407940  41.6704660  37.7876820
  44.5348940  42.9559780  37.0987820  38.6480230  45.0376660  33.8413120
  39.0668340  45.8809390  33.6689360  37.7288860  45.1748700  33.6119900
  40.9844130  42.7692840  35.2250960  41.1040340  42.1733980  35.9645800
  41.8438130  42.8062530  34.8052260  43.3232030  43.3230030  33.8013470
  42.7967250  43.8472650  33.1978610  43.6663370  43.9557420  34.4323200
  35.7218420  40.7123400  20.2463180  35.5207480  39.8490760  20.6076520
  35.5510470  40.6256760  19.3084780  36.4987650  51.3429670  34.9570850
  35.9608740  52.0675730  34.6379550  36.7521610  50.8660010  34.1668190
  37.7512900  39.3114190  36.4826780  38.3412590  39.0030040  37.1704600
  36.9333140  38.8393940  36.6386680  42.5706330  38.9280000  36.7159800
  41.8821850  38.2661540  36.6509790  43.2912350  38.4818270  37.1608260
  43.2006730  35.5231630  22.7750060  43.4809020  34.6799530  23.1309480
  42.4272460  35.7554740  23.2888810  34.5201220  37.8124020  20.2341060
  34.8227120  37.8191450  19.3260210  35.2595810  37.4621880  20.7308720
  39.3549860  52.5780880  35.2157500  39.2808560  53.4816020  35.5229870
  38.4528700  52.2592780  35.1879570  37.7386150  36.7558640  21.2197260
  37.3908150  36.0782630  20.6399710  37.9398920  36.2948150  22.0340650
  39.9035190  51.7439390  22.8383860  40.7985980  52.0824360  22.8602620
  39.9352820  51.0218800  22.2108140  33.5431350  47.1166440  21.0670860
  33.9806220  47.6596110  21.7228440  34.0279080  46.2913390  21.0767200
  30.7577150  49.9055470  28.5191120  31.0880160  49.0376530  28.2869760
  31.1868150  50.1113990  29.3496080  35.3539070  48.2364480  26.1793090
  35.0534610  48.1129450  27.0797000  35.2476560  47.3773070  25.7708820
  31.2467360  50.7726060  31.2572750  30.8098350  50.9526860  32.0896900
  31.8145040  51.5300680  31.1154470  46.8829540  50.2743060  35.5450060
  46.2831530  50.3335620  34.8013980  47.0123440  49.3348040  35.6746910
  48.1230990  48.0160880  20.8819770  47.2923950  48.0837530  21.3527000
  48.3002820  48.9065000  20.5786630  47.5787450  44.7608360  23.3853970
  48.3406360  45.3305010  23.4913660  47.5941820  44.1935560  24.1562280
  31.0791790  43.2846290  27.6161630  30.4240630  43.0157930  26.9721330
  31.9169740  43.1750770  27.1663610  48.5847420  45.6158460  28.2295900
  48.9556250  44.8325780  27.8231870  49.2249350  46.3047560  28.0513200
  45.5681180  46.9995040  33.6426220  44.7541020  47.4292200  33.9052010
  45.9755380  47.6113450  33.0295270  47.6306620  45.0542730  20.5426490
  47.9055460  45.9621610  20.4145710  47.4417360  44.9905260  21.4788480
  44.0282230  38.0787580  21.8380120  44.4467110  37.8918560  20.9976780
  43.7218290  37.2266630  22.1483050  47.5271960  42.9911720  25.5355920
  47.1515560  42.2239650  25.1037210  46.7975080  43.3734420  26.0230850
  46.9171580  42.1383240  35.1695440  46.6857670  41.9095990  34.2693390
  47.1776130  43.0582790  35.1240330  45.3559650  37.3639670  37.9475140
  46.2329830  37.3723070  38.3309140  45.3680490  36.6270510  37.3367490
  30.2929870  40.4945220  23.5586960  29.3893950  40.7575420  23.3838620
  30.7770490  40.7656390  22.7786920  46.8022920  41.2169210  28.8363160
  47.3260400  40.7231860  28.2053330  47.3882340  41.3519570  29.5810730
  46.9812640  41.3009080  32.3582710  46.0315350  41.2672620  32.4727700
  47.1625650  42.2109190  32.1232480  32.8357080  39.5510760  21.4681340
  33.5448780  39.1293980  20.9828620  32.1197020  39.6185990  20.8364690
  32.4831240  35.6050090  20.5083990  33.2059370  36.1459030  20.8265210
  32.7555760  35.3313510  19.6325530  46.2922890  40.4742560  24.7755570
  46.7882010  40.2413430  25.5604450  46.0938960  39.6354400  24.3593210
  47.7210050  39.1103510  27.3093250  47.6109330  38.9559550  28.2475520
  48.4817640  38.5824450  27.0668660  46.0675770  35.0497640  33.7676250
  46.7047990  35.6631780  34.1335440  46.2150660  35.0858300  32.8225480
  48.6100320  36.9411430  20.5499390  49.5349630  36.8092610  20.3417680
  48.5876110  37.0204250  21.5035840  48.6838810  37.7122090  23.1756100
  47.8890310  37.6467210  23.7049010  48.8882090  38.6472730  23.1641450
  45.6257230  51.7513640  27.1694490  46.2216300  51.4298210  26.4928910
  45.8835380  51.2785460  27.9607760  33.5319800  48.1831550  37.3185120
  33.4889430  47.8124460  38.1999580  33.6630810  49.1209120  37.4586940
  37.2325830  49.7391140  32.9194840  36.9917190  50.0065700  32.0325360
  38.1728470  49.9096870  32.9745700  39.4380250  36.2023830  36.6751350
  39.3769140  36.7945660  37.4246760  40.3780630  36.0949790  36.5301610
  42.0754810  35.8593890  36.3143640  42.6895220  36.1773180  35.6524720
  42.6204370  35.3742480  36.9339500  48.4929990  51.7585520  33.7205480
  47.9988270  52.1554390  33.0032610  47.8843280  51.1334730  34.1142760
  33.3707830  51.1293800  34.4382900  32.7768150  50.9978500  35.1772940
  33.3631670  50.2931940  33.9725000  46.1769440  52.4008940  30.9992220
  45.7172410  53.1524750  30.6250240  45.5481900  51.6815410  30.9407020
  33.0020060  48.4952180  33.3890940  32.2754120  47.8757470  33.3216890
  33.0629210  48.8892790  32.5189020  36.6065160  50.7097180  30.1740350
  37.1230180  50.0984540  29.6488610  37.2562540  51.2125960  30.6651360
  39.3460660  51.6005670  31.0009330  39.6338470  51.3459970  30.1242340
  39.8583880  51.0483030  31.5914900  31.2850060  51.8126570  26.5987700
  31.1172100  51.1797250  27.2969590  30.4184570  52.0185970  26.2481890
  31.9078080  35.6443350  24.1019560  32.6657440  35.7572230  23.5283590
  31.4455250  36.4812550  24.0562990  46.0951470  34.8246630  23.6045220
  46.2902100  35.7230080  23.8712650  45.3081340  34.5933710  24.0978170
  32.8912760  50.5059800  24.0437840  32.3660380  50.8867830  23.3399800
  32.8157340  51.1310570  24.7647550  34.2803230  36.1707400  22.6421530
  34.8095990  35.3837200  22.5129480  34.9131550  36.8498590  22.8757060
  39.4133020  52.5221770  38.3677530  40.3400330  52.2866040  38.4113490
  39.3983450  53.3493770  37.8863560  47.6478080  52.0647340  25.3651780
  47.8230270  51.3785080  24.7212700  46.9499650  52.5894390  24.9728450
  36.5996630  35.1866520  38.1319410  36.3180900  35.6900120  37.3680230
  36.9816330  34.3888270  37.7661540  35.4905730  52.4542180  22.9187090
  36.2224550  52.1701460  22.3710980  35.7499400  52.2155460  23.8086470
  34.6520520  48.5706910  22.9233420  34.0229400  49.0392010  23.4719250
  34.7668350  47.7256130  23.3579610  43.2012090  34.6020100  38.7099880
  43.0877540  34.9214710  39.6051400  44.0181830  35.0032610  38.4137160
  45.9810580  51.7491630  38.1918570  46.7735900  51.2540860  37.9844530
  46.2743730  52.4281770  38.7994180  42.1070240  42.6212570   9.0734620
  42.0264290  41.7067180   8.8026330  41.6934660  43.1179640   8.3674330
  40.2388280  44.3991590  10.9543890  39.4630380  43.9192030  11.2442460
  40.8901210  43.7197240  10.7800050  34.2554110  44.7111400  11.8319650
  33.4238990  44.4560110  12.2316160  34.8635090  44.7822170  12.5677570
  44.2595710  48.8051780   9.7343020  43.7977240  48.0339020  10.0630190
  45.0721260  48.8317850  10.2395470  34.2355370  48.7451490  12.0277670
  34.5383410  47.8549230  11.8487890  34.9798960  49.3021710  11.7999920
  32.6646060  39.6713290   5.6162040  31.7762760  40.0129260   5.5141920
  32.9487250  39.4713610   4.7242870  30.6279070  42.2718940  11.5001740
  31.1995180  41.5041140  11.5005380  30.6280610  42.5707700  10.5908350
  40.4859020  51.0909790   9.3547010  39.8670460  51.5467290   8.7841450
  41.3410800  51.2461250   8.9536710  39.6797270  47.0748780  10.9614050
  39.6105550  46.1338720  10.8003180  40.4417130  47.1650190  11.5336620
  40.7102440  39.8819160  11.1882980  41.0867260  39.0091040  11.0756650
  40.6121950  40.2177860  10.2973420  34.8407450  38.2544790   6.6500420
  34.9474200  39.1548520   6.9569180  33.9299810  38.2062760   6.3595070
  44.4926560  37.3769600   8.1211320  45.3136180  36.8866170   8.1636800
  44.5260640  37.9667260   8.8743160  32.4890610  40.1763800  11.8953010
  33.1700720  40.4402170  12.5140410  32.1738660  39.3364670  12.2291020
  36.6815180  41.2231160  10.9825600  37.1893400  41.7212130  11.6230620
  37.2128420  40.4466360  10.8064960  48.7826110  39.3936350  14.6854950
  48.0778280  39.7818060  14.1670060  49.0484030  40.0886640  15.2875880
  41.3522370  45.9749030   6.7478920  40.7339640  46.4398480   6.1841640
  41.8645620  46.6676510   7.1648430  36.2154130  45.5024900  13.4262520
  35.8823510  46.1293820  14.0683590  36.3920810  46.0286780  12.6464190
  44.7288040  39.3169980  10.8938860  44.0243610  39.6054870  11.4741970
  45.0900200  40.1270090  10.5338420  35.4273230  47.4705700  15.2411700
  36.0447230  48.1456780  14.9596150  34.5666350  47.8793680  15.1499200
  30.7205570  46.6605560   4.1218550  30.3433550  47.1492660   3.3903450
  30.9778640  47.3330840   4.7525080  46.3450820  48.9345110  13.1566340
  45.6614340  49.6044220  13.1483010  46.8845110  49.1325760  12.3911200
  47.7974960  38.7624770  11.2848070  46.8499870  38.7963750  11.4163500
  48.1224950  39.5763720  11.6697430  38.3294500  35.0621950   9.5804060
  38.6369480  34.5068840   8.8639560  37.3995200  35.1966410   9.3977050
  43.8809560  50.7789240  11.8711520  43.8936720  50.3751530  11.0033780
  43.3284780  51.5536530  11.7672950  45.1754980  47.5005460   6.9601690
  45.0651310  46.5579790   7.0851110  45.1723230  47.8621100   7.8464450
  43.2795000  45.6819080  13.1994130  43.6963790  45.4679190  12.3647590
  44.0034820  45.9391870  13.7702750  40.7175260  43.1270780   6.3164180
  39.7904540  43.0608160   6.5452650  40.8700080  44.0650910   6.2019420
  40.7044340  39.3987780   3.3131340  39.7648010  39.5601740   3.3983800
  41.0227600  40.1173460   2.7667330  47.2257100  44.0806300  13.2910370
  46.3975730  44.1499390  12.8160500  47.8207580  44.6660610  12.8226200
  44.7472550  44.6891080   6.8199430  44.1284970  44.3510630   6.1725730
  44.7297000  44.0450840   7.5278620  44.1899110  40.8675620  14.2365240
  43.7770290  41.6929330  14.4905230  43.4575060  40.2820660  14.0441600
  36.3231900  43.6535520   9.0983910  35.9188900  42.9412770   8.6029810
  36.4095020  43.3088760   9.9871950  36.7913600  47.3403080  11.2623120
  36.4941890  46.7348550  10.5830900  37.7413420  47.3780390  11.1512480
  35.0360520  40.4278730  12.8782950  35.5875110  40.5374070  12.1036200
  35.5504030  40.8016330  13.5938180  44.8799210  50.9134950  14.9246220
  44.4029770  51.7207140  14.7318830  44.1961000  50.2613280  15.0772430
  35.8832030  47.0784770  17.9130920  34.9860560  47.3024740  18.1604320
  35.9084900  47.2019710  16.9642320  42.9237250  43.9277890   3.8272180
  43.3630530  43.0900320   3.6810000  43.6365670  44.5607290   3.9136320
  34.7103250  43.9498090  16.4888290  34.5711020  44.8220890  16.8575690
  33.8284610  43.6070900  16.3436230  41.0332630  48.8673960   7.7953420
  41.4728540  49.6098290   7.3808810  40.9719520  49.1100530   8.7192380
  36.5083600  49.8919790  18.6973440  36.4799030  50.2962740  17.8301870
  36.3448570  48.9630150  18.5345040  46.5054390  35.1820700   2.1413220
  46.1927050  35.2747530   3.0412290  47.2666860  35.7601730   2.0910650
  33.0236530  42.5480500   6.5990560  32.9034130  43.2742590   5.9871830
  32.7137420  41.7783410   6.1218470  48.4598420  50.6746890  19.9937610
  48.9358140  51.1529780  20.6726690  49.0805580  50.6064380  19.2683110
  30.6621900  45.7195640  12.4059200  30.7402320  45.8544410  11.4614920
  31.2763580  45.0111530  12.5987320  31.9069530  47.4195830   8.8165380
  31.4997610  47.5610420   7.9618980  32.7982540  47.1355990   8.6136590
  47.8631670  47.8659740  17.1537620  47.9894730  47.6271620  16.2354800
  47.9053050  47.0344280  17.6259700  41.7248410  51.5687740  15.7232430
  42.2393080  51.4795750  16.5254860  40.8817490  51.9147440  16.0160340
  43.7002810  51.8543080   5.1516430  43.5403950  51.5646020   6.0498260
  43.5349520  51.0783210   4.6161660  36.1791190  51.6341610   6.9288050
  36.0033670  50.7177150   6.7155850  35.3246930  51.9928900   7.1685850
  43.4028940  49.3630640   3.7114430  42.7094100  49.3607930   3.0516710
  44.1451800  48.9389960   3.2808600  42.9678870  50.9893350   7.7862920
  43.4235820  50.2082730   8.1001540  43.3071390  51.7000170   8.3304100
  47.7155680  39.9192200  18.1187360  47.0999950  40.4271870  17.5902820
  47.3952100  39.0190530  18.0613300  30.7181420  46.7609810  14.9453660
  30.8812460  46.2915170  14.1273030  31.1833870  46.2533370  15.6102500
  35.4900190  35.8915570   9.9814230  35.0468340  36.6725110   9.6498750
  36.0485180  36.2145460  10.6885170  39.7770000  38.7584090  15.5849550
  39.3149370  38.9667110  16.3969490  39.3748110  37.9443440  15.2820220
  44.7774510  39.9793040  16.7146210  43.9268100  39.6798790  17.0355280
  44.6176300  40.2235050  15.8030030  41.8724220  41.4794790  18.8145000
  42.1977630  40.6458540  18.4747230  42.6604550  42.0023310  18.9623330
  38.6059010  35.5126270   4.8620060  37.9813190  35.5086140   5.5873370
  38.5189130  34.6457230   4.4656030  37.5276090  36.4362900  11.8403830
  37.8248420  37.3425730  11.7595850  38.0761650  35.9481680  11.2263400
  35.2814410  41.0149140   7.7095480  35.0555330  40.7986310   8.6142100
  34.5006940  41.4477600   7.3641450  42.5112170  41.0212510   6.3086130
  41.9121060  41.7448310   6.1249750  43.0591780  40.9589290   5.5262580
  37.7213620  41.9134720  18.3755750  37.6257220  40.9729450  18.2256150
  38.5645600  42.1349790  17.9803820  41.1177040  39.6576050   8.3389410
  41.5106610  39.9748250   7.5258100  41.4793890  38.7787930   8.4533930
  39.4269210  38.4083360  19.5986270  38.7367530  38.2155560  20.2332360
  40.1701510  38.6918000  20.1310570  30.1541210  36.2476850  10.5619610
  29.8654260  36.8179710  11.2744590  30.8986970  35.7681300  10.9250840
  41.7032180  42.2481800  12.4340190  40.9713300  42.7568610  12.7830290
  41.3056520  41.4311780  12.1328970  38.1409570  38.9236000  10.8392680
  38.1445630  38.4825950   9.9897220  39.0360690  39.2453330  10.9464500
  33.9911950  38.8062490   9.7986890  33.6512000  39.2837720  10.5553940
  33.2289270  38.3527610   9.4387990  38.2029720  39.9248080   3.8299440
  38.3242540  39.8834560   4.7785260  37.8178230  40.7872230   3.6746170
  42.1658090  37.7015480  11.8463130  42.1830830  38.1524130  12.6904980
  41.9173670  36.8021120  12.0596570  37.2151220  42.2349220   3.2282740
  36.6468120  41.7867470   2.6018650  37.9240220  42.5942000   2.6947890
  45.5928840  35.1147660  17.6849510  45.9174610  34.3837320  18.2107490
  45.6285350  34.7961300  16.7830500  32.2920400  46.1361240  17.1049470
  31.9075190  45.4954910  17.7032430  32.6032590  46.8397360  17.6744200
  38.4417540  42.9837780  12.5858090  38.8087670  42.5096350  13.3319430
  38.2522600  43.8579350  12.9266430  31.3058030  37.7281470   8.7151560
  31.0204950  37.3637140   9.5530180  31.2436890  36.9961930   8.1014700
  36.2316910  42.0246420  14.9042300  35.9273980  42.9038400  15.1292660
  37.1863370  42.0846210  14.9399740  34.7598700  46.2307410   5.5009150
  33.9860960  45.6905030   5.3407870  35.4893330  45.7114020   5.1626910
  45.5186680  45.2272770  11.2935540  46.2385800  45.7228060  10.9031650
  45.3168500  44.5490660  10.6489410  40.9796620  36.6210730   5.4364930
  40.1661230  36.1223900   5.3610240  40.7858570  37.4608980   5.0201280
  40.9005480  45.2981830  17.1804540  40.8342790  44.3777500  16.9262130
  40.2710620  45.3957270  17.8949180  43.6945010  40.9930380   3.7327090
  44.5824630  41.3047610   3.5578430  43.6650100  40.1202630   3.3407670
  34.8036100  45.8987790   9.1387960  35.3214770  45.0956050   9.0844850
  34.3520120  45.8366930   9.9804790  39.6905600  47.1654070   4.4115260
  40.0321300  47.9096300   3.9158580  38.8618310  47.4785190   4.7740090
  32.2880640  42.8649160  16.0513660  31.9295580  43.5303010  16.6387000
  31.9935200  42.0332710  16.4226280  35.4893760  43.3233400  18.9353210
  35.1893900  43.4690580  18.0381030  36.2605000  42.7638690  18.8426600
  40.8322210  48.1202400  16.9308340  40.8466750  47.1883360  16.7127250
  40.1247310  48.2062160  17.5698110  45.9659280  42.3042220   3.2006950
  45.8823000  42.7356440   2.3503390  46.6853470  42.7640570   3.6333770
  47.0433420  44.7609740  16.2776920  46.3181610  45.3538520  16.0806310
  47.5708880  44.7533280  15.4790290  46.9946530  49.1584480   5.9289080
  46.3522690  48.5040100   6.2032800  46.6077190  49.5639570   5.1529750
  42.5733010  46.4869910   9.7760770  42.9256830  45.8898040   9.1162140
  41.6895340  46.1614140   9.9469020  38.6596290  47.2467600   7.1831180
  39.3467420  47.7936810   7.5638770  37.8728710  47.7908330   7.2180790
  30.7988690  42.8640420   2.6748260  31.6683540  43.1465220   2.9584180
  30.3079010  43.6776290   2.5597070  37.9623500  44.2513630   6.7956540
  38.4186280  45.0618880   7.0216730  37.6111710  43.9336770   7.6275030
  40.2656110  49.7619970  14.0248840  40.9098330  49.9679350  14.7022260
  40.6285550  49.0008370  13.5719690  33.8635280  34.5951280   7.2679060
  33.7349910  34.5869180   8.2163980  33.0397300  34.9334370   6.9170070
  41.5388190  47.7652320  12.7426290  42.1810420  47.0645480  12.8558460
  42.0637540  48.5450760  12.5623180  43.3125810  48.5647220  15.9462350
  43.6482050  49.1513910  16.6240270  42.3926150  48.4339930  16.1760140
  31.1659940  52.0767800   3.2409890  31.5257580  52.6757140   2.5867160
  31.0252280  52.6227690   4.0144920  44.9660160  45.9672880   4.1279590
  44.6781860  46.4285570   4.9157470  45.7612330  45.5070650   4.3963810
  31.1501800  50.3422660  17.7152290  31.2592920  49.4017400  17.5747680
  30.4982360  50.6077410  17.0666020  39.1414390  48.6138550  19.1150410
  38.8211260  47.8947790  19.6596100  38.4672750  49.2893620  19.1886470
  37.1828560  49.4599000   4.0583560  37.1738660  50.1928690   3.4428070
  36.2626920  49.2130580   4.1510520  32.7835200  44.6813890   4.8030320
  32.1763150  45.4212790   4.8125620  33.2584550  44.7713250   3.9768520
  42.3567990  38.8464710  14.4787210  42.7248810  38.0259920  14.8066780
  41.4966190  38.9066600  14.8942860  45.7230020  37.8021650   5.2874770
  45.0943180  37.9067320   4.5733000  45.2281940  38.0218430   6.0768650
  40.1688160  49.5227240   2.7208750  40.2700140  49.3191230   1.7910730
  39.2689900  49.2685520   2.9256530  37.6914050  40.0807600   6.7032650
  36.9830200  40.5493940   7.1446260  37.9758530  39.4229610   7.3377840
  39.3169980  41.5004300  14.7025180  39.8155230  41.9750120  15.3677030
  39.4592930  40.5767820  14.9095210  41.7229480  36.8058260   8.1428440
  41.5997260  36.8244390   7.1937950  42.6714040  36.8537200   8.2626840
  38.8106270  52.0413560   7.4156420  39.0647770  52.0034950   6.4935790
  37.8618750  51.9146890   7.4084670  35.8949070  38.3892680   4.0783360
  36.7439600  38.8262830   4.0123550  35.5280340  38.7012940   4.9055420
  46.5236840  37.7172260  15.5453570  46.0210440  38.4577660  15.8847380
  47.3393500  38.1056260  15.2290360  44.8158850  42.9605440   8.9914930
  43.8748990  42.9755670   9.1662620  45.1302920  42.1741400   9.4375230
  34.7940490  44.6425040   2.5518890  35.5603760  44.5306400   3.1144320
  34.8715180  43.9463010   1.8995660  33.4887250  42.0750110   3.2351780
  33.5690840  41.1277620   3.3469180  34.3807000  42.4056990   3.3412440
  46.8184430  50.1314290  10.6669190  46.9431850  50.9545460  11.1393000
  47.6849990  49.9205020  10.3193340  34.2901960  52.2245500  10.3386320
  35.0264440  51.6760960  10.6094890  34.6742880  53.0901510  10.1992310
  31.1747440  48.2919070   6.2127830  30.2487220  48.5340210   6.2033240
  31.6403870  49.1193330   6.0912580  33.2960240  51.4091570  19.5271900
  34.0972970  51.7303620  19.9407300  32.7812060  51.0487150  20.2491810
  42.1324870  47.5171440  19.4747310  41.5263030  47.5403040  18.7343060
  41.8278980  46.7854480  20.0114560  43.5625240  51.2451730  18.0856720
  44.5146990  51.1609750  18.0356960  43.4153460  51.9093440  18.7590510
  46.4534440  50.6245940   3.5848630  46.1675950  50.2111080   2.7702810
  46.2553990  51.5533650   3.4649150  31.0158050  43.8965030  18.4707950
  31.5197070  43.3172310  19.0424180  30.2765470  44.1805260  19.0084320
  38.0695990  45.3036020  18.0043470  37.3041660  45.8721020  17.9198140
  38.2511950  45.0112230  17.1111700  41.1584400  45.6799250   2.6296230
  40.6094500  46.1268550   3.2738970  41.7803660  45.1748500   3.1533900
  45.2119340  47.0341350  18.5618490  45.9528810  47.3717110  18.0585950
  44.4492020  47.2033410  18.0088260  33.0481130  42.0394620  19.3658020
  33.0886470  41.7408490  20.2743250  33.9026630  42.4402230  19.2065540
  36.8259520  44.6390170   4.5261530  37.2475940  44.4730040   5.3692920
  36.9510360  43.8290400   4.0316670  34.9886940  40.6186720  17.3332510
  34.4583400  40.1277670  16.7055850  35.6575010  41.0470920  16.7990440
  43.8865000  45.0856180  17.0973700  44.3006020  45.2401260  17.9464120
  42.9516000  45.2111400  17.2599480  44.3587170  42.4252340  19.1012850
  44.9407940  41.6704660  19.0133330  44.5348940  42.9559780  18.3244330
  38.2420680  36.1422330  14.4457190  37.7937980  36.1646590  13.6002740
  37.6085880  35.7441350  15.0427490  38.6480230  45.0376660  15.0669630
  39.0668340  45.8809390  14.8945870  37.7288860  45.1748700  14.8376410
  40.9844130  42.7692840  16.4507470  41.1040340  42.1733980  17.1902310
  41.8438130  42.8062530  16.0308770  43.3232030  43.3230030  15.0269980
  42.7967250  43.8472650  14.4235120  43.6663370  43.9557420  15.6579710
  36.4987650  51.3429670  16.1827360  35.9608740  52.0675730  15.8636060
  36.7521610  50.8660010  15.3924700  37.7512900  39.3114190  17.7083290
  38.3412590  39.0030040  18.3961110  36.9333140  38.8393940  17.8643190
  42.5706330  38.9280000  17.9416310  41.8821850  38.2661540  17.8766300
  43.2912350  38.4818270  18.3864770  43.2006730  35.5231630   4.0006570
  43.4809020  34.6799530   4.3565990  42.4272460  35.7554740   4.5145320
  39.3549860  52.5780880  16.4414010  39.2808560  53.4816020  16.7486380
  38.4528700  52.2592780  16.4136080  37.7386150  36.7558640   2.4453770
  37.3908150  36.0782630   1.8656220  37.9398920  36.2948150   3.2597160
  39.9035190  51.7439390   4.0640370  40.7985980  52.0824360   4.0859130
  39.9352820  51.0218800   3.4364650  33.5431350  47.1166440   2.2927370
  33.9806220  47.6596110   2.9484950  34.0279080  46.2913390   2.3023710
  30.7577150  49.9055470   9.7447630  31.0880160  49.0376530   9.5126270
  31.1868150  50.1113990  10.5752590  35.3539070  48.2364480   7.4049600
  35.0534610  48.1129450   8.3053510  35.2476560  47.3773070   6.9965330
  31.2467360  50.7726060  12.4829260  30.8098350  50.9526860  13.3153410
  31.8145040  51.5300680  12.3410980  46.8829540  50.2743060  16.7706570
  46.2831530  50.3335620  16.0270490  47.0123440  49.3348040  16.9003420
  48.1230990  48.0160880   2.1076280  47.2923950  48.0837530   2.5783510
  48.3002820  48.9065000   1.8043140  47.5787450  44.7608360   4.6110480
  48.3406360  45.3305010   4.7170170  47.5941820  44.1935560   5.3818790
  31.0791790  43.2846290   8.8418140  30.4240630  43.0157930   8.1977840
  31.9169740  43.1750770   8.3920120  48.5847420  45.6158460   9.4552410
  48.9556250  44.8325780   9.0488380  49.2249350  46.3047560   9.2769710
  45.5681180  46.9995040  14.8682730  44.7541020  47.4292200  15.1308520
  45.9755380  47.6113450  14.2551780  47.6306620  45.0542730   1.7683000
  47.9055460  45.9621610   1.6402220  47.4417360  44.9905260   2.7044990
  44.0282230  38.0787580   3.0636630  44.4467110  37.8918560   2.2233290
  43.7218290  37.2266630   3.3739560  47.5271960  42.9911720   6.7612430
  47.1515560  42.2239650   6.3293720  46.7975080  43.3734420   7.2487360
  32.1167720  43.6698860  13.3821480  32.4840760  43.5826260  14.2617500
  31.5478540  42.9065410  13.2828340  46.9171580  42.1383240  16.3951950
  46.6857670  41.9095990  15.4949900  47.1776130  43.0582790  16.3496840
  31.6683720  40.5807950  17.2879900  30.7739770  40.5474710  17.6273610
  32.2081270  40.7794740  18.0531150  45.3559650  37.3639670  19.1731650
  46.2329830  37.3723070  19.5565650  45.3680490  36.6270510  18.5624000
  30.2929870  40.4945220   4.7843470  29.3893950  40.7575420   4.6095130
  30.7770490  40.7656390   4.0043430  46.8022920  41.2169210  10.0619670
  47.3260400  40.7231860   9.4309840  47.3882340  41.3519570  10.8067240
  46.9812640  41.3009080  13.5839220  46.0315350  41.2672620  13.6984210
  47.1625650  42.2109190  13.3488990  32.8357080  39.5510760   2.6937850
  33.5448780  39.1293980   2.2085130  32.1197020  39.6185990   2.0621200
  46.2922890  40.4742560   6.0012080  46.7882010  40.2413430   6.7860960
  46.0938960  39.6354400   5.5849720  32.1723430  34.8556280  11.6363120
  32.8199620  34.3053660  11.1958280  32.5925270  35.1099430  12.4578930
  47.7210050  39.1103510   8.5349760  47.6109330  38.9559550   9.4732030
  48.4817640  38.5824450   8.2925170  46.0675770  35.0497640  14.9932760
  46.7047990  35.6631780  15.3591950  46.2150660  35.0858300  14.0481990
  48.6838810  37.7122090   4.4012610  47.8890310  37.6467210   4.9305520
  48.8882090  38.6472730   4.3897960  45.6257230  51.7513640   8.3951000
  46.2216300  51.4298210   7.7185420  45.8835380  51.2785460   9.1864270
  33.5319800  48.1831550  18.5441630  33.4889430  47.8124460  19.4256090
  33.6630810  49.1209120  18.6843450  37.2325830  49.7391140  14.1451350
  36.9917190  50.0065700  13.2581870  38.1728470  49.9096870  14.2002210
  39.4380250  36.2023830  17.9007860  39.3769140  36.7945660  18.6503270
  40.3780630  36.0949790  17.7558120  42.0754810  35.8593890  17.5400150
  42.6895220  36.1773180  16.8781230  42.6204370  35.3742480  18.1596010
  48.4929990  51.7585520  14.9461990  47.9988270  52.1554390  14.2289120
  47.8843280  51.1334730  15.3399270  33.3707830  51.1293800  15.6639410
  32.7768150  50.9978500  16.4029450  33.3631670  50.2931940  15.1981510
  42.8162850  34.4226030  13.8669440  41.9422690  34.7561140  13.6642370
  42.7073600  33.9499210  14.6921310  43.7234830  36.6296900  15.2511160
  43.3948190  35.8148660  14.8712890  44.6717130  36.5866710  15.1276850
  46.1769440  52.4008940  12.2248730  45.7172410  53.1524750  11.8506750
  45.5481900  51.6815410  12.1663530  33.0020060  48.4952180  14.6147450
  32.2754120  47.8757470  14.5473400  33.0629210  48.8892790  13.7445530
  36.6065160  50.7097180  11.3996860  37.1230180  50.0984540  10.8745120
  37.2562540  51.2125960  11.8907870  39.3460660  51.6005670  12.2265840
  39.6338470  51.3459970  11.3498850  39.8583880  51.0483030  12.8171410
  40.5637670  35.3395870  12.8062350  39.7809460  35.8141370  13.0859110
  40.2700600  34.4350700  12.6975530  45.1158740  36.0418970  10.8511440
  45.5566830  35.9864070  10.0033040  44.8466330  36.9576980  10.9221620
  46.9797310  35.6734210   8.8620260  46.9185710  34.7295430   8.7151280
  47.7589340  35.7814300   9.4073720  31.2850060  51.8126570   7.8244210
  31.1172100  51.1797250   8.5226100  30.4184570  52.0185970   7.4738400
  31.9078080  35.6443350   5.3276070  32.6657440  35.7572230   4.7540100
  31.4455250  36.4812550   5.2819500  38.4491890  37.7582620   8.3178380
  37.6366400  37.3839510   7.9774260  38.9533530  37.0027700   8.6199570
  42.9516870  34.4225070   9.5561450  43.5546240  34.9945280  10.0309970
  42.2109860  34.9864510   9.3335350  46.0951470  34.8246630   4.8301730
  46.2902100  35.7230080   5.0969160  45.3081340  34.5933710   5.3234680
  32.8912760  50.5059800   5.2694350  32.3660380  50.8867830   4.5656310
  32.8157340  51.1310570   5.9904060  34.2803230  36.1707400   3.8678040
  34.8095990  35.3837200   3.7385990  34.9131550  36.8498590   4.1013570
  36.4741070  35.9082540   6.9223430  35.8443810  35.2069850   7.0893560
  35.9346210  36.6686670   6.7056590  39.4133020  52.5221770  19.5934040
  40.3400330  52.2866040  19.6370000  39.3983450  53.3493770  19.1120070
  47.6478080  52.0647340   6.5908290  47.8230270  51.3785080   5.9469210
  46.9499650  52.5894390   6.1984960  36.5996630  35.1866520  19.3575920
  36.3180900  35.6900120  18.5936740  36.9816330  34.3888270  18.9918050
  35.4905730  52.4542180   4.1443600  36.2224550  52.1701460   3.5967490
  35.7499400  52.2155460   5.0342980  34.6520520  48.5706910   4.1489930
  34.0229400  49.0392010   4.6975760  34.7668350  47.7256130   4.5836120
  43.2012090  34.6020100  19.9356390  43.0877540  34.9214710  20.8307910
  44.0181830  35.0032610  19.6393670  45.9810580  51.7491630  19.4175080
  46.7735900  51.2540860  19.2101040  46.2743730  52.4281770  20.0250690
  42.1070240  23.8469080  46.6221600  42.0264290  22.9323690  46.3513310
  41.6934660  24.3436150  45.9161310  40.2388280  25.6248100  48.5030870
  39.4630380  25.1448540  48.7929440  40.8901210  24.9453750  48.3287030
  34.2554110  25.9367910  49.3806630  33.4238990  25.6816620  49.7803140
  34.8635090  26.0078680  50.1164550  44.2595710  30.0308290  47.2830000
  43.7977240  29.2595530  47.6117170  45.0721260  30.0574360  47.7882450
  34.2355370  29.9708000  49.5764650  34.5383410  29.0805740  49.3974870
  34.9798960  30.5278220  49.3486900  30.6279070  23.4975450  49.0488720
  31.1995180  22.7297650  49.0492360  30.6280610  23.7964210  48.1395330
  40.4859020  32.3166300  46.9033990  39.8670460  32.7723800  46.3328430
  41.3410800  32.4717760  46.5023690  39.6797270  28.3005290  48.5101030
  39.6105550  27.3595230  48.3490160  40.4417130  28.3906700  49.0823600
  31.8703940  18.9059810  50.8357650  31.6906780  18.0085560  51.1160410
  31.4684020  19.4531680  51.5104600  40.7102440  21.1075670  48.7369960
  41.0867260  20.2347550  48.6243630  40.6121950  21.4434370  47.8460400
  34.8407450  19.4801300  44.1987400  34.9474200  20.3805030  44.5056160
  33.9299810  19.4319270  43.9082050  44.4926560  18.6026110  45.6698300
  45.3136180  18.1122680  45.7123780  44.5260640  19.1923770  46.4230140
  32.4890610  21.4020310  49.4439990  33.1700720  21.6658680  50.0627390
  32.1738660  20.5621180  49.7778000  36.6815180  22.4487670  48.5312580
  37.1893400  22.9468640  49.1717600  37.2128420  21.6722870  48.3551940
  48.7826110  20.6192860  52.2341930  48.0778280  21.0074570  51.7157040
  49.0484030  21.3143150  52.8362860  34.9651280  17.0886230  52.7976000
  34.9669720  17.6058620  51.9921900  34.1355590  16.6116410  52.7745930
  41.3522370  27.2005540  44.2965900  40.7339640  27.6654990  43.7328620
  41.8645620  27.8933020  44.7135410  36.2154130  26.7281410  50.9749500
  35.8823510  27.3550330  51.6170570  36.3920810  27.2543290  50.1951170
  44.7288040  20.5426490  48.4425840  44.0243610  20.8311380  49.0228950
  45.0900200  21.3526600  48.0825400  34.6466610  18.7996190  50.8046450
  34.9883420  19.6438240  50.5100320  33.7082420  18.9479930  50.9211790
  35.4273230  28.6962210  52.7898680  36.0447230  29.3713290  52.5083130
  34.5666350  29.1050190  52.6986180  46.3450820  30.1601620  50.7053320
  45.6614340  30.8300730  50.6969990  46.8845110  30.3582270  49.9398180
  47.7974960  19.9881280  48.8335050  46.8499870  20.0220260  48.9650480
  48.1224950  20.8020230  49.2184410  38.3294500  16.2878460  47.1291040
  38.6369480  15.7325350  46.4126540  37.3995200  16.4222920  46.9464030
  43.8809560  32.0045750  49.4198500  43.8936720  31.6008040  48.5520760
  43.3284780  32.7793040  49.3159930  45.1754980  28.7261970  44.5088670
  45.0651310  27.7836300  44.6338090  45.1723230  29.0877610  45.3951430
  43.2795000  26.9075590  50.7481110  43.6963790  26.6935700  49.9134570
  44.0034820  27.1648380  51.3189730  47.2257100  25.3062810  50.8397350
  46.3975730  25.3755900  50.3647480  47.8207580  25.8917120  50.3713180
  44.7472550  25.9147590  44.3686410  44.1284970  25.5767140  43.7212710
  44.7297000  25.2707350  45.0765600  44.1899110  22.0932130  51.7852220
  43.7770290  22.9185840  52.0392210  43.4575060  21.5077170  51.5928580
  36.3231900  24.8792030  46.6470890  35.9188900  24.1669280  46.1516790
  36.4095020  24.5345270  47.5358930  36.7913600  28.5659590  48.8110100
  36.4941890  27.9605060  48.1317880  37.7413420  28.6036900  48.6999460
  35.0360520  21.6535240  50.4269930  35.5875110  21.7630580  49.6523180
  35.5504030  22.0272840  51.1425160  44.8799210  32.1391460  52.4733200
  44.4029770  32.9463650  52.2805810  44.1961000  31.4869790  52.6259410
  35.8832030  28.3041280  55.4617900  34.9860560  28.5281250  55.7091300
  35.9084900  28.4276220  54.5129300  42.9237250  25.1534400  41.3759160
  43.3630530  24.3156830  41.2296980  43.6365670  25.7863800  41.4623300
  34.7103250  25.1754600  54.0375270  34.5711020  26.0477400  54.4062670
  33.8284610  24.8327410  53.8923210  41.0332630  30.0930470  45.3440400
  41.4728540  30.8354800  44.9295790  40.9719520  30.3357040  46.2679360
  36.5083600  31.1176300  56.2460420  36.4799030  31.5219250  55.3788850
  36.3448570  30.1886660  56.0832020  46.5054390  16.4077210  39.6900200
  46.1927050  16.5004040  40.5899270  47.2666860  16.9858240  39.6397630
  30.6621900  26.9452150  49.9546180  30.7402320  27.0800920  49.0101900
  31.2763580  26.2368040  50.1474300  47.8631670  29.0916250  54.7024600
  47.9894730  28.8528130  53.7841780  47.9053050  28.2600790  55.1746680
  41.7248410  32.7944250  53.2719410  42.2393080  32.7052260  54.0741840
  40.8817490  33.1403950  53.5647320  43.7002810  33.0799590  42.7003410
  43.5403950  32.7902530  43.5985240  43.5349520  32.3039720  42.1648640
  36.1791190  32.8598120  44.4775030  36.0033670  31.9433660  44.2642830
  35.3246930  33.2185410  44.7172830  43.4028940  30.5887150  41.2601410
  42.7094100  30.5864440  40.6003690  44.1451800  30.1646470  40.8295580
  42.9678870  32.2149860  45.3349900  43.4235820  31.4339240  45.6488520
  43.3071390  32.9256680  45.8791080  47.7155680  21.1448710  55.6674340
  47.0999950  21.6528380  55.1389800  47.3952100  20.2447040  55.6100280
  30.7181420  27.9866320  52.4940640  30.8812460  27.5171680  51.6760010
  31.1833870  27.4789880  53.1589480  35.4900190  17.1172080  47.5301210
  35.0468340  17.8981620  47.1985730  36.0485180  17.4401970  48.2372150
  39.7770000  19.9840600  53.1336530  39.3149370  20.1923620  53.9456470
  39.3748110  19.1699950  52.8307200  44.7774510  21.2049550  54.2633190
  43.9268100  20.9055300  54.5842260  44.6176300  21.4491560  53.3517010
  41.8724220  22.7051300  56.3631980  42.1977630  21.8715050  56.0234210
  42.6604550  23.2279820  56.5110310  37.5276090  17.6619410  49.3890810
  37.8248420  18.5682240  49.3082830  38.0761650  17.1738190  48.7750380
  35.2814410  22.2405650  45.2582460  35.0555330  22.0242820  46.1629080
  34.5006940  22.6734110  44.9128430  37.7213620  23.1391230  55.9242730
  37.6257220  22.1985960  55.7743130  38.5645600  23.3606300  55.5290800
  32.8524160  19.5504900  54.0776510  32.4587550  20.3980110  54.2849290
  32.1642560  18.9131270  54.2685150  30.1541210  17.4733360  48.1106590
  29.8654260  18.0436220  48.8231570  30.8986970  16.9937810  48.4737820
  30.3411440  21.4153480  39.3209310  30.2586110  22.3584240  39.4624300
  29.9894500  21.2728390  38.4421660  41.7032180  23.4738310  49.9827170
  40.9713300  23.9825120  50.3317270  41.3056520  22.6568290  49.6815950
  38.1409570  20.1492510  48.3879660  38.1445630  19.7082460  47.5384200
  39.0360690  20.4709840  48.4951480  33.9911950  20.0319000  47.3473870
  33.6512000  20.5094230  48.1040920  33.2289270  19.5784120  46.9874970
  42.1658090  18.9271990  49.3950110  42.1830830  19.3780640  50.2391960
  41.9173670  18.0277630  49.6083550  45.5928840  16.3404170  55.2336490
  45.9174610  15.6093830  55.7594470  45.6285350  16.0217810  54.3317480
  32.2920400  27.3617750  54.6536450  31.9075190  26.7211420  55.2519410
  32.6032590  28.0653870  55.2231180  38.4417540  24.2094290  50.1345070
  38.8087670  23.7352860  50.8806410  38.2522600  25.0835860  50.4753410
  31.3058030  18.9537980  46.2638540  31.0204950  18.5893650  47.1017160
  31.2436890  18.2218440  45.6501680  36.2316910  23.2502930  52.4529280
  35.9273980  24.1294910  52.6779640  37.1863370  23.3102720  52.4886720
  45.5186680  26.4529280  48.8422520  46.2385800  26.9484570  48.4518630
  45.3168500  25.7747170  48.1976390  40.9005480  26.5238340  54.7291520
  40.8342790  25.6034010  54.4749110  40.2710620  26.6213780  55.4436160
  43.6945010  22.2186890  41.2814070  44.5824630  22.5304120  41.1065410
  43.6650100  21.3459140  40.8894650  34.8036100  27.1244300  46.6874940
  35.3214770  26.3212560  46.6331830  34.3520120  27.0623440  47.5291770
  32.2880640  24.0905670  53.6000640  31.9295580  24.7559520  54.1873980
  31.9935200  23.2589220  53.9713260  35.4893760  24.5489910  56.4840190
  35.1893900  24.6947090  55.5868010  36.2605000  23.9895200  56.3913580
  40.8322210  29.3458910  54.4795320  40.8466750  28.4139870  54.2614230
  40.1247310  29.4318670  55.1185090  45.9659280  23.5298730  40.7493930
  45.8823000  23.9612950  39.8990370  46.6853470  23.9897080  41.1820750
  47.0433420  25.9866250  53.8263900  46.3181610  26.5795030  53.6293290
  47.5708880  25.9789790  53.0277270  46.9946530  30.3840990  43.4776060
  46.3522690  29.7296610  43.7519780  46.6077190  30.7896080  42.7016730
  42.5733010  27.7126420  47.3247750  42.9256830  27.1154550  46.6649120
  41.6895340  27.3870650  47.4956000  38.6596290  28.4724110  44.7318160
  39.3467420  29.0193320  45.1125750  37.8728710  29.0164840  44.7667770
  40.2656110  30.9876480  51.5735820  40.9098330  31.1935860  52.2509240
  40.6285550  30.2264880  51.1206670  33.8635280  15.8207790  44.8166040
  33.7349910  15.8125690  45.7650960  33.0397300  16.1590880  44.4657050
  41.5388190  28.9908830  50.2913270  42.1810420  28.2901990  50.4045440
  42.0637540  29.7707270  50.1110160  45.3843910  29.2757450  40.0152410
  45.1581490  28.5587890  40.6077050  44.9940110  29.0269890  39.1774160
  43.3125810  29.7903730  53.4949330  43.6482050  30.3770420  54.1727250
  42.3926150  29.6596440  53.7247120  30.8629210  17.5798910  54.2772740
  30.1487730  17.7795830  54.8825350  31.2824250  16.8038480  54.6487540
  44.9660160  27.1929390  41.6766570  44.6781860  27.6542080  42.4644450
  45.7612330  26.7327160  41.9450790  31.1501800  31.5679170  55.2639270
  31.2592920  30.6273910  55.1234660  30.4982360  31.8333920  54.6153000
  39.1414390  29.8395060  56.6637390  38.8211260  29.1204300  57.2083080
  38.4672750  30.5150130  56.7373450  37.1828560  30.6855510  41.6070540
  37.1738660  31.4185200  40.9915050  36.2626920  30.4387090  41.6997500
  42.3567990  20.0721220  52.0274190  42.7248810  19.2516430  52.3553760
  41.4966190  20.1323110  52.4429840  45.7230020  19.0278160  42.8361750
  45.0943180  19.1323830  42.1219980  45.2281940  19.2474940  43.6255630
  40.1688160  30.7483750  40.2695730  40.2700140  30.5447740  39.3397710
  39.2689900  30.4942030  40.4743510  39.3169980  22.7260810  52.2512160
  39.8155230  23.2006630  52.9164010  39.4592930  21.8024330  52.4582190
  41.7229480  18.0314770  45.6915420  41.5997260  18.0500900  44.7424930
  42.6714040  18.0793710  45.8113820  38.8106270  33.2670070  44.9643400
  39.0647770  33.2291460  44.0422770  37.8618750  33.1403400  44.9571650
  46.5236840  18.9428770  53.0940550  46.0210440  19.6834170  53.4334360
  47.3393500  19.3312770  52.7777340  44.8158850  24.1861950  46.5401910
  43.8748990  24.2012180  46.7149600  45.1302920  23.3997910  46.9862210
  46.8184430  31.3570800  48.2156170  46.9431850  32.1801970  48.6879980
  47.6849990  31.1461530  47.8680320  34.2901960  33.4502010  47.8873300
  35.0264440  32.9017470  48.1581870  34.6742880  34.3158020  47.7479290
  37.4004270  32.6232320  39.7098870  38.1932880  32.9121150  39.2580660
  36.8808620  32.1924490  39.0311350  43.5625240  32.4708240  55.6343700
  44.5146990  32.3866260  55.5843940  43.4153460  33.1349950  56.3077490
  46.4534440  31.8502450  41.1335610  46.1675950  31.4367590  40.3189790
  46.2553990  32.7790160  41.0136130  31.0158050  25.1221540  56.0194930
  31.5197070  24.5428820  56.5911160  30.2765470  25.4061770  56.5571300
  38.0695990  26.5292530  55.5530450  37.3041660  27.0977530  55.4685120
  38.2511950  26.2368740  54.6598680  45.2119340  28.2597860  56.1105470
  45.9528810  28.5973620  55.6072930  44.4492020  28.4289920  55.5575240
  34.9886940  21.8443230  54.8819490  34.4583400  21.3534180  54.2542830
  35.6575010  22.2727430  54.3477420  43.8865000  26.3112690  54.6460680
  44.3006020  26.4657770  55.4951100  42.9516000  26.4367910  54.8086460
  44.3587170  23.6508850  56.6499830  44.9407940  22.8961170  56.5620310
  44.5348940  24.1816290  55.8731310  35.4759240  18.8105600  54.9616780
  35.3816110  18.1926350  54.2367650  34.8956630  19.5371890  54.7346690
  38.2420680  17.3678840  51.9944170  37.7937980  17.3903100  51.1489720
  37.6085880  16.9697860  52.5914470  38.6480230  26.2633170  52.6156610
  39.0668340  27.1065900  52.4432850  37.7288860  26.4005210  52.3863390
  40.9844130  23.9949350  53.9994450  41.1040340  23.3990490  54.7389290
  41.8438130  24.0319040  53.5795750  43.3232030  24.5486540  52.5756960
  42.7967250  25.0729160  51.9722100  43.6663370  25.1813930  53.2066690
  36.4987650  32.5686180  53.7314340  35.9608740  33.2932240  53.4123040
  36.7521610  32.0916520  52.9411680  37.7512900  20.5370700  55.2570270
  38.3412590  20.2286550  55.9448090  36.9333140  20.0650450  55.4130170
  42.5706330  20.1536510  55.4903290  41.8821850  19.4918050  55.4253280
  43.2912350  19.7074780  55.9351750  43.2006730  16.7488140  41.5493550
  43.4809020  15.9056040  41.9052970  42.4272460  16.9811250  42.0632300
  39.3549860  33.8037390  53.9900990  39.2808560  34.7072530  54.2973360
  38.4528700  33.4849290  53.9623060  39.9035190  32.9695900  41.6127350
  40.7985980  33.3080870  41.6346110  39.9352820  32.2475310  40.9851630
  30.7577150  31.1311980  47.2934610  31.0880160  30.2633040  47.0613250
  31.1868150  31.3370500  48.1239570  35.3539070  29.4620990  44.9536580
  35.0534610  29.3385960  45.8540490  35.2476560  28.6029580  44.5452310
  31.2467360  31.9982570  50.0316240  30.8098350  32.1783370  50.8640390
  31.8145040  32.7557190  49.8897960  46.8829540  31.4999570  54.3193550
  46.2831530  31.5592130  53.5757470  47.0123440  30.5604550  54.4490400
  48.1230990  29.2417390  39.6563260  47.2923950  29.3094040  40.1270490
  48.3002820  30.1321510  39.3530120  47.5787450  25.9864870  42.1597460
  48.3406360  26.5561520  42.2657150  47.5941820  25.4192070  42.9305770
  31.0791790  24.5102800  46.3905120  30.4240630  24.2414440  45.7464820
  31.9169740  24.4007280  45.9407100  48.5847420  26.8414970  47.0039390
  48.9556250  26.0582290  46.5975360  49.2249350  27.5304070  46.8256690
  45.5681180  28.2251550  52.4169710  44.7541020  28.6548710  52.6795500
  45.9755380  28.8369960  51.8038760  47.6306620  26.2799240  39.3169980
  47.9055460  27.1878120  39.1889200  47.4417360  26.2161770  40.2531970
  44.0282230  19.3044090  40.6123610  44.4467110  19.1175070  39.7720270
  43.7218290  18.4523140  40.9226540  47.5271960  24.2168230  44.3099410
  47.1515560  23.4496160  43.8780700  46.7975080  24.5990930  44.7974340
  32.1167720  24.8955370  50.9308460  32.4840760  24.8082770  51.8104480
  31.5478540  24.1321920  50.8315320  46.9171580  23.3639750  53.9438930
  46.6857670  23.1352500  53.0436880  47.1776130  24.2839300  53.8983820
  31.6683720  21.8064460  54.8366880  30.7739770  21.7731220  55.1760590
  32.2081270  22.0051250  55.6018130  45.3559650  18.5896180  56.7218630
  46.2329830  18.5979580  57.1052630  45.3680490  17.8527020  56.1110980
  30.2929870  21.7201730  42.3330450  29.3893950  21.9831930  42.1582110
  30.7770490  21.9912900  41.5530410  46.8022920  22.4425720  47.6106650
  47.3260400  21.9488370  46.9796820  47.3882340  22.5776080  48.3554220
  46.9812640  22.5265590  51.1326200  46.0315350  22.4929130  51.2471190
  47.1625650  23.4365700  50.8975970  32.4831240  16.8306600  39.2827480
  33.2059370  17.3715540  39.6008700  32.7555760  16.5570020  38.4069020
  46.2922890  21.6999070  43.5499060  46.7882010  21.4669940  44.3347940
  46.0938960  20.8610910  43.1336700  32.1723430  16.0812790  49.1850100
  32.8199620  15.5310170  48.7445260  32.5925270  16.3355940  50.0065910
  47.7210050  20.3360020  46.0836740  47.6109330  20.1816060  47.0219010
  48.4817640  19.8080960  45.8412150  46.0675770  16.2754150  52.5419740
  46.7047990  16.8888290  52.9078930  46.2150660  16.3114810  51.5968970
  48.6100320  18.1667940  39.3242880  49.5349630  18.0349120  39.1161170
  48.5876110  18.2460760  40.2779330  48.6838810  18.9378600  41.9499590
  47.8890310  18.8723720  42.4792500  48.8882090  19.8729240  41.9384940
  45.6257230  32.9770150  45.9437980  46.2216300  32.6554720  45.2672400
  45.8835380  32.5041970  46.7351250  31.9255430  16.2368460  51.9275420
  31.5770250  16.6932280  52.6933600  31.5943130  15.3425590  52.0097850
  33.5319800  29.4088060  56.0928610  33.4889430  29.0380970  56.9743070
  33.6630810  30.3465630  56.2330430  37.2325830  30.9647650  51.6938330
  36.9917190  31.2322210  50.8068850  38.1728470  31.1353380  51.7489190
  39.4380250  17.4280340  55.4494840  39.3769140  18.0202170  56.1990250
  40.3780630  17.3206300  55.3045100  42.0754810  17.0850400  55.0887130
  42.6895220  17.4029690  54.4268210  42.6204370  16.5998990  55.7082990
  48.4929990  32.9842030  52.4948970  47.9988270  33.3810900  51.7776100
  47.8843280  32.3591240  52.8886250  32.5976070  15.7644660  55.2026190
  33.1459060  15.5832710  54.4392300  32.6631380  14.9738770  55.7382500
  33.3707830  32.3550310  53.2126390  32.7768150  32.2235010  53.9516430
  33.3631670  31.5188450  52.7468490  42.8162850  15.6482540  51.4156420
  41.9422690  15.9817650  51.2129350  42.7073600  15.1755720  52.2408290
  43.7234830  17.8553410  52.7998140  43.3948190  17.0405170  52.4199870
  44.6717130  17.8123220  52.6763830  46.1769440  33.6265450  49.7735710
  45.7172410  34.3781260  49.3993730  45.5481900  32.9071920  49.7150510
  33.0020060  29.7208690  52.1634430  32.2754120  29.1013980  52.0960380
  33.0629210  30.1149300  51.2932510  36.6065160  31.9353690  48.9483840
  37.1230180  31.3241050  48.4232100  37.2562540  32.4382470  49.4394850
  39.3460660  32.8262180  49.7752820  39.6338470  32.5716480  48.8985830
  39.8583880  32.2739540  50.3658390  40.5637670  16.5652380  50.3549330
  39.7809460  17.0397880  50.6346090  40.2700600  15.6607210  50.2462510
  45.1158740  17.2675480  48.3998420  45.5566830  17.2120580  47.5520020
  44.8466330  18.1833490  48.4708600  46.9797310  16.8990720  46.4107240
  46.9185710  15.9551940  46.2638260  47.7589340  17.0070810  46.9560700
  31.9078080  16.8699860  42.8763050  32.6657440  16.9828740  42.3027080
  31.4455250  17.7069060  42.8306480  38.4491890  18.9839130  45.8665360
  37.6366400  18.6096020  45.5261240  38.9533530  18.2284210  46.1686550
  42.9516870  15.6481580  47.1048430  43.5546240  16.2201790  47.5796950
  42.2109860  16.2121020  46.8822330  46.0951470  16.0503140  42.3788710
  46.2902100  16.9486590  42.6456140  45.3081340  15.8190220  42.8721660
  34.2803230  17.3963910  41.4165020  34.8095990  16.6093710  41.2872970
  34.9131550  18.0755100  41.6500550  36.4741070  17.1339050  44.4710410
  35.8443810  16.4326360  44.6380540  35.9346210  17.8943180  44.2543570
  39.4133020  33.7478280  57.1421020  40.3400330  33.5122550  57.1856980
  39.3983450  34.5750280  56.6607050  47.6478080  33.2903850  44.1395270
  47.8230270  32.6041590  43.4956190  46.9499650  33.8150900  43.7471940
  36.5996630  16.4123030  56.9062900  36.3180900  16.9156630  56.1423720
  36.9816330  15.6144780  56.5405030  35.4905730  33.6798690  41.6930580
  36.2224550  33.3957970  41.1454470  35.7499400  33.4411970  42.5829960
  32.6646060  20.8969800  24.3905530  31.7762760  21.2385770  24.2885410
  32.9487250  20.6970120  23.4986360  44.4926560  18.6026110  26.8954810
  45.3136180  18.1122680  26.9380290  44.5260640  19.1923770  27.6486650
  48.7826110  20.6192860  33.4598440  48.0778280  21.0074570  32.9413550
  49.0484030  21.3143150  34.0619370  41.3522370  27.2005540  25.5222410
  40.7339640  27.6654990  24.9585130  41.8645620  27.8933020  25.9391920
  44.7288040  20.5426490  29.6682350  44.0243610  20.8311380  30.2485460
  45.0900200  21.3526600  29.3081910  30.7205570  27.8862070  22.8962040
  30.3433550  28.3749170  22.1646940  30.9778640  28.5587350  23.5268570
  47.7974960  19.9881280  30.0591560  46.8499870  20.0220260  30.1906990
  48.1224950  20.8020230  30.4440920  45.1754980  28.7261970  25.7345180
  45.0651310  27.7836300  25.8594600  45.1723230  29.0877610  26.6207940
  40.7175260  24.3527290  25.0907670  39.7904540  24.2864670  25.3196140
  40.8700080  25.2907420  24.9762910  40.7044340  20.6244290  22.0874830
  39.7648010  20.7858250  22.1727290  41.0227600  21.3429970  21.5410820
  44.7472550  25.9147590  25.5942920  44.1284970  25.5767140  24.9469220
  44.7297000  25.2707350  26.3022110  42.9237250  25.1534400  22.6015670
  43.3630530  24.3156830  22.4553490  43.6365670  25.7863800  22.6879810
  46.5054390  16.4077210  20.9156710  46.1927050  16.5004040  21.8155780
  47.2666860  16.9858240  20.8654140  48.4598420  31.9003400  38.7681100
  48.9358140  32.3786290  39.4470180  49.0805580  31.8320890  38.0426600
  47.8631670  29.0916250  35.9281110  47.9894730  28.8528130  35.0098290
  47.9053050  28.2600790  36.4003190  43.7002810  33.0799590  23.9259920
  43.5403950  32.7902530  24.8241750  43.5349520  32.3039720  23.3905150
  43.4028940  30.5887150  22.4857920  42.7094100  30.5864440  21.8260200
  44.1451800  30.1646470  22.0552090  47.7155680  21.1448710  36.8930850
  47.0999950  21.6528380  36.3646310  47.3952100  20.2447040  36.8356790
  30.3411440  21.4153480  20.5465820  30.2586110  22.3584240  20.6880810
  29.9894500  21.2728390  19.6678170  38.2029720  21.1504590  22.6042930
  38.3242540  21.1091070  23.5528750  37.8178230  22.0128740  22.4489660
  42.1658090  18.9271990  30.6206620  42.1830830  19.3780640  31.4648470
  41.9173670  18.0277630  30.8340060  37.2151220  23.4605730  22.0026230
  36.6468120  23.0123980  21.3762140  37.9240220  23.8198510  21.4691380
  45.5928840  16.3404170  36.4593000  45.9174610  15.6093830  36.9850980
  45.6285350  16.0217810  35.5573990  34.7598700  27.4563920  24.2752640
  33.9860960  26.9161540  24.1151360  35.4893330  26.9370530  23.9370400
  40.9796620  17.8467240  24.2108420  40.1661230  17.3480410  24.1353730
  40.7858570  18.6865490  23.7944770  43.6945010  22.2186890  22.5070580
  44.5824630  22.5304120  22.3321920  43.6650100  21.3459140  22.1151160
  39.6905600  28.3910580  23.1858750  40.0321300  29.1352810  22.6902070
  38.8618310  28.7041700  23.5483580  45.9659280  23.5298730  21.9750440
  45.8823000  23.9612950  21.1246880  46.6853470  23.9897080  22.4077260
  47.0433420  25.9866250  35.0520410  46.3181610  26.5795030  34.8549800
  47.5708880  25.9789790  34.2533780  46.9946530  30.3840990  24.7032570
  46.3522690  29.7296610  24.9776290  46.6077190  30.7896080  23.9273240
  38.6596290  28.4724110  25.9574670  39.3467420  29.0193320  26.3382260
  37.8728710  29.0164840  25.9924280  30.7988690  24.0896930  21.4491750
  31.6683540  24.3721730  21.7327670  30.3079010  24.9032800  21.3340560
  45.3843910  29.2757450  21.2408920  45.1581490  28.5587890  21.8333560
  44.9940110  29.0269890  20.4030670  31.1659940  33.3024310  22.0153380
  31.5257580  33.9013650  21.3610650  31.0252280  33.8484200  22.7888410
  30.8629210  17.5798910  35.5029250  30.1487730  17.7795830  36.1081860
  31.2824250  16.8038480  35.8744050  44.9660160  27.1929390  22.9023080
  44.6781860  27.6542080  23.6900960  45.7612330  26.7327160  23.1707300
  37.1828560  30.6855510  22.8327050  37.1738660  31.4185200  22.2171560
  36.2626920  30.4387090  22.9254010  32.7835200  25.9070400  23.5773810
  32.1763150  26.6469300  23.5869110  33.2584550  25.9969760  22.7512010
  45.7230020  19.0278160  24.0618260  45.0943180  19.1323830  23.3476490
  45.2281940  19.2474940  24.8512140  40.1688160  30.7483750  21.4952240
  40.2700140  30.5447740  20.5654220  39.2689900  30.4942030  21.7000020
  35.8949070  19.6149190  22.8526850  36.7439600  20.0519340  22.7867040
  35.5280340  19.9269450  23.6798910  46.5236840  18.9428770  34.3197060
  46.0210440  19.6834170  34.6590870  47.3393500  19.3312770  34.0033850
  44.8158850  24.1861950  27.7658420  43.8748990  24.2012180  27.9406110
  45.1302920  23.3997910  28.2118720  34.7940490  25.8681550  21.3262380
  35.5603760  25.7562910  21.8887810  34.8715180  25.1719520  20.6739150
  33.4887250  23.3006620  22.0095270  33.5690840  22.3534130  22.1212670
  34.3807000  23.6313500  22.1155930  46.8184430  31.3570800  29.4412680
  46.9431850  32.1801970  29.9136490  47.6849990  31.1461530  29.0936830
  37.4004270  32.6232320  20.9355380  38.1932880  32.9121150  20.4837170
  36.8808620  32.1924490  20.2567860  43.5625240  32.4708240  36.8600210
  44.5146990  32.3866260  36.8100450  43.4153460  33.1349950  37.5334000
  46.4534440  31.8502450  22.3592120  46.1675950  31.4367590  21.5446300
  46.2553990  32.7790160  22.2392640  37.9181670  27.8435730  20.7997730
  37.8132310  27.2288080  21.5259110  37.7505890  27.3201620  20.0160740
  41.1584400  26.9055760  21.4039720  40.6094500  27.3525060  22.0482460
  41.7803660  26.4005010  21.9277390  45.2119340  28.2597860  37.3361980
  45.9528810  28.5973620  36.8329440  44.4492020  28.4289920  36.7831750
  36.8259520  25.8646680  23.3005020  37.2475940  25.6986550  24.1436410
  36.9510360  25.0546910  22.8060160  39.3387160  24.8884290  20.5482120
  39.8592820  24.1733310  20.1823270  39.9855560  25.5270160  20.8482630
  44.3587170  23.6508850  37.8756340  44.9407940  22.8961170  37.7876820
  44.5348940  24.1816290  37.0987820  35.7218420  21.9379910  20.2463180
  35.5207480  21.0747270  20.6076520  35.5510470  21.8513270  19.3084780
  42.5706330  20.1536510  36.7159800  41.8821850  19.4918050  36.6509790
  43.2912350  19.7074780  37.1608260  43.2006730  16.7488140  22.7750060
  43.4809020  15.9056040  23.1309480  42.4272460  16.9811250  23.2888810
  34.5201220  19.0380530  20.2341060  34.8227120  19.0447960  19.3260210
  35.2595810  18.6878390  20.7308720  37.7386150  17.9815150  21.2197260
  37.3908150  17.3039140  20.6399710  37.9398920  17.5204660  22.0340650
  39.9035190  32.9695900  22.8383860  40.7985980  33.3080870  22.8602620
  39.9352820  32.2475310  22.2108140  33.5431350  28.3422950  21.0670860
  33.9806220  28.8852620  21.7228440  34.0279080  27.5169900  21.0767200
  35.3539070  29.4620990  26.1793090  35.0534610  29.3385960  27.0797000
  35.2476560  28.6029580  25.7708820  46.8829540  31.4999570  35.5450060
  46.2831530  31.5592130  34.8013980  47.0123440  30.5604550  35.6746910
  48.1230990  29.2417390  20.8819770  47.2923950  29.3094040  21.3527000
  48.3002820  30.1321510  20.5786630  47.5787450  25.9864870  23.3853970
  48.3406360  26.5561520  23.4913660  47.5941820  25.4192070  24.1562280
  48.5847420  26.8414970  28.2295900  48.9556250  26.0582290  27.8231870
  49.2249350  27.5304070  28.0513200  47.6306620  26.2799240  20.5426490
  47.9055460  27.1878120  20.4145710  47.4417360  26.2161770  21.4788480
  44.0282230  19.3044090  21.8380120  44.4467110  19.1175070  20.9976780
  43.7218290  18.4523140  22.1483050  47.5271960  24.2168230  25.5355920
  47.1515560  23.4496160  25.1037210  46.7975080  24.5990930  26.0230850
  45.3559650  18.5896180  37.9475140  46.2329830  18.5979580  38.3309140
  45.3680490  17.8527020  37.3367490  30.2929870  21.7201730  23.5586960
  29.3893950  21.9831930  23.3838620  30.7770490  21.9912900  22.7786920
  46.8022920  22.4425720  28.8363160  47.3260400  21.9488370  28.2053330
  47.3882340  22.5776080  29.5810730  32.8357080  20.7767270  21.4681340
  33.5448780  20.3550490  20.9828620  32.1197020  20.8442500  20.8364690
  32.4831240  16.8306600  20.5083990  33.2059370  17.3715540  20.8265210
  32.7555760  16.5570020  19.6325530  46.2922890  21.6999070  24.7755570
  46.7882010  21.4669940  25.5604450  46.0938960  20.8610910  24.3593210
  47.7210050  20.3360020  27.3093250  47.6109330  20.1816060  28.2475520
  48.4817640  19.8080960  27.0668660  46.0675770  16.2754150  33.7676250
  46.7047990  16.8888290  34.1335440  46.2150660  16.3114810  32.8225480
  48.6100320  18.1667940  20.5499390  49.5349630  18.0349120  20.3417680
  48.5876110  18.2460760  21.5035840  48.6838810  18.9378600  23.1756100
  47.8890310  18.8723720  23.7049010  48.8882090  19.8729240  23.1641450
  42.0754810  17.0850400  36.3143640  42.6895220  17.4029690  35.6524720
  42.6204370  16.5998990  36.9339500  48.4929990  32.9842030  33.7205480
  47.9988270  33.3810900  33.0032610  47.8843280  32.3591240  34.1142760
  32.5976070  15.7644660  36.4282700  33.1459060  15.5832710  35.6648810
  32.6631380  14.9738770  36.9639010  42.8162850  15.6482540  32.6412930
  41.9422690  15.9817650  32.4385860  42.7073600  15.1755720  33.4664800
  43.7234830  17.8553410  34.0254650  43.3948190  17.0405170  33.6456380
  44.6717130  17.8123220  33.9020340  40.5637670  16.5652380  31.5805840
  39.7809460  17.0397880  31.8602600  40.2700600  15.6607210  31.4719020
  45.1158740  17.2675480  29.6254930  45.5566830  17.2120580  28.7776530
  44.8466330  18.1833490  29.6965110  46.9797310  16.8990720  27.6363750
  46.9185710  15.9551940  27.4894770  47.7589340  17.0070810  28.1817210
  31.2850060  33.0383080  26.5987700  31.1172100  32.4053760  27.2969590
  30.4184570  33.2442480  26.2481890  31.9078080  16.8699860  24.1019560
  32.6657440  16.9828740  23.5283590  31.4455250  17.7069060  24.0562990
  42.9516870  15.6481580  28.3304940  43.5546240  16.2201790  28.8053460
  42.2109860  16.2121020  28.1078840  46.0951470  16.0503140  23.6045220
  46.2902100  16.9486590  23.8712650  45.3081340  15.8190220  24.0978170
  32.8912760  31.7316310  24.0437840  32.3660380  32.1124340  23.3399800
  32.8157340  32.3567080  24.7647550  34.2803230  17.3963910  22.6421530
  34.8095990  16.6093710  22.5129480  34.9131550  18.0755100  22.8757060
  39.4133020  33.7478280  38.3677530  40.3400330  33.5122550  38.4113490
  39.3983450  34.5750280  37.8863560  47.6478080  33.2903850  25.3651780
  47.8230270  32.6041590  24.7212700  46.9499650  33.8150900  24.9728450
  35.4905730  33.6798690  22.9187090  36.2224550  33.3957970  22.3710980
  35.7499400  33.4411970  23.8086470  34.6520520  29.7963420  22.9233420
  34.0229400  30.2648520  23.4719250  34.7668350  28.9512640  23.3579610
  43.2012090  15.8276610  38.7099880  43.0877540  16.1471220  39.6051400
  44.0181830  16.2289120  38.4137160  45.9810580  32.9748140  38.1918570
  46.7735900  32.4797370  37.9844530  46.2743730  33.6538280  38.7994180
  42.1070240  23.8469080   9.0734620  42.0264290  22.9323690   8.8026330
  41.6934660  24.3436150   8.3674330  40.2388280  25.6248100  10.9543890
  39.4630380  25.1448540  11.2442460  40.8901210  24.9453750  10.7800050
  34.2554110  25.9367910  11.8319650  33.4238990  25.6816620  12.2316160
  34.8635090  26.0078680  12.5677570  44.2595710  30.0308290   9.7343020
  43.7977240  29.2595530  10.0630190  45.0721260  30.0574360  10.2395470
  34.2355370  29.9708000  12.0277670  34.5383410  29.0805740  11.8487890
  34.9798960  30.5278220  11.7999920  32.6646060  20.8969800   5.6162040
  31.7762760  21.2385770   5.5141920  32.9487250  20.6970120   4.7242870
  30.6279070  23.4975450  11.5001740  31.1995180  22.7297650  11.5005380
  30.6280610  23.7964210  10.5908350  40.4859020  32.3166300   9.3547010
  39.8670460  32.7723800   8.7841450  41.3410800  32.4717760   8.9536710
  39.6797270  28.3005290  10.9614050  39.6105550  27.3595230  10.8003180
  40.4417130  28.3906700  11.5336620  31.8703940  18.9059810  13.2870670
  31.6906780  18.0085560  13.5673430  31.4684020  19.4531680  13.9617620
  40.7102440  21.1075670  11.1882980  41.0867260  20.2347550  11.0756650
  40.6121950  21.4434370  10.2973420  34.8407450  19.4801300   6.6500420
  34.9474200  20.3805030   6.9569180  33.9299810  19.4319270   6.3595070
  44.4926560  18.6026110   8.1211320  45.3136180  18.1122680   8.1636800
  44.5260640  19.1923770   8.8743160  32.4890610  21.4020310  11.8953010
  33.1700720  21.6658680  12.5140410  32.1738660  20.5621180  12.2291020
  36.6815180  22.4487670  10.9825600  37.1893400  22.9468640  11.6230620
  37.2128420  21.6722870  10.8064960  48.7826110  20.6192860  14.6854950
  48.0778280  21.0074570  14.1670060  49.0484030  21.3143150  15.2875880
  34.9651280  17.0886230  15.2489020  34.9669720  17.6058620  14.4434920
  34.1355590  16.6116410  15.2258950  41.3522370  27.2005540   6.7478920
  40.7339640  27.6654990   6.1841640  41.8645620  27.8933020   7.1648430
  36.2154130  26.7281410  13.4262520  35.8823510  27.3550330  14.0683590
  36.3920810  27.2543290  12.6464190  44.7288040  20.5426490  10.8938860
  44.0243610  20.8311380  11.4741970  45.0900200  21.3526600  10.5338420
  34.6466610  18.7996190  13.2559470  34.9883420  19.6438240  12.9613340
  33.7082420  18.9479930  13.3724810  30.7205570  27.8862070   4.1218550
  30.3433550  28.3749170   3.3903450  30.9778640  28.5587350   4.7525080
  46.3450820  30.1601620  13.1566340  45.6614340  30.8300730  13.1483010
  46.8845110  30.3582270  12.3911200  47.7974960  19.9881280  11.2848070
  46.8499870  20.0220260  11.4163500  48.1224950  20.8020230  11.6697430
  38.3294500  16.2878460   9.5804060  38.6369480  15.7325350   8.8639560
  37.3995200  16.4222920   9.3977050  43.8809560  32.0045750  11.8711520
  43.8936720  31.6008040  11.0033780  43.3284780  32.7793040  11.7672950
  45.1754980  28.7261970   6.9601690  45.0651310  27.7836300   7.0851110
  45.1723230  29.0877610   7.8464450  43.2795000  26.9075590  13.1994130
  43.6963790  26.6935700  12.3647590  44.0034820  27.1648380  13.7702750
  40.7175260  24.3527290   6.3164180  39.7904540  24.2864670   6.5452650
  40.8700080  25.2907420   6.2019420  40.7044340  20.6244290   3.3131340
  39.7648010  20.7858250   3.3983800  41.0227600  21.3429970   2.7667330
  47.2257100  25.3062810  13.2910370  46.3975730  25.3755900  12.8160500
  47.8207580  25.8917120  12.8226200  44.7472550  25.9147590   6.8199430
  44.1284970  25.5767140   6.1725730  44.7297000  25.2707350   7.5278620
  44.1899110  22.0932130  14.2365240  43.7770290  22.9185840  14.4905230
  43.4575060  21.5077170  14.0441600  36.3231900  24.8792030   9.0983910
  35.9188900  24.1669280   8.6029810  36.4095020  24.5345270   9.9871950
  36.7913600  28.5659590  11.2623120  36.4941890  27.9605060  10.5830900
  37.7413420  28.6036900  11.1512480  35.0360520  21.6535240  12.8782950
  35.5875110  21.7630580  12.1036200  35.5504030  22.0272840  13.5938180
  44.8799210  32.1391460  14.9246220  44.4029770  32.9463650  14.7318830
  44.1961000  31.4869790  15.0772430  35.8832030  28.3041280  17.9130920
  34.9860560  28.5281250  18.1604320  35.9084900  28.4276220  16.9642320
  42.9237250  25.1534400   3.8272180  43.3630530  24.3156830   3.6810000
  43.6365670  25.7863800   3.9136320  34.7103250  25.1754600  16.4888290
  34.5711020  26.0477400  16.8575690  33.8284610  24.8327410  16.3436230
  41.0332630  30.0930470   7.7953420  41.4728540  30.8354800   7.3808810
  40.9719520  30.3357040   8.7192380  36.5083600  31.1176300  18.6973440
  36.4799030  31.5219250  17.8301870  36.3448570  30.1886660  18.5345040
  46.5054390  16.4077210   2.1413220  46.1927050  16.5004040   3.0412290
  47.2666860  16.9858240   2.0910650  33.0236530  23.7737010   6.5990560
  32.9034130  24.4999100   5.9871830  32.7137420  23.0039920   6.1218470
  48.4598420  31.9003400  19.9937610  48.9358140  32.3786290  20.6726690
  49.0805580  31.8320890  19.2683110  30.6621900  26.9452150  12.4059200
  30.7402320  27.0800920  11.4614920  31.2763580  26.2368040  12.5987320
  31.9069530  28.6452340   8.8165380  31.4997610  28.7866930   7.9618980
  32.7982540  28.3612500   8.6136590  47.8631670  29.0916250  17.1537620
  47.9894730  28.8528130  16.2354800  47.9053050  28.2600790  17.6259700
  41.7248410  32.7944250  15.7232430  42.2393080  32.7052260  16.5254860
  40.8817490  33.1403950  16.0160340  43.7002810  33.0799590   5.1516430
  43.5403950  32.7902530   6.0498260  43.5349520  32.3039720   4.6161660
  36.1791190  32.8598120   6.9288050  36.0033670  31.9433660   6.7155850
  35.3246930  33.2185410   7.1685850  43.4028940  30.5887150   3.7114430
  42.7094100  30.5864440   3.0516710  44.1451800  30.1646470   3.2808600
  42.9678870  32.2149860   7.7862920  43.4235820  31.4339240   8.1001540
  43.3071390  32.9256680   8.3304100  47.7155680  21.1448710  18.1187360
  47.0999950  21.6528380  17.5902820  47.3952100  20.2447040  18.0613300
  35.4900190  17.1172080   9.9814230  35.0468340  17.8981620   9.6498750
  36.0485180  17.4401970  10.6885170  39.7770000  19.9840600  15.5849550
  39.3149370  20.1923620  16.3969490  39.3748110  19.1699950  15.2820220
  44.7774510  21.2049550  16.7146210  43.9268100  20.9055300  17.0355280
  44.6176300  21.4491560  15.8030030  41.8724220  22.7051300  18.8145000
  42.1977630  21.8715050  18.4747230  42.6604550  23.2279820  18.9623330
  38.6059010  16.7382780   4.8620060  37.9813190  16.7342650   5.5873370
  38.5189130  15.8713740   4.4656030  37.5276090  17.6619410  11.8403830
  37.8248420  18.5682240  11.7595850  38.0761650  17.1738190  11.2263400
  35.2814410  22.2405650   7.7095480  35.0555330  22.0242820   8.6142100
  34.5006940  22.6734110   7.3641450  42.5112170  22.2469020   6.3086130
  41.9121060  22.9704820   6.1249750  43.0591780  22.1845800   5.5262580
  37.7213620  23.1391230  18.3755750  37.6257220  22.1985960  18.2256150
  38.5645600  23.3606300  17.9803820  41.1177040  20.8832560   8.3389410
  41.5106610  21.2004760   7.5258100  41.4793890  20.0044440   8.4533930
  32.8524160  19.5504900  16.5289530  32.4587550  20.3980110  16.7362310
  32.1642560  18.9131270  16.7198170  39.4269210  19.6339870  19.5986270
  38.7367530  19.4412070  20.2332360  40.1701510  19.9174510  20.1310570
  30.1541210  17.4733360  10.5619610  29.8654260  18.0436220  11.2744590
  30.8986970  16.9937810  10.9250840  41.7032180  23.4738310  12.4340190
  40.9713300  23.9825120  12.7830290  41.3056520  22.6568290  12.1328970
  38.1409570  20.1492510  10.8392680  38.1445630  19.7082460   9.9897220
  39.0360690  20.4709840  10.9464500  33.9911950  20.0319000   9.7986890
  33.6512000  20.5094230  10.5553940  33.2289270  19.5784120   9.4387990
  38.2029720  21.1504590   3.8299440  38.3242540  21.1091070   4.7785260
  37.8178230  22.0128740   3.6746170  42.1658090  18.9271990  11.8463130
  42.1830830  19.3780640  12.6904980  41.9173670  18.0277630  12.0596570
  37.2151220  23.4605730   3.2282740  36.6468120  23.0123980   2.6018650
  37.9240220  23.8198510   2.6947890  45.5928840  16.3404170  17.6849510
  45.9174610  15.6093830  18.2107490  45.6285350  16.0217810  16.7830500
  32.2920400  27.3617750  17.1049470  31.9075190  26.7211420  17.7032430
  32.6032590  28.0653870  17.6744200  38.4417540  24.2094290  12.5858090
  38.8087670  23.7352860  13.3319430  38.2522600  25.0835860  12.9266430
  31.3058030  18.9537980   8.7151560  31.0204950  18.5893650   9.5530180
  31.2436890  18.2218440   8.1014700  36.2316910  23.2502930  14.9042300
  35.9273980  24.1294910  15.1292660  37.1863370  23.3102720  14.9399740
  34.7598700  27.4563920   5.5009150  33.9860960  26.9161540   5.3407870
  35.4893330  26.9370530   5.1626910  45.5186680  26.4529280  11.2935540
  46.2385800  26.9484570  10.9031650  45.3168500  25.7747170  10.6489410
  40.9796620  17.8467240   5.4364930  40.1661230  17.3480410   5.3610240
  40.7858570  18.6865490   5.0201280  40.9005480  26.5238340  17.1804540
  40.8342790  25.6034010  16.9262130  40.2710620  26.6213780  17.8949180
  43.6945010  22.2186890   3.7327090  44.5824630  22.5304120   3.5578430
  43.6650100  21.3459140   3.3407670  34.8036100  27.1244300   9.1387960
  35.3214770  26.3212560   9.0844850  34.3520120  27.0623440   9.9804790
  39.6905600  28.3910580   4.4115260  40.0321300  29.1352810   3.9158580
  38.8618310  28.7041700   4.7740090  32.2880640  24.0905670  16.0513660
  31.9295580  24.7559520  16.6387000  31.9935200  23.2589220  16.4226280
  35.4893760  24.5489910  18.9353210  35.1893900  24.6947090  18.0381030
  36.2605000  23.9895200  18.8426600  40.8322210  29.3458910  16.9308340
  40.8466750  28.4139870  16.7127250  40.1247310  29.4318670  17.5698110
  45.9659280  23.5298730   3.2006950  45.8823000  23.9612950   2.3503390
  46.6853470  23.9897080   3.6333770  47.0433420  25.9866250  16.2776920
  46.3181610  26.5795030  16.0806310  47.5708880  25.9789790  15.4790290
  46.9946530  30.3840990   5.9289080  46.3522690  29.7296610   6.2032800
  46.6077190  30.7896080   5.1529750  42.5733010  27.7126420   9.7760770
  42.9256830  27.1154550   9.1162140  41.6895340  27.3870650   9.9469020
  38.6596290  28.4724110   7.1831180  39.3467420  29.0193320   7.5638770
  37.8728710  29.0164840   7.2180790  30.7988690  24.0896930   2.6748260
  31.6683540  24.3721730   2.9584180  30.3079010  24.9032800   2.5597070
  37.9623500  25.4770140   6.7956540  38.4186280  26.2875390   7.0216730
  37.6111710  25.1593280   7.6275030  40.2656110  30.9876480  14.0248840
  40.9098330  31.1935860  14.7022260  40.6285550  30.2264880  13.5719690
  33.8635280  15.8207790   7.2679060  33.7349910  15.8125690   8.2163980
  33.0397300  16.1590880   6.9170070  41.5388190  28.9908830  12.7426290
  42.1810420  28.2901990  12.8558460  42.0637540  29.7707270  12.5623180
  43.3125810  29.7903730  15.9462350  43.6482050  30.3770420  16.6240270
  42.3926150  29.6596440  16.1760140  31.1659940  33.3024310   3.2409890
  31.5257580  33.9013650   2.5867160  31.0252280  33.8484200   4.0144920
  30.8629210  17.5798910  16.7285760  30.1487730  17.7795830  17.3338370
  31.2824250  16.8038480  17.1000560  44.9660160  27.1929390   4.1279590
  44.6781860  27.6542080   4.9157470  45.7612330  26.7327160   4.3963810
  39.1414390  29.8395060  19.1150410  38.8211260  29.1204300  19.6596100
  38.4672750  30.5150130  19.1886470  37.1828560  30.6855510   4.0583560
  37.1738660  31.4185200   3.4428070  36.2626920  30.4387090   4.1510520
  32.7835200  25.9070400   4.8030320  32.1763150  26.6469300   4.8125620
  33.2584550  25.9969760   3.9768520  42.3567990  20.0721220  14.4787210
  42.7248810  19.2516430  14.8066780  41.4966190  20.1323110  14.8942860
  45.7230020  19.0278160   5.2874770  45.0943180  19.1323830   4.5733000
  45.2281940  19.2474940   6.0768650  40.1688160  30.7483750   2.7208750
  40.2700140  30.5447740   1.7910730  39.2689900  30.4942030   2.9256530
  37.6914050  21.3064110   6.7032650  36.9830200  21.7750450   7.1446260
  37.9758530  20.6486120   7.3377840  39.3169980  22.7260810  14.7025180
  39.8155230  23.2006630  15.3677030  39.4592930  21.8024330  14.9095210
  41.7229480  18.0314770   8.1428440  41.5997260  18.0500900   7.1937950
  42.6714040  18.0793710   8.2626840  38.8106270  33.2670070   7.4156420
  39.0647770  33.2291460   6.4935790  37.8618750  33.1403400   7.4084670
  35.8949070  19.6149190   4.0783360  36.7439600  20.0519340   4.0123550
  35.5280340  19.9269450   4.9055420  46.5236840  18.9428770  15.5453570
  46.0210440  19.6834170  15.8847380  47.3393500  19.3312770  15.2290360
  44.8158850  24.1861950   8.9914930  43.8748990  24.2012180   9.1662620
  45.1302920  23.3997910   9.4375230  34.7940490  25.8681550   2.5518890
  35.5603760  25.7562910   3.1144320  34.8715180  25.1719520   1.8995660
  33.4887250  23.3006620   3.2351780  33.5690840  22.3534130   3.3469180
  34.3807000  23.6313500   3.3412440  46.8184430  31.3570800  10.6669190
  46.9431850  32.1801970  11.1393000  47.6849990  31.1461530  10.3193340
  34.2901960  33.4502010  10.3386320  35.0264440  32.9017470  10.6094890
  34.6742880  34.3158020  10.1992310  31.1747440  29.5175580   6.2127830
  30.2487220  29.7596720   6.2033240  31.6403870  30.3449840   6.0912580
  33.2960240  32.6348080  19.5271900  34.0972970  32.9560130  19.9407300
  32.7812060  32.2743660  20.2491810  42.1324870  28.7427950  19.4747310
  41.5263030  28.7659550  18.7343060  41.8278980  28.0110990  20.0114560
  43.5625240  32.4708240  18.0856720  44.5146990  32.3866260  18.0356960
  43.4153460  33.1349950  18.7590510  46.4534440  31.8502450   3.5848630
  46.1675950  31.4367590   2.7702810  46.2553990  32.7790160   3.4649150
  31.0158050  25.1221540  18.4707950  31.5197070  24.5428820  19.0424180
  30.2765470  25.4061770  19.0084320  38.0695990  26.5292530  18.0043470
  37.3041660  27.0977530  17.9198140  38.2511950  26.2368740  17.1111700
  41.1584400  26.9055760   2.6296230  40.6094500  27.3525060   3.2738970
  41.7803660  26.4005010   3.1533900  45.2119340  28.2597860  18.5618490
  45.9528810  28.5973620  18.0585950  44.4492020  28.4289920  18.0088260
  33.0481130  23.2651130  19.3658020  33.0886470  22.9665000  20.2743250
  33.9026630  23.6658740  19.2065540  36.8259520  25.8646680   4.5261530
  37.2475940  25.6986550   5.3692920  36.9510360  25.0546910   4.0316670
  34.9886940  21.8443230  17.3332510  34.4583400  21.3534180  16.7055850
  35.6575010  22.2727430  16.7990440  43.8865000  26.3112690  17.0973700
  44.3006020  26.4657770  17.9464120  42.9516000  26.4367910  17.2599480
  44.3587170  23.6508850  19.1012850  44.9407940  22.8961170  19.0133330
  44.5348940  24.1816290  18.3244330  35.4759240  18.8105600  17.4129800
  35.3816110  18.1926350  16.6880670  34.8956630  19.5371890  17.1859710
  38.2420680  17.3678840  14.4457190  37.7937980  17.3903100  13.6002740
  37.6085880  16.9697860  15.0427490  38.6480230  26.2633170  15.0669630
  39.0668340  27.1065900  14.8945870  37.7288860  26.4005210  14.8376410
  40.9844130  23.9949350  16.4507470  41.1040340  23.3990490  17.1902310
  41.8438130  24.0319040  16.0308770  43.3232030  24.5486540  15.0269980
  42.7967250  25.0729160  14.4235120  43.6663370  25.1813930  15.6579710
  37.7512900  20.5370700  17.7083290  38.3412590  20.2286550  18.3961110
  36.9333140  20.0650450  17.8643190  42.5706330  20.1536510  17.9416310
  41.8821850  19.4918050  17.8766300  43.2912350  19.7074780  18.3864770
  43.2006730  16.7488140   4.0006570  43.4809020  15.9056040   4.3565990
  42.4272460  16.9811250   4.5145320  39.3549860  33.8037390  16.4414010
  39.2808560  34.7072530  16.7486380  38.4528700  33.4849290  16.4136080
  37.7386150  17.9815150   2.4453770  37.3908150  17.3039140   1.8656220
  37.9398920  17.5204660   3.2597160  39.9035190  32.9695900   4.0640370
  40.7985980  33.3080870   4.0859130  39.9352820  32.2475310   3.4364650
  33.5431350  28.3422950   2.2927370  33.9806220  28.8852620   2.9484950
  34.0279080  27.5169900   2.3023710  30.7577150  31.1311980   9.7447630
  31.0880160  30.2633040   9.5126270  31.1868150  31.3370500  10.5752590
  35.3539070  29.4620990   7.4049600  35.0534610  29.3385960   8.3053510
  35.2476560  28.6029580   6.9965330  46.8829540  31.4999570  16.7706570
  46.2831530  31.5592130  16.0270490  47.0123440  30.5604550  16.9003420
  48.1230990  29.2417390   2.1076280  47.2923950  29.3094040   2.5783510
  48.3002820  30.1321510   1.8043140  47.5787450  25.9864870   4.6110480
  48.3406360  26.5561520   4.7170170  47.5941820  25.4192070   5.3818790
  31.0791790  24.5102800   8.8418140  30.4240630  24.2414440   8.1977840
  31.9169740  24.4007280   8.3920120  48.5847420  26.8414970   9.4552410
  48.9556250  26.0582290   9.0488380  49.2249350  27.5304070   9.2769710
  45.5681180  28.2251550  14.8682730  44.7541020  28.6548710  15.1308520
  45.9755380  28.8369960  14.2551780  47.6306620  26.2799240   1.7683000
  47.9055460  27.1878120   1.6402220  47.4417360  26.2161770   2.7044990
  44.0282230  19.3044090   3.0636630  44.4467110  19.1175070   2.2233290
  43.7218290  18.4523140   3.3739560  47.5271960  24.2168230   6.7612430
  47.1515560  23.4496160   6.3293720  46.7975080  24.5990930   7.2487360
  32.1167720  24.8955370  13.3821480  32.4840760  24.8082770  14.2617500
  31.5478540  24.1321920  13.2828340  46.9171580  23.3639750  16.3951950
  46.6857670  23.1352500  15.4949900  47.1776130  24.2839300  16.3496840
  31.6683720  21.8064460  17.2879900  30.7739770  21.7731220  17.6273610
  32.2081270  22.0051250  18.0531150  45.3559650  18.5896180  19.1731650
  46.2329830  18.5979580  19.5565650  45.3680490  17.8527020  18.5624000
  30.2929870  21.7201730   4.7843470  29.3893950  21.9831930   4.6095130
  30.7770490  21.9912900   4.0043430  46.8022920  22.4425720  10.0619670
  47.3260400  21.9488370   9.4309840  47.3882340  22.5776080  10.8067240
  46.9812640  22.5265590  13.5839220  46.0315350  22.4929130  13.6984210
  47.1625650  23.4365700  13.3488990  32.8357080  20.7767270   2.6937850
  33.5448780  20.3550490   2.2085130  32.1197020  20.8442500   2.0621200
  46.2922890  21.6999070   6.0012080  46.7882010  21.4669940   6.7860960
  46.0938960  20.8610910   5.5849720  32.1723430  16.0812790  11.6363120
  32.8199620  15.5310170  11.1958280  32.5925270  16.3355940  12.4578930
  47.7210050  20.3360020   8.5349760  47.6109330  20.1816060   9.4732030
  48.4817640  19.8080960   8.2925170  46.0675770  16.2754150  14.9932760
  46.7047990  16.8888290  15.3591950  46.2150660  16.3114810  14.0481990
  48.6838810  18.9378600   4.4012610  47.8890310  18.8723720   4.9305520
  48.8882090  19.8729240   4.3897960  45.6257230  32.9770150   8.3951000
  46.2216300  32.6554720   7.7185420  45.8835380  32.5041970   9.1864270
  31.9255430  16.2368460  14.3788440  31.5770250  16.6932280  15.1446620
  31.5943130  15.3425590  14.4610870  33.5319800  29.4088060  18.5441630
  33.4889430  29.0380970  19.4256090  33.6630810  30.3465630  18.6843450
  39.4380250  17.4280340  17.9007860  39.3769140  18.0202170  18.6503270
  40.3780630  17.3206300  17.7558120  42.0754810  17.0850400  17.5400150
  42.6895220  17.4029690  16.8781230  42.6204370  16.5998990  18.1596010
  48.4929990  32.9842030  14.9461990  47.9988270  33.3810900  14.2289120
  47.8843280  32.3591240  15.3399270  32.5976070  15.7644660  17.6539210
  33.1459060  15.5832710  16.8905320  32.6631380  14.9738770  18.1895520
  42.8162850  15.6482540  13.8669440  41.9422690  15.9817650  13.6642370
  42.7073600  15.1755720  14.6921310  43.7234830  17.8553410  15.2511160
  43.3948190  17.0405170  14.8712890  44.6717130  17.8123220  15.1276850
  46.1769440  33.6265450  12.2248730  45.7172410  34.3781260  11.8506750
  45.5481900  32.9071920  12.1663530  36.6065160  31.9353690  11.3996860
  37.1230180  31.3241050  10.8745120  37.2562540  32.4382470  11.8907870
  39.3460660  32.8262180  12.2265840  39.6338470  32.5716480  11.3498850
  39.8583880  32.2739540  12.8171410  40.5637670  16.5652380  12.8062350
  39.7809460  17.0397880  13.0859110  40.2700600  15.6607210  12.6975530
  45.1158740  17.2675480  10.8511440  45.5566830  17.2120580  10.0033040
  44.8466330  18.1833490  10.9221620  46.9797310  16.8990720   8.8620260
  46.9185710  15.9551940   8.7151280  47.7589340  17.0070810   9.4073720
  31.2850060  33.0383080   7.8244210  31.1172100  32.4053760   8.5226100
  30.4184570  33.2442480   7.4738400  31.9078080  16.8699860   5.3276070
  32.6657440  16.9828740   4.7540100  31.4455250  17.7069060   5.2819500
  38.4491890  18.9839130   8.3178380  37.6366400  18.6096020   7.9774260
  38.9533530  18.2284210   8.6199570  42.9516870  15.6481580   9.5561450
  43.5546240  16.2201790  10.0309970  42.2109860  16.2121020   9.3335350
  46.0951470  16.0503140   4.8301730  46.2902100  16.9486590   5.0969160
  45.3081340  15.8190220   5.3234680  32.8912760  31.7316310   5.2694350
  32.3660380  32.1124340   4.5656310  32.8157340  32.3567080   5.9904060
  34.2803230  17.3963910   3.8678040  34.8095990  16.6093710   3.7385990
  34.9131550  18.0755100   4.1013570  36.4741070  17.1339050   6.9223430
  35.8443810  16.4326360   7.0893560  35.9346210  17.8943180   6.7056590
  39.4133020  33.7478280  19.5934040  40.3400330  33.5122550  19.6370000
  39.3983450  34.5750280  19.1120070  47.6478080  33.2903850   6.5908290
  47.8230270  32.6041590   5.9469210  46.9499650  33.8150900   6.1984960
  36.5996630  16.4123030  19.3575920  36.3180900  16.9156630  18.5936740
  36.9816330  15.6144780  18.9918050  35.4905730  33.6798690   4.1443600
  36.2224550  33.3957970   3.5967490  35.7499400  33.4411970   5.0342980
  34.6520520  29.7963420   4.1489930  34.0229400  30.2648520   4.6975760
  34.7668350  28.9512640   4.5836120  43.2012090  15.8276610  19.9356390
  43.0877540  16.1471220  20.8307910  44.0181830  16.2289120  19.6393670
  45.9810580  32.9748140  19.4175080  46.7735900  32.4797370  19.2101040
  46.2743730  33.6538280  20.0250690  42.1070240   5.0725590  46.6221600
  42.0264290   4.1580200  46.3513310  41.6934660   5.5692660  45.9161310
  40.2388280   6.8504610  48.5030870  39.4630380   6.3705050  48.7929440
  40.8901210   6.1710260  48.3287030  34.2554110   7.1624420  49.3806630
  33.4238990   6.9073130  49.7803140  34.8635090   7.2335190  50.1164550
  44.2595710  11.2564800  47.2830000  43.7977240  10.4852040  47.6117170
  45.0721260  11.2830870  47.7882450  34.2355370  11.1964510  49.5764650
  34.5383410  10.3062250  49.3974870  34.9798960  11.7534730  49.3486900
  32.6646060   2.1226310  43.1649020  31.7762760   2.4642280  43.0628900
  32.9487250   1.9226630  42.2729850  30.6279070   4.7231960  49.0488720
  31.1995180   3.9554160  49.0492360  30.6280610   5.0220720  48.1395330
  40.4859020  13.5422810  46.9033990  39.8670460  13.9980310  46.3328430
  41.3410800  13.6974270  46.5023690  39.6797270   9.5261800  48.5101030
  39.6105550   8.5851740  48.3490160  40.4417130   9.6163210  49.0823600
  40.7102440   2.3332180  48.7369960  41.0867260   1.4604060  48.6243630
  40.6121950   2.6690880  47.8460400  32.4890610   2.6276820  49.4439990
  33.1700720   2.8915190  50.0627390  32.1738660   1.7877690  49.7778000
  36.6815180   3.6744180  48.5312580  37.1893400   4.1725150  49.1717600
  37.2128420   2.8979380  48.3551940  48.7826110   1.8449370  52.2341930
  48.0778280   2.2331080  51.7157040  49.0484030   2.5399660  52.8362860
  41.3522370   8.4262050  44.2965900  40.7339640   8.8911500  43.7328620
  41.8645620   9.1189530  44.7135410  36.2154130   7.9537920  50.9749500
  35.8823510   8.5806840  51.6170570  36.3920810   8.4799800  50.1951170
  44.7288040   1.7683000  48.4425840  44.0243610   2.0567890  49.0228950
  45.0900200   2.5783110  48.0825400  35.4273230   9.9218720  52.7898680
  36.0447230  10.5969800  52.5083130  34.5666350  10.3306700  52.6986180
  30.7205570   9.1118580  41.6705530  30.3433550   9.6005680  40.9390430
  30.9778640   9.7843860  42.3012060  46.3450820  11.3858130  50.7053320
  45.6614340  12.0557240  50.6969990  46.8845110  11.5838780  49.9398180
  43.8809560  13.2302260  49.4198500  43.8936720  12.8264550  48.5520760
  43.3284780  14.0049550  49.3159930  45.1754980   9.9518480  44.5088670
  45.0651310   9.0092810  44.6338090  45.1723230  10.3134120  45.3951430
  43.2795000   8.1332100  50.7481110  43.6963790   7.9192210  49.9134570
  44.0034820   8.3904890  51.3189730  40.7175260   5.5783800  43.8651160
  39.7904540   5.5121180  44.0939630  40.8700080   6.5163930  43.7506400
  40.7044340   1.8500800  40.8618320  39.7648010   2.0114760  40.9470780
  41.0227600   2.5686480  40.3154310  47.2257100   6.5319320  50.8397350
  46.3975730   6.6012410  50.3647480  47.8207580   7.1173630  50.3713180
  44.7472550   7.1404100  44.3686410  44.1284970   6.8023650  43.7212710
  44.7297000   6.4963860  45.0765600  44.1899110   3.3188640  51.7852220
  43.7770290   4.1442350  52.0392210  43.4575060   2.7333680  51.5928580
  36.3231900   6.1048540  46.6470890  35.9188900   5.3925790  46.1516790
  36.4095020   5.7601780  47.5358930  36.7913600   9.7916100  48.8110100
  36.4941890   9.1861570  48.1317880  37.7413420   9.8293410  48.6999460
  35.0360520   2.8791750  50.4269930  35.5875110   2.9887090  49.6523180
  35.5504030   3.2529350  51.1425160  44.8799210  13.3647970  52.4733200
  44.4029770  14.1720160  52.2805810  44.1961000  12.7126300  52.6259410
  35.8832030   9.5297790  55.4617900  34.9860560   9.7537760  55.7091300
  35.9084900   9.6532730  54.5129300  42.9237250   6.3790910  41.3759160
  43.3630530   5.5413340  41.2296980  43.6365670   7.0120310  41.4623300
  34.7103250   6.4011110  54.0375270  34.5711020   7.2733910  54.4062670
  33.8284610   6.0583920  53.8923210  41.0332630  11.3186980  45.3440400
  41.4728540  12.0611310  44.9295790  40.9719520  11.5613550  46.2679360
  36.5083600  12.3432810  56.2460420  36.4799030  12.7475760  55.3788850
  36.3448570  11.4143170  56.0832020  33.0236530   4.9993520  44.1477540
  32.9034130   5.7255610  43.5358810  32.7137420   4.2296430  43.6705450
  30.6621900   8.1708660  49.9546180  30.7402320   8.3057430  49.0101900
  31.2763580   7.4624550  50.1474300  31.9069530   9.8708850  46.3652360
  31.4997610  10.0123440  45.5105960  32.7982540   9.5869010  46.1623570
  47.8631670  10.3172760  54.7024600  47.9894730  10.0784640  53.7841780
  47.9053050   9.4857300  55.1746680  41.7248410  14.0200760  53.2719410
  42.2393080  13.9308770  54.0741840  40.8817490  14.3660460  53.5647320
  43.7002810  14.3056100  42.7003410  43.5403950  14.0159040  43.5985240
  43.5349520  13.5296230  42.1648640  36.1791190  14.0854630  44.4775030
  36.0033670  13.1690170  44.2642830  35.3246930  14.4441920  44.7172830
  43.4028940  11.8143660  41.2601410  42.7094100  11.8120950  40.6003690
  44.1451800  11.3902980  40.8295580  42.9678870  13.4406370  45.3349900
  43.4235820  12.6595750  45.6488520  43.3071390  14.1513190  45.8791080
  47.7155680   2.3705220  55.6674340  47.0999950   2.8784890  55.1389800
  47.3952100   1.4703550  55.6100280  30.7181420   9.2122830  52.4940640
  30.8812460   8.7428190  51.6760010  31.1833870   8.7046390  53.1589480
  44.7774510   2.4306060  54.2633190  43.9268100   2.1311810  54.5842260
  44.6176300   2.6748070  53.3517010  41.8724220   3.9307810  56.3631980
  42.1977630   3.0971560  56.0234210  42.6604550   4.4536330  56.5110310
  35.2814410   3.4662160  45.2582460  35.0555330   3.2499330  46.1629080
  34.5006940   3.8990620  44.9128430  42.5112170   3.4725530  43.8573110
  41.9121060   4.1961330  43.6736730  43.0591780   3.4102310  43.0749560
  37.7213620   4.3647740  55.9242730  37.6257220   3.4242470  55.7743130
  38.5645600   4.5862810  55.5290800  30.3411440   2.6409990  39.3209310
  30.2586110   3.5840750  39.4624300  29.9894500   2.4984900  38.4421660
  41.7032180   4.6994820  49.9827170  40.9713300   5.2081630  50.3317270
  41.3056520   3.8824800  49.6815950  38.2029720   2.3761100  41.3786420
  38.3242540   2.3347580  42.3272240  37.8178230   3.2385250  41.2233150
  37.2151220   4.6862240  40.7769720  36.6468120   4.2380490  40.1505630
  37.9240220   5.0455020  40.2434870  32.2920400   8.5874260  54.6536450
  31.9075190   7.9467930  55.2519410  32.6032590   9.2910380  55.2231180
  38.4417540   5.4350800  50.1345070  38.8087670   4.9609370  50.8806410
  38.2522600   6.3092370  50.4753410  36.2316910   4.4759440  52.4529280
  35.9273980   5.3551420  52.6779640  37.1863370   4.5359230  52.4886720
  34.7598700   8.6820430  43.0496130  33.9860960   8.1418050  42.8894850
  35.4893330   8.1627040  42.7113890  45.5186680   7.6785790  48.8422520
  46.2385800   8.1741080  48.4518630  45.3168500   7.0003680  48.1976390
  40.9005480   7.7494850  54.7291520  40.8342790   6.8290520  54.4749110
  40.2710620   7.8470290  55.4436160  43.6945010   3.4443400  41.2814070
  44.5824630   3.7560630  41.1065410  43.6650100   2.5715650  40.8894650
  34.8036100   8.3500810  46.6874940  35.3214770   7.5469070  46.6331830
  34.3520120   8.2879950  47.5291770  39.6905600   9.6167090  41.9602240
  40.0321300  10.3609320  41.4645560  38.8618310   9.9298210  42.3227070
  32.2880640   5.3162180  53.6000640  31.9295580   5.9816030  54.1873980
  31.9935200   4.4845730  53.9713260  35.4893760   5.7746420  56.4840190
  35.1893900   5.9203600  55.5868010  36.2605000   5.2151710  56.3913580
  40.8322210  10.5715420  54.4795320  40.8466750   9.6396380  54.2614230
  40.1247310  10.6575180  55.1185090  45.9659280   4.7555240  40.7493930
  45.8823000   5.1869460  39.8990370  46.6853470   5.2153590  41.1820750
  47.0433420   7.2122760  53.8263900  46.3181610   7.8051540  53.6293290
  47.5708880   7.2046300  53.0277270  46.9946530  11.6097500  43.4776060
  46.3522690  10.9553120  43.7519780  46.6077190  12.0152590  42.7016730
  42.5733010   8.9382930  47.3247750  42.9256830   8.3411060  46.6649120
  41.6895340   8.6127160  47.4956000  38.6596290   9.6980620  44.7318160
  39.3467420  10.2449830  45.1125750  37.8728710  10.2421350  44.7667770
  30.7988690   5.3153440  40.2235240  31.6683540   5.5978240  40.5071160
  30.3079010   6.1289310  40.1084050  37.9623500   6.7026650  44.3443520
  38.4186280   7.5131900  44.5703710  37.6111710   6.3849790  45.1762010
  40.2656110  12.2132990  51.5735820  40.9098330  12.4192370  52.2509240
  40.6285550  11.4521390  51.1206670  41.5388190  10.2165340  50.2913270
  42.1810420   9.5158500  50.4045440  42.0637540  10.9963780  50.1110160
  45.3843910  10.5013960  40.0152410  45.1581490   9.7844400  40.6077050
  44.9940110  10.2526400  39.1774160  43.3125810  11.0160240  53.4949330
  43.6482050  11.6026930  54.1727250  42.3926150  10.8852950  53.7247120
  31.1659940  14.5280820  40.7896870  31.5257580  15.1270160  40.1354140
  31.0252280  15.0740710  41.5631900  44.9660160   8.4185900  41.6766570
  44.6781860   8.8798590  42.4644450  45.7612330   7.9583670  41.9450790
  31.1501800  12.7935680  55.2639270  31.2592920  11.8530420  55.1234660
  30.4982360  13.0590430  54.6153000  39.1414390  11.0651570  56.6637390
  38.8211260  10.3460810  57.2083080  38.4672750  11.7406640  56.7373450
  37.1828560  11.9112020  41.6070540  37.1738660  12.6441710  40.9915050
  36.2626920  11.6643600  41.6997500  32.7835200   7.1326910  42.3517300
  32.1763150   7.8725810  42.3612600  33.2584550   7.2226270  41.5255500
  40.1688160  11.9740260  40.2695730  40.2700140  11.7704250  39.3397710
  39.2689900  11.7198540  40.4743510  37.6914050   2.5320620  44.2519630
  36.9830200   3.0006960  44.6933240  37.9758530   1.8742630  44.8864820
  39.3169980   3.9517320  52.2512160  39.8155230   4.4263140  52.9164010
  39.4592930   3.0280840  52.4582190  38.8106270  14.4926580  44.9643400
  39.0647770  14.4547970  44.0422770  37.8618750  14.3659910  44.9571650
  44.8158850   5.4118460  46.5401910  43.8748990   5.4268690  46.7149600
  45.1302920   4.6254420  46.9862210  34.7940490   7.0938060  40.1005870
  35.5603760   6.9819420  40.6631300  34.8715180   6.3976030  39.4482640
  33.4887250   4.5263130  40.7838760  33.5690840   3.5790640  40.8956160
  34.3807000   4.8570010  40.8899420  46.8184430  12.5827310  48.2156170
  46.9431850  13.4058480  48.6879980  47.6849990  12.3718040  47.8680320
  34.2901960  14.6758520  47.8873300  35.0264440  14.1273980  48.1581870
  34.6742880  15.5414530  47.7479290  31.1747440  10.7432090  43.7614810
  30.2487220  10.9853230  43.7520220  31.6403870  11.5706350  43.6399560
  37.4004270  13.8488830  39.7098870  38.1932880  14.1377660  39.2580660
  36.8808620  13.4181000  39.0311350  43.5625240  13.6964750  55.6343700
  44.5146990  13.6122770  55.5843940  43.4153460  14.3606460  56.3077490
  46.4534440  13.0758960  41.1335610  46.1675950  12.6624100  40.3189790
  46.2553990  14.0046670  41.0136130  31.0158050   6.3478050  56.0194930
  31.5197070   5.7685330  56.5911160  30.2765470   6.6318280  56.5571300
  37.9181670   9.0692240  39.5741220  37.8132310   8.4544590  40.3002600
  37.7505890   8.5458130  38.7904230  38.0695990   7.7549040  55.5530450
  37.3041660   8.3234040  55.4685120  38.2511950   7.4625250  54.6598680
  41.1584400   8.1312270  40.1783210  40.6094500   8.5781570  40.8225950
  41.7803660   7.6261520  40.7020880  45.2119340   9.4854370  56.1105470
  45.9528810   9.8230130  55.6072930  44.4492020   9.6546430  55.5575240
  36.8259520   7.0903190  42.0748510  37.2475940   6.9243060  42.9179900
  36.9510360   6.2803420  41.5803650  34.9886940   3.0699740  54.8819490
  34.4583400   2.5790690  54.2542830  35.6575010   3.4983940  54.3477420
  39.3387160   6.1140800  39.3225610  39.8592820   5.3989820  38.9566760
  39.9855560   6.7526670  39.6226120  43.8865000   7.5369200  54.6460680
  44.3006020   7.6914280  55.4951100  42.9516000   7.6624420  54.8086460
  44.3587170   4.8765360  56.6499830  44.9407940   4.1217680  56.5620310
  44.5348940   5.4072800  55.8731310  38.6480230   7.4889680  52.6156610
  39.0668340   8.3322410  52.4432850  37.7288860   7.6261720  52.3863390
  40.9844130   5.2205860  53.9994450  41.1040340   4.6247000  54.7389290
  41.8438130   5.2575550  53.5795750  43.3232030   5.7743050  52.5756960
  42.7967250   6.2985670  51.9722100  43.6663370   6.4070440  53.2066690
  35.7218420   3.1636420  39.0206670  35.5207480   2.3003780  39.3820010
  35.5510470   3.0769780  38.0828270  36.4987650  13.7942690  53.7314340
  35.9608740  14.5188750  53.4123040  36.7521610  13.3173030  52.9411680
  39.3549860  15.0293900  53.9900990  39.2808560  15.9329040  54.2973360
  38.4528700  14.7105800  53.9623060  39.9035190  14.1952410  41.6127350
  40.7985980  14.5337380  41.6346110  39.9352820  13.4731820  40.9851630
  33.5431350   9.5679460  39.8414350  33.9806220  10.1109130  40.4971930
  34.0279080   8.7426410  39.8510690  30.7577150  12.3568490  47.2934610
  31.0880160  11.4889550  47.0613250  31.1868150  12.5627010  48.1239570
  35.3539070  10.6877500  44.9536580  35.0534610  10.5642470  45.8540490
  35.2476560   9.8286090  44.5452310  31.2467360  13.2239080  50.0316240
  30.8098350  13.4039880  50.8640390  31.8145040  13.9813700  49.8897960
  46.8829540  12.7256080  54.3193550  46.2831530  12.7848640  53.5757470
  47.0123440  11.7861060  54.4490400  48.1230990  10.4673900  39.6563260
  47.2923950  10.5350550  40.1270490  48.3002820  11.3578020  39.3530120
  47.5787450   7.2121380  42.1597460  48.3406360   7.7818030  42.2657150
  47.5941820   6.6448580  42.9305770  31.0791790   5.7359310  46.3905120
  30.4240630   5.4670950  45.7464820  31.9169740   5.6263790  45.9407100
  48.5847420   8.0671480  47.0039390  48.9556250   7.2838800  46.5975360
  49.2249350   8.7560580  46.8256690  45.5681180   9.4508060  52.4169710
  44.7541020   9.8805220  52.6795500  45.9755380  10.0626470  51.8038760
  47.6306620   7.5055750  39.3169980  47.9055460   8.4134630  39.1889200
  47.4417360   7.4418280  40.2531970  47.5271960   5.4424740  44.3099410
  47.1515560   4.6752670  43.8780700  46.7975080   5.8247440  44.7974340
  32.1167720   6.1211880  50.9308460  32.4840760   6.0339280  51.8104480
  31.5478540   5.3578430  50.8315320  46.9171580   4.5896260  53.9438930
  46.6857670   4.3609010  53.0436880  47.1776130   5.5095810  53.8983820
  31.6683720   3.0320970  54.8366880  30.7739770   2.9987730  55.1760590
  32.2081270   3.2307760  55.6018130  30.2929870   2.9458240  42.3330450
  29.3893950   3.2088440  42.1582110  30.7770490   3.2169410  41.5530410
  46.8022920   3.6682230  47.6106650  47.3260400   3.1744880  46.9796820
  47.3882340   3.8032590  48.3554220  46.9812640   3.7522100  51.1326200
  46.0315350   3.7185640  51.2471190  47.1625650   4.6622210  50.8975970
  32.8357080   2.0023780  40.2424830  33.5448780   1.5807000  39.7572110
  32.1197020   2.0699010  39.6108180  46.2922890   2.9255580  43.5499060
  46.7882010   2.6926450  44.3347940  46.0938960   2.0867420  43.1336700
  45.6257230  14.2026660  45.9437980  46.2216300  13.8811230  45.2672400
  45.8835380  13.7298480  46.7351250  33.5319800  10.6344570  56.0928610
  33.4889430  10.2637480  56.9743070  33.6630810  11.5722140  56.2330430
  37.2325830  12.1904160  51.6938330  36.9917190  12.4578720  50.8068850
  38.1728470  12.3609890  51.7489190  48.4929990  14.2098540  52.4948970
  47.9988270  14.6067410  51.7776100  47.8843280  13.5847750  52.8886250
  33.3707830  13.5806820  53.2126390  32.7768150  13.4491520  53.9516430
  33.3631670  12.7444960  52.7468490  46.1769440  14.8521960  49.7735710
  45.7172410  15.6037770  49.3993730  45.5481900  14.1328430  49.7150510
  33.0020060  10.9465200  52.1634430  32.2754120  10.3270490  52.0960380
  33.0629210  11.3405810  51.2932510  36.6065160  13.1610200  48.9483840
  37.1230180  12.5497560  48.4232100  37.2562540  13.6638980  49.4394850
  39.3460660  14.0518690  49.7752820  39.6338470  13.7972990  48.8985830
  39.8583880  13.4996050  50.3658390  31.2850060  14.2639590  45.3731190
  31.1172100  13.6310270  46.0713080  30.4184570  14.4698990  45.0225380
  32.8912760  12.9572820  42.8181330  32.3660380  13.3380850  42.1143290
  32.8157340  13.5823590  43.5391040  39.4133020  14.9734790  57.1421020
  40.3400330  14.7379060  57.1856980  39.3983450  15.8006790  56.6607050
  47.6478080  14.5160360  44.1395270  47.8230270  13.8298100  43.4956190
  46.9499650  15.0407410  43.7471940  35.4905730  14.9055200  41.6930580
  36.2224550  14.6214480  41.1454470  35.7499400  14.6668480  42.5829960
  34.6520520  11.0219930  41.6976910  34.0229400  11.4905030  42.2462740
  34.7668350  10.1769150  42.1323100  42.1070240   5.0725590  27.8478110
  42.0264290   4.1580200  27.5769820  41.6934660   5.5692660  27.1417820
  40.2388280   6.8504610  29.7287380  39.4630380   6.3705050  30.0185950
  40.8901210   6.1710260  29.5543540  34.2554110   7.1624420  30.6063140
  33.4238990   6.9073130  31.0059650  34.8635090   7.2335190  31.3421060
  44.2595710  11.2564800  28.5086510  43.7977240  10.4852040  28.8373680
  45.0721260  11.2830870  29.0138960  34.2355370  11.1964510  30.8021160
  34.5383410  10.3062250  30.6231380  34.9798960  11.7534730  30.5743410
  32.6646060   2.1226310  24.3905530  31.7762760   2.4642280  24.2885410
  32.9487250   1.9226630  23.4986360  30.6279070   4.7231960  30.2745230
  31.1995180   3.9554160  30.2748870  30.6280610   5.0220720  29.3651840
  40.4859020  13.5422810  28.1290500  39.8670460  13.9980310  27.5584940
  41.3410800  13.6974270  27.7280200  39.6797270   9.5261800  29.7357540
  39.6105550   8.5851740  29.5746670  40.4417130   9.6163210  30.3080110
  40.7102440   2.3332180  29.9626470  41.0867260   1.4604060  29.8500140
  40.6121950   2.6690880  29.0716910  32.4890610   2.6276820  30.6696500
  33.1700720   2.8915190  31.2883900  32.1738660   1.7877690  31.0034510
  36.6815180   3.6744180  29.7569090  37.1893400   4.1725150  30.3974110
  37.2128420   2.8979380  29.5808450  48.7826110   1.8449370  33.4598440
  48.0778280   2.2331080  32.9413550  49.0484030   2.5399660  34.0619370
  41.3522370   8.4262050  25.5222410  40.7339640   8.8911500  24.9585130
  41.8645620   9.1189530  25.9391920  36.2154130   7.9537920  32.2006010
  35.8823510   8.5806840  32.8427080  36.3920810   8.4799800  31.4207680
  44.7288040   1.7683000  29.6682350  44.0243610   2.0567890  30.2485460
  45.0900200   2.5783110  29.3081910  35.4273230   9.9218720  34.0155190
  36.0447230  10.5969800  33.7339640  34.5666350  10.3306700  33.9242690
  30.7205570   9.1118580  22.8962040  30.3433550   9.6005680  22.1646940
  30.9778640   9.7843860  23.5268570  46.3450820  11.3858130  31.9309830
  45.6614340  12.0557240  31.9226500  46.8845110  11.5838780  31.1654690
  43.8809560  13.2302260  30.6455010  43.8936720  12.8264550  29.7777270
  43.3284780  14.0049550  30.5416440  45.1754980   9.9518480  25.7345180
  45.0651310   9.0092810  25.8594600  45.1723230  10.3134120  26.6207940
  43.2795000   8.1332100  31.9737620  43.6963790   7.9192210  31.1391080
  44.0034820   8.3904890  32.5446240  40.7175260   5.5783800  25.0907670
  39.7904540   5.5121180  25.3196140  40.8700080   6.5163930  24.9762910
  40.7044340   1.8500800  22.0874830  39.7648010   2.0114760  22.1727290
  41.0227600   2.5686480  21.5410820  47.2257100   6.5319320  32.0653860
  46.3975730   6.6012410  31.5903990  47.8207580   7.1173630  31.5969690
  44.7472550   7.1404100  25.5942920  44.1284970   6.8023650  24.9469220
  44.7297000   6.4963860  26.3022110  44.1899110   3.3188640  33.0108730
  43.7770290   4.1442350  33.2648720  43.4575060   2.7333680  32.8185090
  36.3231900   6.1048540  27.8727400  35.9188900   5.3925790  27.3773300
  36.4095020   5.7601780  28.7615440  36.7913600   9.7916100  30.0366610
  36.4941890   9.1861570  29.3574390  37.7413420   9.8293410  29.9255970
  35.0360520   2.8791750  31.6526440  35.5875110   2.9887090  30.8779690
  35.5504030   3.2529350  32.3681670  44.8799210  13.3647970  33.6989710
  44.4029770  14.1720160  33.5062320  44.1961000  12.7126300  33.8515920
  35.8832030   9.5297790  36.6874410  34.9860560   9.7537760  36.9347810
  35.9084900   9.6532730  35.7385810  42.9237250   6.3790910  22.6015670
  43.3630530   5.5413340  22.4553490  43.6365670   7.0120310  22.6879810
  34.7103250   6.4011110  35.2631780  34.5711020   7.2733910  35.6319180
  33.8284610   6.0583920  35.1179720  41.0332630  11.3186980  26.5696910
  41.4728540  12.0611310  26.1552300  40.9719520  11.5613550  27.4935870
  36.5083600  12.3432810  37.4716930  36.4799030  12.7475760  36.6045360
  36.3448570  11.4143170  37.3088530  33.0236530   4.9993520  25.3734050
  32.9034130   5.7255610  24.7615320  32.7137420   4.2296430  24.8961960
  48.4598420  13.1259910  38.7681100  48.9358140  13.6042800  39.4470180
  49.0805580  13.0577400  38.0426600  30.6621900   8.1708660  31.1802690
  30.7402320   8.3057430  30.2358410  31.2763580   7.4624550  31.3730810
  31.9069530   9.8708850  27.5908870  31.4997610  10.0123440  26.7362470
  32.7982540   9.5869010  27.3880080  47.8631670  10.3172760  35.9281110
  47.9894730  10.0784640  35.0098290  47.9053050   9.4857300  36.4003190
  41.7248410  14.0200760  34.4975920  42.2393080  13.9308770  35.2998350
  40.8817490  14.3660460  34.7903830  43.7002810  14.3056100  23.9259920
  43.5403950  14.0159040  24.8241750  43.5349520  13.5296230  23.3905150
  43.4028940  11.8143660  22.4857920  42.7094100  11.8120950  21.8260200
  44.1451800  11.3902980  22.0552090  42.9678870  13.4406370  26.5606410
  43.4235820  12.6595750  26.8745030  43.3071390  14.1513190  27.1047590
  47.7155680   2.3705220  36.8930850  47.0999950   2.8784890  36.3646310
  47.3952100   1.4703550  36.8356790  30.7181420   9.2122830  33.7197150
  30.8812460   8.7428190  32.9016520  31.1833870   8.7046390  34.3845990
  44.7774510   2.4306060  35.4889700  43.9268100   2.1311810  35.8098770
  44.6176300   2.6748070  34.5773520  41.8724220   3.9307810  37.5888490
  42.1977630   3.0971560  37.2490720  42.6604550   4.4536330  37.7366820
  35.2814410   3.4662160  26.4838970  35.0555330   3.2499330  27.3885590
  34.5006940   3.8990620  26.1384940  42.5112170   3.4725530  25.0829620
  41.9121060   4.1961330  24.8993240  43.0591780   3.4102310  24.3006070
  37.7213620   4.3647740  37.1499240  37.6257220   3.4242470  36.9999640
  38.5645600   4.5862810  36.7547310  30.3411440   2.6409990  20.5465820
  30.2586110   3.5840750  20.6880810  29.9894500   2.4984900  19.6678170
  41.7032180   4.6994820  31.2083680  40.9713300   5.2081630  31.5573780
  41.3056520   3.8824800  30.9072460  38.2029720   2.3761100  22.6042930
  38.3242540   2.3347580  23.5528750  37.8178230   3.2385250  22.4489660
  37.2151220   4.6862240  22.0026230  36.6468120   4.2380490  21.3762140
  37.9240220   5.0455020  21.4691380  32.2920400   8.5874260  35.8792960
  31.9075190   7.9467930  36.4775920  32.6032590   9.2910380  36.4487690
  38.4417540   5.4350800  31.3601580  38.8087670   4.9609370  32.1062920
  38.2522600   6.3092370  31.7009920  36.2316910   4.4759440  33.6785790
  35.9273980   5.3551420  33.9036150  37.1863370   4.5359230  33.7143230
  34.7598700   8.6820430  24.2752640  33.9860960   8.1418050  24.1151360
  35.4893330   8.1627040  23.9370400  45.5186680   7.6785790  30.0679030
  46.2385800   8.1741080  29.6775140  45.3168500   7.0003680  29.4232900
  40.9005480   7.7494850  35.9548030  40.8342790   6.8290520  35.7005620
  40.2710620   7.8470290  36.6692670  43.6945010   3.4443400  22.5070580
  44.5824630   3.7560630  22.3321920  43.6650100   2.5715650  22.1151160
  34.8036100   8.3500810  27.9131450  35.3214770   7.5469070  27.8588340
  34.3520120   8.2879950  28.7548280  39.6905600   9.6167090  23.1858750
  40.0321300  10.3609320  22.6902070  38.8618310   9.9298210  23.5483580
  32.2880640   5.3162180  34.8257150  31.9295580   5.9816030  35.4130490
  31.9935200   4.4845730  35.1969770  35.4893760   5.7746420  37.7096700
  35.1893900   5.9203600  36.8124520  36.2605000   5.2151710  37.6170090
  40.8322210  10.5715420  35.7051830  40.8466750   9.6396380  35.4870740
  40.1247310  10.6575180  36.3441600  45.9659280   4.7555240  21.9750440
  45.8823000   5.1869460  21.1246880  46.6853470   5.2153590  22.4077260
  47.0433420   7.2122760  35.0520410  46.3181610   7.8051540  34.8549800
  47.5708880   7.2046300  34.2533780  46.9946530  11.6097500  24.7032570
  46.3522690  10.9553120  24.9776290  46.6077190  12.0152590  23.9273240
  42.5733010   8.9382930  28.5504260  42.9256830   8.3411060  27.8905630
  41.6895340   8.6127160  28.7212510  38.6596290   9.6980620  25.9574670
  39.3467420  10.2449830  26.3382260  37.8728710  10.2421350  25.9924280
  30.7988690   5.3153440  21.4491750  31.6683540   5.5978240  21.7327670
  30.3079010   6.1289310  21.3340560  37.9623500   6.7026650  25.5700030
  38.4186280   7.5131900  25.7960220  37.6111710   6.3849790  26.4018520
  40.2656110  12.2132990  32.7992330  40.9098330  12.4192370  33.4765750
  40.6285550  11.4521390  32.3463180  41.5388190  10.2165340  31.5169780
  42.1810420   9.5158500  31.6301950  42.0637540  10.9963780  31.3366670
  45.3843910  10.5013960  21.2408920  45.1581490   9.7844400  21.8333560
  44.9940110  10.2526400  20.4030670  43.3125810  11.0160240  34.7205840
  43.6482050  11.6026930  35.3983760  42.3926150  10.8852950  34.9503630
  31.1659940  14.5280820  22.0153380  31.5257580  15.1270160  21.3610650
  31.0252280  15.0740710  22.7888410  44.9660160   8.4185900  22.9023080
  44.6781860   8.8798590  23.6900960  45.7612330   7.9583670  23.1707300
  31.1501800  12.7935680  36.4895780  31.2592920  11.8530420  36.3491170
  30.4982360  13.0590430  35.8409510  39.1414390  11.0651570  37.8893900
  38.8211260  10.3460810  38.4339590  38.4672750  11.7406640  37.9629960
  37.1828560  11.9112020  22.8327050  37.1738660  12.6441710  22.2171560
  36.2626920  11.6643600  22.9254010  32.7835200   7.1326910  23.5773810
  32.1763150   7.8725810  23.5869110  33.2584550   7.2226270  22.7512010
  40.1688160  11.9740260  21.4952240  40.2700140  11.7704250  20.5654220
  39.2689900  11.7198540  21.7000020  37.6914050   2.5320620  25.4776140
  36.9830200   3.0006960  25.9189750  37.9758530   1.8742630  26.1121330
  39.3169980   3.9517320  33.4768670  39.8155230   4.4263140  34.1420520
  39.4592930   3.0280840  33.6838700  44.8158850   5.4118460  27.7658420
  43.8748990   5.4268690  27.9406110  45.1302920   4.6254420  28.2118720
  34.7940490   7.0938060  21.3262380  35.5603760   6.9819420  21.8887810
  34.8715180   6.3976030  20.6739150  33.4887250   4.5263130  22.0095270
  33.5690840   3.5790640  22.1212670  34.3807000   4.8570010  22.1155930
  46.8184430  12.5827310  29.4412680  46.9431850  13.4058480  29.9136490
  47.6849990  12.3718040  29.0936830  31.1747440  10.7432090  24.9871320
  30.2487220  10.9853230  24.9776730  31.6403870  11.5706350  24.8656070
  33.2960240  13.8604590  38.3015390  34.0972970  14.1816640  38.7150790
  32.7812060  13.5000170  39.0235300  37.4004270  13.8488830  20.9355380
  38.1932880  14.1377660  20.4837170  36.8808620  13.4181000  20.2567860
  42.1324870   9.9684460  38.2490800  41.5263030   9.9916060  37.5086550
  41.8278980   9.2367500  38.7858050  43.5625240  13.6964750  36.8600210
  44.5146990  13.6122770  36.8100450  43.4153460  14.3606460  37.5334000
  46.4534440  13.0758960  22.3592120  46.1675950  12.6624100  21.5446300
  46.2553990  14.0046670  22.2392640  31.0158050   6.3478050  37.2451440
  31.5197070   5.7685330  37.8167670  30.2765470   6.6318280  37.7827810
  37.9181670   9.0692240  20.7997730  37.8132310   8.4544590  21.5259110
  37.7505890   8.5458130  20.0160740  38.0695990   7.7549040  36.7786960
  37.3041660   8.3234040  36.6941630  38.2511950   7.4625250  35.8855190
  41.1584400   8.1312270  21.4039720  40.6094500   8.5781570  22.0482460
  41.7803660   7.6261520  21.9277390  45.2119340   9.4854370  37.3361980
  45.9528810   9.8230130  36.8329440  44.4492020   9.6546430  36.7831750
  33.0481130   4.4907640  38.1401510  33.0886470   4.1921510  39.0486740
  33.9026630   4.8915250  37.9809030  36.8259520   7.0903190  23.3005020
  37.2475940   6.9243060  24.1436410  36.9510360   6.2803420  22.8060160
  34.9886940   3.0699740  36.1076000  34.4583400   2.5790690  35.4799340
  35.6575010   3.4983940  35.5733930  39.3387160   6.1140800  20.5482120
  39.8592820   5.3989820  20.1823270  39.9855560   6.7526670  20.8482630
  43.8865000   7.5369200  35.8717190  44.3006020   7.6914280  36.7207610
  42.9516000   7.6624420  36.0342970  44.3587170   4.8765360  37.8756340
  44.9407940   4.1217680  37.7876820  44.5348940   5.4072800  37.0987820
  38.6480230   7.4889680  33.8413120  39.0668340   8.3322410  33.6689360
  37.7288860   7.6261720  33.6119900  40.9844130   5.2205860  35.2250960
  41.1040340   4.6247000  35.9645800  41.8438130   5.2575550  34.8052260
  43.3232030   5.7743050  33.8013470  42.7967250   6.2985670  33.1978610
  43.6663370   6.4070440  34.4323200  35.7218420   3.1636420  20.2463180
  35.5207480   2.3003780  20.6076520  35.5510470   3.0769780  19.3084780
  36.4987650  13.7942690  34.9570850  35.9608740  14.5188750  34.6379550
  36.7521610  13.3173030  34.1668190  39.3549860  15.0293900  35.2157500
  39.2808560  15.9329040  35.5229870  38.4528700  14.7105800  35.1879570
  39.9035190  14.1952410  22.8383860  40.7985980  14.5337380  22.8602620
  39.9352820  13.4731820  22.2108140  33.5431350   9.5679460  21.0670860
  33.9806220  10.1109130  21.7228440  34.0279080   8.7426410  21.0767200
  30.7577150  12.3568490  28.5191120  31.0880160  11.4889550  28.2869760
  31.1868150  12.5627010  29.3496080  35.3539070  10.6877500  26.1793090
  35.0534610  10.5642470  27.0797000  35.2476560   9.8286090  25.7708820
  31.2467360  13.2239080  31.2572750  30.8098350  13.4039880  32.0896900
  31.8145040  13.9813700  31.1154470  46.8829540  12.7256080  35.5450060
  46.2831530  12.7848640  34.8013980  47.0123440  11.7861060  35.6746910
  48.1230990  10.4673900  20.8819770  47.2923950  10.5350550  21.3527000
  48.3002820  11.3578020  20.5786630  47.5787450   7.2121380  23.3853970
  48.3406360   7.7818030  23.4913660  47.5941820   6.6448580  24.1562280
  31.0791790   5.7359310  27.6161630  30.4240630   5.4670950  26.9721330
  31.9169740   5.6263790  27.1663610  48.5847420   8.0671480  28.2295900
  48.9556250   7.2838800  27.8231870  49.2249350   8.7560580  28.0513200
  45.5681180   9.4508060  33.6426220  44.7541020   9.8805220  33.9052010
  45.9755380  10.0626470  33.0295270  47.6306620   7.5055750  20.5426490
  47.9055460   8.4134630  20.4145710  47.4417360   7.4418280  21.4788480
  47.5271960   5.4424740  25.5355920  47.1515560   4.6752670  25.1037210
  46.7975080   5.8247440  26.0230850  32.1167720   6.1211880  32.1564970
  32.4840760   6.0339280  33.0360990  31.5478540   5.3578430  32.0571830
  46.9171580   4.5896260  35.1695440  46.6857670   4.3609010  34.2693390
  47.1776130   5.5095810  35.1240330  31.6683720   3.0320970  36.0623390
  30.7739770   2.9987730  36.4017100  32.2081270   3.2307760  36.8274640
  30.2929870   2.9458240  23.5586960  29.3893950   3.2088440  23.3838620
  30.7770490   3.2169410  22.7786920  46.8022920   3.6682230  28.8363160
  47.3260400   3.1744880  28.2053330  47.3882340   3.8032590  29.5810730
  46.9812640   3.7522100  32.3582710  46.0315350   3.7185640  32.4727700
  47.1625650   4.6622210  32.1232480  32.8357080   2.0023780  21.4681340
  33.5448780   1.5807000  20.9828620  32.1197020   2.0699010  20.8364690
  46.2922890   2.9255580  24.7755570  46.7882010   2.6926450  25.5604450
  46.0938960   2.0867420  24.3593210  45.6257230  14.2026660  27.1694490
  46.2216300  13.8811230  26.4928910  45.8835380  13.7298480  27.9607760
  33.5319800  10.6344570  37.3185120  33.4889430  10.2637480  38.1999580
  33.6630810  11.5722140  37.4586940  37.2325830  12.1904160  32.9194840
  36.9917190  12.4578720  32.0325360  38.1728470  12.3609890  32.9745700
  48.4929990  14.2098540  33.7205480  47.9988270  14.6067410  33.0032610
  47.8843280  13.5847750  34.1142760  33.3707830  13.5806820  34.4382900
  32.7768150  13.4491520  35.1772940  33.3631670  12.7444960  33.9725000
  46.1769440  14.8521960  30.9992220  45.7172410  15.6037770  30.6250240
  45.5481900  14.1328430  30.9407020  33.0020060  10.9465200  33.3890940
  32.2754120  10.3270490  33.3216890  33.0629210  11.3405810  32.5189020
  39.3460660  14.0518690  31.0009330  39.6338470  13.7972990  30.1242340
  39.8583880  13.4996050  31.5914900  31.2850060  14.2639590  26.5987700
  31.1172100  13.6310270  27.2969590  30.4184570  14.4698990  26.2481890
  32.8912760  12.9572820  24.0437840  32.3660380  13.3380850  23.3399800
  32.8157340  13.5823590  24.7647550  39.4133020  14.9734790  38.3677530
  40.3400330  14.7379060  38.4113490  39.3983450  15.8006790  37.8863560
  47.6478080  14.5160360  25.3651780  47.8230270  13.8298100  24.7212700
  46.9499650  15.0407410  24.9728450  35.4905730  14.9055200  22.9187090
  36.2224550  14.6214480  22.3710980  35.7499400  14.6668480  23.8086470
  34.6520520  11.0219930  22.9233420  34.0229400  11.4905030  23.4719250
  34.7668350  10.1769150  23.3579610  45.9810580  14.2004650  38.1918570
  46.7735900  13.7053880  37.9844530  46.2743730  14.8794790  38.7994180
  42.1070240   5.0725590   9.0734620  42.0264290   4.1580200   8.8026330
  41.6934660   5.5692660   8.3674330  40.2388280   6.8504610  10.9543890
  39.4630380   6.3705050  11.2442460  40.8901210   6.1710260  10.7800050
  34.2554110   7.1624420  11.8319650  33.4238990   6.9073130  12.2316160
  34.8635090   7.2335190  12.5677570  44.2595710  11.2564800   9.7343020
  43.7977240  10.4852040  10.0630190  45.0721260  11.2830870  10.2395470
  34.2355370  11.1964510  12.0277670  34.5383410  10.3062250  11.8487890
  34.9798960  11.7534730  11.7999920  32.6646060   2.1226310   5.6162040
  31.7762760   2.4642280   5.5141920  32.9487250   1.9226630   4.7242870
  30.6279070   4.7231960  11.5001740  31.1995180   3.9554160  11.5005380
  30.6280610   5.0220720  10.5908350  40.4859020  13.5422810   9.3547010
  39.8670460  13.9980310   8.7841450  41.3410800  13.6974270   8.9536710
  39.6797270   9.5261800  10.9614050  39.6105550   8.5851740  10.8003180
  40.4417130   9.6163210  11.5336620  40.7102440   2.3332180  11.1882980
  41.0867260   1.4604060  11.0756650  40.6121950   2.6690880  10.2973420
  32.4890610   2.6276820  11.8953010  33.1700720   2.8915190  12.5140410
  32.1738660   1.7877690  12.2291020  36.6815180   3.6744180  10.9825600
  37.1893400   4.1725150  11.6230620  37.2128420   2.8979380  10.8064960
  48.7826110   1.8449370  14.6854950  48.0778280   2.2331080  14.1670060
  49.0484030   2.5399660  15.2875880  41.3522370   8.4262050   6.7478920
  40.7339640   8.8911500   6.1841640  41.8645620   9.1189530   7.1648430
  36.2154130   7.9537920  13.4262520  35.8823510   8.5806840  14.0683590
  36.3920810   8.4799800  12.6464190  44.7288040   1.7683000  10.8938860
  44.0243610   2.0567890  11.4741970  45.0900200   2.5783110  10.5338420
  35.4273230   9.9218720  15.2411700  36.0447230  10.5969800  14.9596150
  34.5666350  10.3306700  15.1499200  30.7205570   9.1118580   4.1218550
  30.3433550   9.6005680   3.3903450  30.9778640   9.7843860   4.7525080
  46.3450820  11.3858130  13.1566340  45.6614340  12.0557240  13.1483010
  46.8845110  11.5838780  12.3911200  43.8809560  13.2302260  11.8711520
  43.8936720  12.8264550  11.0033780  43.3284780  14.0049550  11.7672950
  45.1754980   9.9518480   6.9601690  45.0651310   9.0092810   7.0851110
  45.1723230  10.3134120   7.8464450  43.2795000   8.1332100  13.1994130
  43.6963790   7.9192210  12.3647590  44.0034820   8.3904890  13.7702750
  40.7175260   5.5783800   6.3164180  39.7904540   5.5121180   6.5452650
  40.8700080   6.5163930   6.2019420  40.7044340   1.8500800   3.3131340
  39.7648010   2.0114760   3.3983800  41.0227600   2.5686480   2.7667330
  47.2257100   6.5319320  13.2910370  46.3975730   6.6012410  12.8160500
  47.8207580   7.1173630  12.8226200  44.7472550   7.1404100   6.8199430
  44.1284970   6.8023650   6.1725730  44.7297000   6.4963860   7.5278620
  44.1899110   3.3188640  14.2365240  43.7770290   4.1442350  14.4905230
  43.4575060   2.7333680  14.0441600  36.3231900   6.1048540   9.0983910
  35.9188900   5.3925790   8.6029810  36.4095020   5.7601780   9.9871950
  36.7913600   9.7916100  11.2623120  36.4941890   9.1861570  10.5830900
  37.7413420   9.8293410  11.1512480  35.0360520   2.8791750  12.8782950
  35.5875110   2.9887090  12.1036200  35.5504030   3.2529350  13.5938180
  44.8799210  13.3647970  14.9246220  44.4029770  14.1720160  14.7318830
  44.1961000  12.7126300  15.0772430  35.8832030   9.5297790  17.9130920
  34.9860560   9.7537760  18.1604320  35.9084900   9.6532730  16.9642320
  42.9237250   6.3790910   3.8272180  43.3630530   5.5413340   3.6810000
  43.6365670   7.0120310   3.9136320  34.7103250   6.4011110  16.4888290
  34.5711020   7.2733910  16.8575690  33.8284610   6.0583920  16.3436230
  41.0332630  11.3186980   7.7953420  41.4728540  12.0611310   7.3808810
  40.9719520  11.5613550   8.7192380  36.5083600  12.3432810  18.6973440
  36.4799030  12.7475760  17.8301870  36.3448570  11.4143170  18.5345040
  33.0236530   4.9993520   6.5990560  32.9034130   5.7255610   5.9871830
  32.7137420   4.2296430   6.1218470  48.4598420  13.1259910  19.9937610
  48.9358140  13.6042800  20.6726690  49.0805580  13.0577400  19.2683110
  30.6621900   8.1708660  12.4059200  30.7402320   8.3057430  11.4614920
  31.2763580   7.4624550  12.5987320  31.9069530   9.8708850   8.8165380
  31.4997610  10.0123440   7.9618980  32.7982540   9.5869010   8.6136590
  47.8631670  10.3172760  17.1537620  47.9894730  10.0784640  16.2354800
  47.9053050   9.4857300  17.6259700  41.7248410  14.0200760  15.7232430
  42.2393080  13.9308770  16.5254860  40.8817490  14.3660460  16.0160340
  43.7002810  14.3056100   5.1516430  43.5403950  14.0159040   6.0498260
  43.5349520  13.5296230   4.6161660  36.1791190  14.0854630   6.9288050
  36.0033670  13.1690170   6.7155850  35.3246930  14.4441920   7.1685850
  43.4028940  11.8143660   3.7114430  42.7094100  11.8120950   3.0516710
  44.1451800  11.3902980   3.2808600  42.9678870  13.4406370   7.7862920
  43.4235820  12.6595750   8.1001540  43.3071390  14.1513190   8.3304100
  47.7155680   2.3705220  18.1187360  47.0999950   2.8784890  17.5902820
  47.3952100   1.4703550  18.0613300  30.7181420   9.2122830  14.9453660
  30.8812460   8.7428190  14.1273030  31.1833870   8.7046390  15.6102500
  44.7774510   2.4306060  16.7146210  43.9268100   2.1311810  17.0355280
  44.6176300   2.6748070  15.8030030  41.8724220   3.9307810  18.8145000
  42.1977630   3.0971560  18.4747230  42.6604550   4.4536330  18.9623330
  35.2814410   3.4662160   7.7095480  35.0555330   3.2499330   8.6142100
  34.5006940   3.8990620   7.3641450  42.5112170   3.4725530   6.3086130
  41.9121060   4.1961330   6.1249750  43.0591780   3.4102310   5.5262580
  37.7213620   4.3647740  18.3755750  37.6257220   3.4242470  18.2256150
  38.5645600   4.5862810  17.9803820  41.7032180   4.6994820  12.4340190
  40.9713300   5.2081630  12.7830290  41.3056520   3.8824800  12.1328970
  38.2029720   2.3761100   3.8299440  38.3242540   2.3347580   4.7785260
  37.8178230   3.2385250   3.6746170  37.2151220   4.6862240   3.2282740
  36.6468120   4.2380490   2.6018650  37.9240220   5.0455020   2.6947890
  32.2920400   8.5874260  17.1049470  31.9075190   7.9467930  17.7032430
  32.6032590   9.2910380  17.6744200  38.4417540   5.4350800  12.5858090
  38.8087670   4.9609370  13.3319430  38.2522600   6.3092370  12.9266430
  36.2316910   4.4759440  14.9042300  35.9273980   5.3551420  15.1292660
  37.1863370   4.5359230  14.9399740  34.7598700   8.6820430   5.5009150
  33.9860960   8.1418050   5.3407870  35.4893330   8.1627040   5.1626910
  45.5186680   7.6785790  11.2935540  46.2385800   8.1741080  10.9031650
  45.3168500   7.0003680  10.6489410  40.9005480   7.7494850  17.1804540
  40.8342790   6.8290520  16.9262130  40.2710620   7.8470290  17.8949180
  43.6945010   3.4443400   3.7327090  44.5824630   3.7560630   3.5578430
  43.6650100   2.5715650   3.3407670  34.8036100   8.3500810   9.1387960
  35.3214770   7.5469070   9.0844850  34.3520120   8.2879950   9.9804790
  39.6905600   9.6167090   4.4115260  40.0321300  10.3609320   3.9158580
  38.8618310   9.9298210   4.7740090  32.2880640   5.3162180  16.0513660
  31.9295580   5.9816030  16.6387000  31.9935200   4.4845730  16.4226280
  35.4893760   5.7746420  18.9353210  35.1893900   5.9203600  18.0381030
  36.2605000   5.2151710  18.8426600  40.8322210  10.5715420  16.9308340
  40.8466750   9.6396380  16.7127250  40.1247310  10.6575180  17.5698110
  45.9659280   4.7555240   3.2006950  45.8823000   5.1869460   2.3503390
  46.6853470   5.2153590   3.6333770  47.0433420   7.2122760  16.2776920
  46.3181610   7.8051540  16.0806310  47.5708880   7.2046300  15.4790290
  46.9946530  11.6097500   5.9289080  46.3522690  10.9553120   6.2032800
  46.6077190  12.0152590   5.1529750  42.5733010   8.9382930   9.7760770
  42.9256830   8.3411060   9.1162140  41.6895340   8.6127160   9.9469020
  38.6596290   9.6980620   7.1831180  39.3467420  10.2449830   7.5638770
  37.8728710  10.2421350   7.2180790  30.7988690   5.3153440   2.6748260
  31.6683540   5.5978240   2.9584180  30.3079010   6.1289310   2.5597070
  37.9623500   6.7026650   6.7956540  38.4186280   7.5131900   7.0216730
  37.6111710   6.3849790   7.6275030  40.2656110  12.2132990  14.0248840
  40.9098330  12.4192370  14.7022260  40.6285550  11.4521390  13.5719690
  41.5388190  10.2165340  12.7426290  42.1810420   9.5158500  12.8558460
  42.0637540  10.9963780  12.5623180  43.3125810  11.0160240  15.9462350
  43.6482050  11.6026930  16.6240270  42.3926150  10.8852950  16.1760140
  31.1659940  14.5280820   3.2409890  31.5257580  15.1270160   2.5867160
  31.0252280  15.0740710   4.0144920  44.9660160   8.4185900   4.1279590
  44.6781860   8.8798590   4.9157470  45.7612330   7.9583670   4.3963810
  31.1501800  12.7935680  17.7152290  31.2592920  11.8530420  17.5747680
  30.4982360  13.0590430  17.0666020  39.1414390  11.0651570  19.1150410
  38.8211260  10.3460810  19.6596100  38.4672750  11.7406640  19.1886470
  37.1828560  11.9112020   4.0583560  37.1738660  12.6441710   3.4428070
  36.2626920  11.6643600   4.1510520  32.7835200   7.1326910   4.8030320
  32.1763150   7.8725810   4.8125620  33.2584550   7.2226270   3.9768520
  40.1688160  11.9740260   2.7208750  40.2700140  11.7704250   1.7910730
  39.2689900  11.7198540   2.9256530  37.6914050   2.5320620   6.7032650
  36.9830200   3.0006960   7.1446260  37.9758530   1.8742630   7.3377840
  39.3169980   3.9517320  14.7025180  39.8155230   4.4263140  15.3677030
  39.4592930   3.0280840  14.9095210  38.8106270  14.4926580   7.4156420
  39.0647770  14.4547970   6.4935790  37.8618750  14.3659910   7.4084670
  44.8158850   5.4118460   8.9914930  43.8748990   5.4268690   9.1662620
  45.1302920   4.6254420   9.4375230  34.7940490   7.0938060   2.5518890
  35.5603760   6.9819420   3.1144320  34.8715180   6.3976030   1.8995660
  33.4887250   4.5263130   3.2351780  33.5690840   3.5790640   3.3469180
  34.3807000   4.8570010   3.3412440  46.8184430  12.5827310  10.6669190
  46.9431850  13.4058480  11.1393000  47.6849990  12.3718040  10.3193340
  34.2901960  14.6758520  10.3386320  35.0264440  14.1273980  10.6094890
  34.6742880  15.5414530  10.1992310  31.1747440  10.7432090   6.2127830
  30.2487220  10.9853230   6.2033240  31.6403870  11.5706350   6.0912580
  33.2960240  13.8604590  19.5271900  34.0972970  14.1816640  19.9407300
  32.7812060  13.5000170  20.2491810  42.1324870   9.9684460  19.4747310
  41.5263030   9.9916060  18.7343060  41.8278980   9.2367500  20.0114560
  43.5625240  13.6964750  18.0856720  44.5146990  13.6122770  18.0356960
  43.4153460  14.3606460  18.7590510  46.4534440  13.0758960   3.5848630
  46.1675950  12.6624100   2.7702810  46.2553990  14.0046670   3.4649150
  31.0158050   6.3478050  18.4707950  31.5197070   5.7685330  19.0424180
  30.2765470   6.6318280  19.0084320  38.0695990   7.7549040  18.0043470
  37.3041660   8.3234040  17.9198140  38.2511950   7.4625250  17.1111700
  41.1584400   8.1312270   2.6296230  40.6094500   8.5781570   3.2738970
  41.7803660   7.6261520   3.1533900  45.2119340   9.4854370  18.5618490
  45.9528810   9.8230130  18.0585950  44.4492020   9.6546430  18.0088260
  33.0481130   4.4907640  19.3658020  33.0886470   4.1921510  20.2743250
  33.9026630   4.8915250  19.2065540  36.8259520   7.0903190   4.5261530
  37.2475940   6.9243060   5.3692920  36.9510360   6.2803420   4.0316670
  34.9886940   3.0699740  17.3332510  34.4583400   2.5790690  16.7055850
  35.6575010   3.4983940  16.7990440  43.8865000   7.5369200  17.0973700
  44.3006020   7.6914280  17.9464120  42.9516000   7.6624420  17.2599480
  44.3587170   4.8765360  19.1012850  44.9407940   4.1217680  19.0133330
  44.5348940   5.4072800  18.3244330  38.6480230   7.4889680  15.0669630
  39.0668340   8.3322410  14.8945870  37.7288860   7.6261720  14.8376410
  40.9844130   5.2205860  16.4507470  41.1040340   4.6247000  17.1902310
  41.8438130   5.2575550  16.0308770  43.3232030   5.7743050  15.0269980
  42.7967250   6.2985670  14.4235120  43.6663370   6.4070440  15.6579710
  36.4987650  13.7942690  16.1827360  35.9608740  14.5188750  15.8636060
  36.7521610  13.3173030  15.3924700  39.3549860  15.0293900  16.4414010
  39.2808560  15.9329040  16.7486380  38.4528700  14.7105800  16.4136080
  39.9035190  14.1952410   4.0640370  40.7985980  14.5337380   4.0859130
  39.9352820  13.4731820   3.4364650  33.5431350   9.5679460   2.2927370
  33.9806220  10.1109130   2.9484950  34.0279080   8.7426410   2.3023710
  30.7577150  12.3568490   9.7447630  31.0880160  11.4889550   9.5126270
  31.1868150  12.5627010  10.5752590  35.3539070  10.6877500   7.4049600
  35.0534610  10.5642470   8.3053510  35.2476560   9.8286090   6.9965330
  31.2467360  13.2239080  12.4829260  30.8098350  13.4039880  13.3153410
  31.8145040  13.9813700  12.3410980  46.8829540  12.7256080  16.7706570
  46.2831530  12.7848640  16.0270490  47.0123440  11.7861060  16.9003420
  48.1230990  10.4673900   2.1076280  47.2923950  10.5350550   2.5783510
  48.3002820  11.3578020   1.8043140  47.5787450   7.2121380   4.6110480
  48.3406360   7.7818030   4.7170170  47.5941820   6.6448580   5.3818790
  31.0791790   5.7359310   8.8418140  30.4240630   5.4670950   8.1977840
  31.9169740   5.6263790   8.3920120  48.5847420   8.0671480   9.4552410
  48.9556250   7.2838800   9.0488380  49.2249350   8.7560580   9.2769710
  45.5681180   9.4508060  14.8682730  44.7541020   9.8805220  15.1308520
  45.9755380  10.0626470  14.2551780  47.6306620   7.5055750   1.7683000
  47.9055460   8.4134630   1.6402220  47.4417360   7.4418280   2.7044990
  47.5271960   5.4424740   6.7612430  47.1515560   4.6752670   6.3293720
  46.7975080   5.8247440   7.2487360  32.1167720   6.1211880  13.3821480
  32.4840760   6.0339280  14.2617500  31.5478540   5.3578430  13.2828340
  46.9171580   4.5896260  16.3951950  46.6857670   4.3609010  15.4949900
  47.1776130   5.5095810  16.3496840  31.6683720   3.0320970  17.2879900
  30.7739770   2.9987730  17.6273610  32.2081270   3.2307760  18.0531150
  30.2929870   2.9458240   4.7843470  29.3893950   3.2088440   4.6095130
  30.7770490   3.2169410   4.0043430  46.8022920   3.6682230  10.0619670
  47.3260400   3.1744880   9.4309840  47.3882340   3.8032590  10.8067240
  46.9812640   3.7522100  13.5839220  46.0315350   3.7185640  13.6984210
  47.1625650   4.6622210  13.3488990  32.8357080   2.0023780   2.6937850
  33.5448780   1.5807000   2.2085130  32.1197020   2.0699010   2.0621200
  46.2922890   2.9255580   6.0012080  46.7882010   2.6926450   6.7860960
  46.0938960   2.0867420   5.5849720  45.6257230  14.2026660   8.3951000
  46.2216300  13.8811230   7.7185420  45.8835380  13.7298480   9.1864270
  33.5319800  10.6344570  18.5441630  33.4889430  10.2637480  19.4256090
  33.6630810  11.5722140  18.6843450  37.2325830  12.1904160  14.1451350
  36.9917190  12.4578720  13.2581870  38.1728470  12.3609890  14.2002210
  48.4929990  14.2098540  14.9461990  47.9988270  14.6067410  14.2289120
  47.8843280  13.5847750  15.3399270  33.3707830  13.5806820  15.6639410
  32.7768150  13.4491520  16.4029450  33.3631670  12.7444960  15.1981510
  46.1769440  14.8521960  12.2248730  45.7172410  15.6037770  11.8506750
  45.5481900  14.1328430  12.1663530  33.0020060  10.9465200  14.6147450
  32.2754120  10.3270490  14.5473400  33.0629210  11.3405810  13.7445530
  36.6065160  13.1610200  11.3996860  37.1230180  12.5497560  10.8745120
  37.2562540  13.6638980  11.8907870  39.3460660  14.0518690  12.2265840
  39.6338470  13.7972990  11.3498850  39.8583880  13.4996050  12.8171410
  31.2850060  14.2639590   7.8244210  31.1172100  13.6310270   8.5226100
  30.4184570  14.4698990   7.4738400  32.8912760  12.9572820   5.2694350
  32.3660380  13.3380850   4.5656310  32.8157340  13.5823590   5.9904060
  39.4133020  14.9734790  19.5934040  40.3400330  14.7379060  19.6370000
  39.3983450  15.8006790  19.1120070  47.6478080  14.5160360   6.5908290
  47.8230270  13.8298100   5.9469210  46.9499650  15.0407410   6.1984960
  35.4905730  14.9055200   4.1443600  36.2224550  14.6214480   3.5967490
  35.7499400  14.6668480   5.0342980  34.6520520  11.0219930   4.1489930
  34.0229400  11.4905030   4.6975760  34.7668350  10.1769150   4.5836120
  45.9810580  14.2004650  19.4175080  46.7735900  13.7053880  19.2101040
  46.2743730  14.8794790  20.0250690  23.3326750  61.3956060  46.6221600
  23.2520800  60.4810670  46.3513310  22.9191170  61.8923130  45.9161310
  21.4644790  63.1735080  48.5030870  20.6886890  62.6935520  48.7929440
  22.1157720  62.4940730  48.3287030  15.4810620  63.4854890  49.3806630
  14.6495500  63.2303600  49.7803140  16.0891600  63.5565660  50.1164550
  13.8902570  58.4456780  43.1649020  13.0019270  58.7872750  43.0628900
  14.1743760  58.2457100  42.2729850  11.8535580  61.0462430  49.0488720
  12.4251690  60.2784630  49.0492360  11.8537120  61.3451190  48.1395330
  20.9053780  65.8492270  48.5101030  20.8362060  64.9082210  48.3490160
  21.6673640  65.9393680  49.0823600  13.0960450  56.4546790  50.8357650
  12.9163290  55.5572540  51.1160410  12.6940530  57.0018660  51.5104600
  21.9358950  58.6562650  48.7369960  22.3123770  57.7834530  48.6243630
  21.8378460  58.9921350  47.8460400  16.0663960  57.0288280  44.1987400
  16.1730710  57.9292010  44.5056160  15.1556320  56.9806250  43.9082050
  25.7183070  56.1513090  45.6698300  26.5392690  55.6609660  45.7123780
  25.7517150  56.7410750  46.4230140  13.7147120  58.9507290  49.4439990
  14.3957230  59.2145660  50.0627390  13.3995170  58.1108160  49.7778000
  17.9071690  59.9974650  48.5312580  18.4149910  60.4955620  49.1717600
  18.4384930  59.2209850  48.3551940  30.0082620  58.1679840  52.2341930
  29.3034790  58.5561550  51.7157040  30.2740540  58.8630130  52.8362860
  16.1907790  54.6373210  52.7976000  16.1926230  55.1545600  51.9921900
  15.3612100  54.1603390  52.7745930  22.5778880  64.7492520  44.2965900
  21.9596150  65.2141970  43.7328620  23.0902130  65.4420000  44.7135410
  17.4410640  64.2768390  50.9749500  17.1080020  64.9037310  51.6170570
  17.6177320  64.8030270  50.1951170  25.9544550  58.0913470  48.4425840
  25.2500120  58.3798360  49.0228950  26.3156710  58.9013580  48.0825400
  15.8723120  56.3483170  50.8046450  16.2139930  57.1925220  50.5100320
  14.9338930  56.4966910  50.9211790  11.9462080  65.4349050  41.6705530
  11.5690060  65.9236150  40.9390430  12.2035150  66.1074330  42.3012060
  29.0231470  57.5368260  48.8335050  28.0756380  57.5707240  48.9650480
  29.3481460  58.3507210  49.2184410  19.5551010  53.8365440  47.1291040
  19.8625990  53.2812330  46.4126540  18.6251710  53.9709900  46.9464030
  26.4011490  66.2748950  44.5088670  26.2907820  65.3323280  44.6338090
  26.3979740  66.6364590  45.3951430  24.5051510  64.4562570  50.7481110
  24.9220300  64.2422680  49.9134570  25.2291330  64.7135360  51.3189730
  21.9431770  61.9014270  43.8651160  21.0161050  61.8351650  44.0939630
  22.0956590  62.8394400  43.7506400  21.9300850  58.1731270  40.8618320
  20.9904520  58.3345230  40.9470780  22.2484110  58.8916950  40.3154310
  28.4513610  62.8549790  50.8397350  27.6232240  62.9242880  50.3647480
  29.0464090  63.4404100  50.3713180  25.9729060  63.4634570  44.3686410
  25.3541480  63.1254120  43.7212710  25.9553510  62.8194330  45.0765600
  25.4155620  59.6419110  51.7852220  25.0026800  60.4672820  52.0392210
  24.6831570  59.0564150  51.5928580  17.5488410  62.4279010  46.6470890
  17.1445410  61.7156260  46.1516790  17.6351530  62.0832250  47.5358930
  18.0170110  66.1146570  48.8110100  17.7198400  65.5092040  48.1317880
  18.9669930  66.1523880  48.6999460  16.2617030  59.2022220  50.4269930
  16.8131620  59.3117560  49.6523180  16.7760540  59.5759820  51.1425160
  17.1088540  65.8528260  55.4617900  16.2117070  66.0768230  55.7091300
  17.1341410  65.9763200  54.5129300  24.1493760  62.7021380  41.3759160
  24.5887040  61.8643810  41.2296980  24.8622180  63.3350780  41.4623300
  15.9359760  62.7241580  54.0375270  15.7967530  63.5964380  54.4062670
  15.0541120  62.3814390  53.8923210  27.7310900  53.9564190  39.6900200
  27.4183560  54.0491020  40.5899270  28.4923370  54.5345220  39.6397630
  14.2493040  61.3223990  44.1477540  14.1290640  62.0486080  43.5358810
  13.9393930  60.5526900  43.6705450  11.8878410  64.4939130  49.9546180
  11.9658830  64.6287900  49.0101900  12.5020090  63.7855020  50.1474300
  13.1326040  66.1939320  46.3652360  12.7254120  66.3353910  45.5105960
  14.0239050  65.9099480  46.1623570  29.0888180  66.6403230  54.7024600
  29.2151240  66.4015110  53.7841780  29.1309560  65.8087770  55.1746680
  28.9412190  58.6935690  55.6674340  28.3256460  59.2015360  55.1389800
  28.6208610  57.7934020  55.6100280  11.9437930  65.5353300  52.4940640
  12.1068970  65.0658660  51.6760010  12.4090380  65.0276860  53.1589480
  16.7156700  54.6659060  47.5301210  16.2724850  55.4468600  47.1985730
  17.2741690  54.9888950  48.2372150  21.0026510  57.5327580  53.1336530
  20.5405880  57.7410600  53.9456470  20.6004620  56.7186930  52.8307200
  26.0031020  58.7536530  54.2633190  25.1524610  58.4542280  54.5842260
  25.8432810  58.9978540  53.3517010  23.0980730  60.2538280  56.3631980
  23.4234140  59.4202030  56.0234210  23.8861060  60.7766800  56.5110310
  19.8315520  54.2869760  42.4107040  19.2069700  54.2829630  43.1360350
  19.7445640  53.4200720  42.0143010  18.7532600  55.2106390  49.3890810
  19.0504930  56.1169220  49.3082830  19.3018160  54.7225170  48.7750380
  16.5070920  59.7892630  45.2582460  16.2811840  59.5729800  46.1629080
  15.7263450  60.2221090  44.9128430  23.7368680  59.7956000  43.8573110
  23.1377570  60.5191800  43.6736730  24.2848290  59.7332780  43.0749560
  18.9470130  60.6878210  55.9242730  18.8513730  59.7472940  55.7743130
  19.7902110  60.9093280  55.5290800  22.3433550  58.4319540  45.8876390
  22.7363120  58.7491740  45.0745080  22.7050400  57.5531420  46.0020910
  14.0780670  57.0991880  54.0776510  13.6844060  57.9467090  54.2849290
  13.3899070  56.4618250  54.2685150  11.3797720  55.0220340  48.1106590
  11.0910770  55.5923200  48.8231570  12.1243480  54.5424790  48.4737820
  11.5667950  58.9640460  39.3209310  11.4842620  59.9071220  39.4624300
  11.2151010  58.8215370  38.4421660  22.9288690  61.0225290  49.9827170
  22.1969810  61.5312100  50.3317270  22.5313030  60.2055270  49.6815950
  19.3666080  57.6979490  48.3879660  19.3702140  57.2569440  47.5384200
  20.2617200  58.0196820  48.4951480  15.2168460  57.5805980  47.3473870
  14.8768510  58.0581210  48.1040920  14.4545780  57.1271100  46.9874970
  19.4286230  58.6991570  41.3786420  19.5499050  58.6578050  42.3272240
  19.0434740  59.5615720  41.2233150  23.3914600  56.4758970  49.3950110
  23.4087340  56.9267620  50.2391960  23.1430180  55.5764610  49.6083550
  18.4407730  61.0092710  40.7769720  17.8724630  60.5610960  40.1505630
  19.1496730  61.3685490  40.2434870  26.8185350  53.8891150  55.2336490
  27.1431120  53.1580810  55.7594470  26.8541860  53.5704790  54.3317480
  13.5176910  64.9104730  54.6536450  13.1331700  64.2698400  55.2519410
  13.8289100  65.6140850  55.2231180  19.6674050  61.7581270  50.1345070
  20.0344180  61.2839840  50.8806410  19.4779110  62.6322840  50.4753410
  12.5314540  56.5024960  46.2638540  12.2461460  56.1380630  47.1017160
  12.4693400  55.7705420  45.6501680  17.4573420  60.7989910  52.4529280
  17.1530490  61.6781890  52.6779640  18.4119880  60.8589700  52.4886720
  15.9855210  65.0050900  43.0496130  15.2117470  64.4648520  42.8894850
  16.7149840  64.4857510  42.7113890  26.7443190  64.0016260  48.8422520
  27.4642310  64.4971550  48.4518630  26.5425010  63.3234150  48.1976390
  22.2053130  55.3954220  42.9851910  21.3917740  54.8967390  42.9097220
  22.0115080  56.2352470  42.5688260  22.1261990  64.0725320  54.7291520
  22.0599300  63.1520990  54.4749110  21.4967130  64.1700760  55.4436160
  24.9201520  59.7673870  41.2814070  25.8081140  60.0791100  41.1065410
  24.8906610  58.8946120  40.8894650  16.0292610  64.6731280  46.6874940
  16.5471280  63.8699540  46.6331830  15.5776630  64.6110420  47.5291770
  20.9162110  65.9397560  41.9602240  21.2577810  66.6839790  41.4645560
  20.0874820  66.2528680  42.3227070  13.5137150  61.6392650  53.6000640
  13.1552090  62.3046500  54.1873980  13.2191710  60.8076200  53.9713260
  16.7150270  62.0976890  56.4840190  16.4150410  62.2434070  55.5868010
  17.4861510  61.5382180  56.3913580  27.1915790  61.0785710  40.7493930
  27.1079510  61.5099930  39.8990370  27.9109980  61.5384060  41.1820750
  28.2689930  63.5353230  53.8263900  27.5438120  64.1282010  53.6293290
  28.7965390  63.5276770  53.0277270  23.7989520  65.2613400  47.3247750
  24.1513340  64.6641530  46.6649120  22.9151850  64.9357630  47.4956000
  19.8852800  66.0211090  44.7318160  20.5723930  66.5680300  45.1125750
  19.0985220  66.5651820  44.7667770  12.0245200  61.6383910  40.2235240
  12.8940050  61.9208710  40.5071160  11.5335520  62.4519780  40.1084050
  19.1880010  63.0257120  44.3443520  19.6442790  63.8362370  44.5703710
  18.8368220  62.7080260  45.1762010  15.0891790  53.3694770  44.8166040
  14.9606420  53.3612670  45.7650960  14.2653810  53.7077860  44.4657050
  12.0885720  55.1285890  54.2772740  11.3744240  55.3282810  54.8825350
  12.5080760  54.3525460  54.6487540  26.1916670  64.7416370  41.6766570
  25.9038370  65.2029060  42.4644450  26.9868840  64.2814140  41.9450790
  14.0091710  63.4557380  42.3517300  13.4019660  64.1956280  42.3612600
  14.4841060  63.5456740  41.5255500  23.5824500  57.6208200  52.0274190
  23.9505320  56.8003410  52.3553760  22.7222700  57.6810090  52.4429840
  26.9486530  56.5765140  42.8361750  26.3199690  56.6810810  42.1219980
  26.4538450  56.7961920  43.6255630  18.9170560  58.8551090  44.2519630
  18.2086710  59.3237430  44.6933240  19.2015040  58.1973100  44.8864820
  20.5426490  60.2747790  52.2512160  21.0411740  60.7493610  52.9164010
  20.6849440  59.3511310  52.4582190  22.9485990  55.5801750  45.6915420
  22.8253770  55.5987880  44.7424930  23.8970550  55.6280690  45.8113820
  17.1205580  57.1636170  41.6270340  17.9696110  57.6006320  41.5610530
  16.7536850  57.4756430  42.4542400  27.7493350  56.4915750  53.0940550
  27.2466950  57.2321150  53.4334360  28.5650010  56.8799750  52.7777340
  26.0415360  61.7348930  46.5401910  25.1005500  61.7499160  46.7149600
  26.3559430  60.9484890  46.9862210  16.0197000  63.4168530  40.1005870
  16.7860270  63.3049890  40.6631300  16.0971690  62.7206500  39.4482640
  14.7143760  60.8493600  40.7838760  14.7947350  59.9021110  40.8956160
  15.6063510  61.1800480  40.8899420  12.2414560  62.6708520  56.0194930
  12.7453580  62.0915800  56.5911160  11.5021980  62.9548750  56.5571300
  19.1438180  65.3922710  39.5741220  19.0388820  64.7775060  40.3002600
  18.9762400  64.8688600  38.7904230  19.2952500  64.0779510  55.5530450
  18.5298170  64.6464510  55.4685120  19.4768460  63.7855720  54.6598680
  22.3840910  64.4542740  40.1783210  21.8351010  64.9012040  40.8225950
  23.0060170  63.9491990  40.7020880  26.4375850  65.8084840  56.1105470
  27.1785320  66.1460600  55.6072930  25.6748530  65.9776900  55.5575240
  18.0516030  63.4133660  42.0748510  18.4732450  63.2473530  42.9179900
  18.1766870  62.6033890  41.5803650  16.2143450  59.3930210  54.8819490
  15.6839910  58.9021160  54.2542830  16.8831520  59.8214410  54.3477420
  20.5643670  62.4371270  39.3225610  21.0849330  61.7220290  38.9566760
  21.2112070  63.0757140  39.6226120  25.1121510  63.8599670  54.6460680
  25.5262530  64.0144750  55.4951100  24.1772510  63.9854890  54.8086460
  25.5843680  61.1995830  56.6499830  26.1664450  60.4448150  56.5620310
  25.7605450  61.7303270  55.8731310  16.7015750  56.3592580  54.9616780
  16.6072620  55.7413330  54.2367650  16.1213140  57.0858870  54.7346690
  19.4677190  54.9165820  51.9944170  19.0194490  54.9390080  51.1489720
  18.8342390  54.5184840  52.5914470  19.8736740  63.8120150  52.6156610
  20.2924850  64.6552880  52.4432850  18.9545370  63.9492190  52.3863390
  22.2100640  61.5436330  53.9994450  22.3296850  60.9477470  54.7389290
  23.0694640  61.5806020  53.5795750  24.5488540  62.0973520  52.5756960
  24.0223760  62.6216140  51.9722100  24.8919880  62.7300910  53.2066690
  16.9474930  59.4866890  39.0206670  16.7463990  58.6234250  39.3820010
  16.7766980  59.4000250  38.0828270  18.9769410  58.0857680  55.2570270
  19.5669100  57.7773530  55.9448090  18.1589650  57.6137430  55.4130170
  23.7962840  57.7023490  55.4903290  23.1078360  57.0405030  55.4253280
  24.5168860  57.2561760  55.9351750  24.4263240  54.2975120  41.5493550
  24.7065530  53.4543020  41.9052970  23.6528970  54.5298230  42.0632300
  15.7457730  56.5867510  39.0084550  16.0483630  56.5934940  38.1003700
  16.4852320  56.2365370  39.5052210  18.9642660  55.5302130  39.9940750
  18.6164660  54.8526120  39.4143200  19.1655430  55.0691640  40.8084140
  14.7687860  65.8909930  39.8414350  15.2062730  66.4339600  40.4971930
  15.2535590  65.0656880  39.8510690  28.8043960  63.5351850  42.1597460
  29.5662870  64.1048500  42.2657150  28.8198330  62.9679050  42.9305770
  12.3048300  62.0589780  46.3905120  11.6497140  61.7901420  45.7464820
  13.1426250  61.9494260  45.9407100  29.8103930  64.3901950  47.0039390
  30.1812760  63.6069270  46.5975360  30.4505860  65.0791050  46.8256690
  26.7937690  65.7738530  52.4169710  25.9797530  66.2035690  52.6795500
  27.2011890  66.3856940  51.8038760  28.8563130  63.8286220  39.3169980
  29.1311970  64.7365100  39.1889200  28.6673870  63.7648750  40.2531970
  25.2538740  56.8531070  40.6123610  25.6723620  56.6662050  39.7720270
  24.9474800  56.0010120  40.9226540  28.7528470  61.7655210  44.3099410
  28.3772070  60.9983140  43.8780700  28.0231590  62.1477910  44.7974340
  13.3424230  62.4442350  50.9308460  13.7097270  62.3569750  51.8104480
  12.7735050  61.6808900  50.8315320  28.1428090  60.9126730  53.9438930
  27.9114180  60.6839480  53.0436880  28.4032640  61.8326280  53.8983820
  12.8940230  59.3551440  54.8366880  11.9996280  59.3218200  55.1760590
  13.4337780  59.5538230  55.6018130  26.5816160  56.1383160  56.7218630
  27.4586340  56.1466560  57.1052630  26.5937000  55.4014000  56.1110980
  11.5186380  59.2688710  42.3330450  10.6150460  59.5318910  42.1582110
  12.0027000  59.5399880  41.5530410  28.0279430  59.9912700  47.6106650
  28.5516910  59.4975350  46.9796820  28.6138850  60.1263060  48.3554220
  28.2069150  60.0752570  51.1326200  27.2571860  60.0416110  51.2471190
  28.3882160  60.9852680  50.8975970  14.0613590  58.3254250  40.2424830
  14.7705290  57.9037470  39.7572110  13.3453530  58.3929480  39.6108180
  13.7087750  54.3793580  39.2827480  14.4315880  54.9202520  39.6008700
  13.9812270  54.1057000  38.4069020  27.5179400  59.2486050  43.5499060
  28.0138520  59.0156920  44.3347940  27.3195470  58.4097890  43.1336700
  13.3979940  53.6299770  49.1850100  14.0456130  53.0797150  48.7445260
  13.8181780  53.8842920  50.0065910  28.9466560  57.8847000  46.0836740
  28.8365840  57.7303040  47.0219010  29.7074150  57.3567940  45.8412150
  27.2932280  53.8241130  52.5419740  27.9304500  54.4375270  52.9078930
  27.4407170  53.8601790  51.5968970  29.8356830  55.7154920  39.3242880
  30.7606140  55.5836100  39.1161170  29.8132620  55.7947740  40.2779330
  29.9095320  56.4865580  41.9499590  29.1146820  56.4210700  42.4792500
  30.1138600  57.4216220  41.9384940  13.1511940  53.7855440  51.9275420
  12.8026760  54.2419260  52.6933600  12.8199640  52.8912570  52.0097850
  20.6636760  54.9767320  55.4494840  20.6025650  55.5689150  56.1990250
  21.6037140  54.8693280  55.3045100  23.3011320  54.6337380  55.0887130
  23.9151730  54.9516670  54.4268210  23.8460880  54.1485970  55.7082990
  13.8232580  53.3131640  55.2026190  14.3715570  53.1319690  54.4392300
  13.8887890  52.5225750  55.7382500  24.0419360  53.1969520  51.4156420
  23.1679200  53.5304630  51.2129350  23.9330110  52.7242700  52.2408290
  24.9491340  55.4040390  52.7998140  24.6204700  54.5892150  52.4199870
  25.8973640  55.3610200  52.6763830  21.7894180  54.1139360  50.3549330
  21.0065970  54.5884860  50.6346090  21.4957110  53.2094190  50.2462510
  26.3415250  54.8162460  48.3998420  26.7823340  54.7607560  47.5520020
  26.0722840  55.7320470  48.4708600  28.2053820  54.4477700  46.4107240
  28.1442220  53.5038920  46.2638260  28.9845850  54.5557790  46.9560700
  13.1334590  54.4186840  42.8763050  13.8913950  54.5315720  42.3027080
  12.6711760  55.2556040  42.8306480  19.6748400  56.5326110  45.8665360
  18.8622910  56.1583000  45.5261240  20.1790040  55.7771190  46.1686550
  24.1773380  53.1968560  47.1048430  24.7802750  53.7688770  47.5796950
  23.4366370  53.7608000  46.8822330  27.3207980  53.5990120  42.3788710
  27.5158610  54.4973570  42.6456140  26.5337850  53.3677200  42.8721660
  15.5059740  54.9450890  41.4165020  16.0352500  54.1580690  41.2872970
  16.1388060  55.6242080  41.6500550  17.6997580  54.6826030  44.4710410
  17.0700320  53.9813340  44.6380540  17.1602720  55.4430160  44.2543570
  17.8253140  53.9610010  56.9062900  17.5437410  54.4643610  56.1423720
  18.2072840  53.1631760  56.5405030  23.3326750  61.3956060  27.8478110
  23.2520800  60.4810670  27.5769820  22.9191170  61.8923130  27.1417820
  21.4644790  63.1735080  29.7287380  20.6886890  62.6935520  30.0185950
  22.1157720  62.4940730  29.5543540  15.4810620  63.4854890  30.6063140
  14.6495500  63.2303600  31.0059650  16.0891600  63.5565660  31.3421060
  13.8902570  58.4456780  24.3905530  13.0019270  58.7872750  24.2885410
  14.1743760  58.2457100  23.4986360  11.8535580  61.0462430  30.2745230
  12.4251690  60.2784630  30.2748870  11.8537120  61.3451190  29.3651840
  20.9053780  65.8492270  29.7357540  20.8362060  64.9082210  29.5746670
  21.6673640  65.9393680  30.3080110  13.0960450  56.4546790  32.0614160
  12.9163290  55.5572540  32.3416920  12.6940530  57.0018660  32.7361110
  21.9358950  58.6562650  29.9626470  22.3123770  57.7834530  29.8500140
  21.8378460  58.9921350  29.0716910  16.0663960  57.0288280  25.4243910
  16.1730710  57.9292010  25.7312670  15.1556320  56.9806250  25.1338560
  25.7183070  56.1513090  26.8954810  26.5392690  55.6609660  26.9380290
  25.7517150  56.7410750  27.6486650  13.7147120  58.9507290  30.6696500
  14.3957230  59.2145660  31.2883900  13.3995170  58.1108160  31.0034510
  17.9071690  59.9974650  29.7569090  18.4149910  60.4955620  30.3974110
  18.4384930  59.2209850  29.5808450  30.0082620  58.1679840  33.4598440
  29.3034790  58.5561550  32.9413550  30.2740540  58.8630130  34.0619370
  16.1907790  54.6373210  34.0232510  16.1926230  55.1545600  33.2178410
  15.3612100  54.1603390  34.0002440  22.5778880  64.7492520  25.5222410
  21.9596150  65.2141970  24.9585130  23.0902130  65.4420000  25.9391920
  17.4410640  64.2768390  32.2006010  17.1080020  64.9037310  32.8427080
  17.6177320  64.8030270  31.4207680  25.9544550  58.0913470  29.6682350
  25.2500120  58.3798360  30.2485460  26.3156710  58.9013580  29.3081910
  15.8723120  56.3483170  32.0302960  16.2139930  57.1925220  31.7356830
  14.9338930  56.4966910  32.1468300  11.9462080  65.4349050  22.8962040
  11.5690060  65.9236150  22.1646940  12.2035150  66.1074330  23.5268570
  29.0231470  57.5368260  30.0591560  28.0756380  57.5707240  30.1906990
  29.3481460  58.3507210  30.4440920  26.4011490  66.2748950  25.7345180
  26.2907820  65.3323280  25.8594600  26.3979740  66.6364590  26.6207940
  24.5051510  64.4562570  31.9737620  24.9220300  64.2422680  31.1391080
  25.2291330  64.7135360  32.5446240  21.9431770  61.9014270  25.0907670
  21.0161050  61.8351650  25.3196140  22.0956590  62.8394400  24.9762910
  21.9300850  58.1731270  22.0874830  20.9904520  58.3345230  22.1727290
  22.2484110  58.8916950  21.5410820  28.4513610  62.8549790  32.0653860
  27.6232240  62.9242880  31.5903990  29.0464090  63.4404100  31.5969690
  25.9729060  63.4634570  25.5942920  25.3541480  63.1254120  24.9469220
  25.9553510  62.8194330  26.3022110  25.4155620  59.6419110  33.0108730
  25.0026800  60.4672820  33.2648720  24.6831570  59.0564150  32.8185090
  17.5488410  62.4279010  27.8727400  17.1445410  61.7156260  27.3773300
  17.6351530  62.0832250  28.7615440  18.0170110  66.1146570  30.0366610
  17.7198400  65.5092040  29.3574390  18.9669930  66.1523880  29.9255970
  16.2617030  59.2022220  31.6526440  16.8131620  59.3117560  30.8779690
  16.7760540  59.5759820  32.3681670  17.1088540  65.8528260  36.6874410
  16.2117070  66.0768230  36.9347810  17.1341410  65.9763200  35.7385810
  24.1493760  62.7021380  22.6015670  24.5887040  61.8643810  22.4553490
  24.8622180  63.3350780  22.6879810  15.9359760  62.7241580  35.2631780
  15.7967530  63.5964380  35.6319180  15.0541120  62.3814390  35.1179720
  27.7310900  53.9564190  20.9156710  27.4183560  54.0491020  21.8155780
  28.4923370  54.5345220  20.8654140  14.2493040  61.3223990  25.3734050
  14.1290640  62.0486080  24.7615320  13.9393930  60.5526900  24.8961960
  11.8878410  64.4939130  31.1802690  11.9658830  64.6287900  30.2358410
  12.5020090  63.7855020  31.3730810  13.1326040  66.1939320  27.5908870
  12.7254120  66.3353910  26.7362470  14.0239050  65.9099480  27.3880080
  29.0888180  66.6403230  35.9281110  29.2151240  66.4015110  35.0098290
  29.1309560  65.8087770  36.4003190  28.9412190  58.6935690  36.8930850
  28.3256460  59.2015360  36.3646310  28.6208610  57.7934020  36.8356790
  11.9437930  65.5353300  33.7197150  12.1068970  65.0658660  32.9016520
  12.4090380  65.0276860  34.3845990  16.7156700  54.6659060  28.7557720
  16.2724850  55.4468600  28.4242240  17.2741690  54.9888950  29.4628660
  21.0026510  57.5327580  34.3593040  20.5405880  57.7410600  35.1712980
  20.6004620  56.7186930  34.0563710  26.0031020  58.7536530  35.4889700
  25.1524610  58.4542280  35.8098770  25.8432810  58.9978540  34.5773520
  23.0980730  60.2538280  37.5888490  23.4234140  59.4202030  37.2490720
  23.8861060  60.7766800  37.7366820  19.8315520  54.2869760  23.6363550
  19.2069700  54.2829630  24.3616860  19.7445640  53.4200720  23.2399520
  16.5070920  59.7892630  26.4838970  16.2811840  59.5729800  27.3885590
  15.7263450  60.2221090  26.1384940  23.7368680  59.7956000  25.0829620
  23.1377570  60.5191800  24.8993240  24.2848290  59.7332780  24.3006070
  18.9470130  60.6878210  37.1499240  18.8513730  59.7472940  36.9999640
  19.7902110  60.9093280  36.7547310  22.3433550  58.4319540  27.1132900
  22.7363120  58.7491740  26.3001590  22.7050400  57.5531420  27.2277420
  14.0780670  57.0991880  35.3033020  13.6844060  57.9467090  35.5105800
  13.3899070  56.4618250  35.4941660  20.6525720  57.1826850  38.3729760
  19.9624040  56.9899050  39.0075850  21.3958020  57.4661490  38.9054060
  11.3797720  55.0220340  29.3363100  11.0910770  55.5923200  30.0488080
  12.1243480  54.5424790  29.6994330  11.5667950  58.9640460  20.5465820
  11.4842620  59.9071220  20.6880810  11.2151010  58.8215370  19.6678170
  22.9288690  61.0225290  31.2083680  22.1969810  61.5312100  31.5573780
  22.5313030  60.2055270  30.9072460  19.3666080  57.6979490  29.6136170
  19.3702140  57.2569440  28.7640710  20.2617200  58.0196820  29.7207990
  15.2168460  57.5805980  28.5730380  14.8768510  58.0581210  29.3297430
  14.4545780  57.1271100  28.2131480  19.4286230  58.6991570  22.6042930
  19.5499050  58.6578050  23.5528750  19.0434740  59.5615720  22.4489660
  23.3914600  56.4758970  30.6206620  23.4087340  56.9267620  31.4648470
  23.1430180  55.5764610  30.8340060  18.4407730  61.0092710  22.0026230
  17.8724630  60.5610960  21.3762140  19.1496730  61.3685490  21.4691380
  26.8185350  53.8891150  36.4593000  27.1431120  53.1580810  36.9850980
  26.8541860  53.5704790  35.5573990  13.5176910  64.9104730  35.8792960
  13.1331700  64.2698400  36.4775920  13.8289100  65.6140850  36.4487690
  19.6674050  61.7581270  31.3601580  20.0344180  61.2839840  32.1062920
  19.4779110  62.6322840  31.7009920  12.5314540  56.5024960  27.4895050
  12.2461460  56.1380630  28.3273670  12.4693400  55.7705420  26.8758190
  17.4573420  60.7989910  33.6785790  17.1530490  61.6781890  33.9036150
  18.4119880  60.8589700  33.7143230  15.9855210  65.0050900  24.2752640
  15.2117470  64.4648520  24.1151360  16.7149840  64.4857510  23.9370400
  26.7443190  64.0016260  30.0679030  27.4642310  64.4971550  29.6775140
  26.5425010  63.3234150  29.4232900  22.2053130  55.3954220  24.2108420
  21.3917740  54.8967390  24.1353730  22.0115080  56.2352470  23.7944770
  22.1261990  64.0725320  35.9548030  22.0599300  63.1520990  35.7005620
  21.4967130  64.1700760  36.6692670  24.9201520  59.7673870  22.5070580
  25.8081140  60.0791100  22.3321920  24.8906610  58.8946120  22.1151160
  16.0292610  64.6731280  27.9131450  16.5471280  63.8699540  27.8588340
  15.5776630  64.6110420  28.7548280  20.9162110  65.9397560  23.1858750
  21.2577810  66.6839790  22.6902070  20.0874820  66.2528680  23.5483580
  13.5137150  61.6392650  34.8257150  13.1552090  62.3046500  35.4130490
  13.2191710  60.8076200  35.1969770  16.7150270  62.0976890  37.7096700
  16.4150410  62.2434070  36.8124520  17.4861510  61.5382180  37.6170090
  27.1915790  61.0785710  21.9750440  27.1079510  61.5099930  21.1246880
  27.9109980  61.5384060  22.4077260  28.2689930  63.5353230  35.0520410
  27.5438120  64.1282010  34.8549800  28.7965390  63.5276770  34.2533780
  23.7989520  65.2613400  28.5504260  24.1513340  64.6641530  27.8905630
  22.9151850  64.9357630  28.7212510  19.8852800  66.0211090  25.9574670
  20.5723930  66.5680300  26.3382260  19.0985220  66.5651820  25.9924280
  12.0245200  61.6383910  21.4491750  12.8940050  61.9208710  21.7327670
  11.5335520  62.4519780  21.3340560  19.1880010  63.0257120  25.5700030
  19.6442790  63.8362370  25.7960220  18.8368220  62.7080260  26.4018520
  15.0891790  53.3694770  26.0422550  14.9606420  53.3612670  26.9907470
  14.2653810  53.7077860  25.6913560  12.0885720  55.1285890  35.5029250
  11.3744240  55.3282810  36.1081860  12.5080760  54.3525460  35.8744050
  26.1916670  64.7416370  22.9023080  25.9038370  65.2029060  23.6900960
  26.9868840  64.2814140  23.1707300  14.0091710  63.4557380  23.5773810
  13.4019660  64.1956280  23.5869110  14.4841060  63.5456740  22.7512010
  23.5824500  57.6208200  33.2530700  23.9505320  56.8003410  33.5810270
  22.7222700  57.6810090  33.6686350  26.9486530  56.5765140  24.0618260
  26.3199690  56.6810810  23.3476490  26.4538450  56.7961920  24.8512140
  18.9170560  58.8551090  25.4776140  18.2086710  59.3237430  25.9189750
  19.2015040  58.1973100  26.1121330  20.5426490  60.2747790  33.4768670
  21.0411740  60.7493610  34.1420520  20.6849440  59.3511310  33.6838700
  22.9485990  55.5801750  26.9171930  22.8253770  55.5987880  25.9681440
  23.8970550  55.6280690  27.0370330  17.1205580  57.1636170  22.8526850
  17.9696110  57.6006320  22.7867040  16.7536850  57.4756430  23.6798910
  27.7493350  56.4915750  34.3197060  27.2466950  57.2321150  34.6590870
  28.5650010  56.8799750  34.0033850  26.0415360  61.7348930  27.7658420
  25.1005500  61.7499160  27.9406110  26.3559430  60.9484890  28.2118720
  16.0197000  63.4168530  21.3262380  16.7860270  63.3049890  21.8887810
  16.0971690  62.7206500  20.6739150  14.7143760  60.8493600  22.0095270
  14.7947350  59.9021110  22.1212670  15.6063510  61.1800480  22.1155930
  23.3581380  66.2914930  38.2490800  22.7519540  66.3146530  37.5086550
  23.0535490  65.5597970  38.7858050  12.2414560  62.6708520  37.2451440
  12.7453580  62.0915800  37.8167670  11.5021980  62.9548750  37.7827810
  19.1438180  65.3922710  20.7997730  19.0388820  64.7775060  21.5259110
  18.9762400  64.8688600  20.0160740  19.2952500  64.0779510  36.7786960
  18.5298170  64.6464510  36.6941630  19.4768460  63.7855720  35.8855190
  22.3840910  64.4542740  21.4039720  21.8351010  64.9012040  22.0482460
  23.0060170  63.9491990  21.9277390  26.4375850  65.8084840  37.3361980
  27.1785320  66.1460600  36.8329440  25.6748530  65.9776900  36.7831750
  14.2737640  60.8138110  38.1401510  14.3142980  60.5151980  39.0486740
  15.1283140  61.2145720  37.9809030  18.0516030  63.4133660  23.3005020
  18.4732450  63.2473530  24.1436410  18.1766870  62.6033890  22.8060160
  16.2143450  59.3930210  36.1076000  15.6839910  58.9021160  35.4799340
  16.8831520  59.8214410  35.5733930  20.5643670  62.4371270  20.5482120
  21.0849330  61.7220290  20.1823270  21.2112070  63.0757140  20.8482630
  25.1121510  63.8599670  35.8717190  25.5262530  64.0144750  36.7207610
  24.1772510  63.9854890  36.0342970  25.5843680  61.1995830  37.8756340
  26.1664450  60.4448150  37.7876820  25.7605450  61.7303270  37.0987820
  16.7015750  56.3592580  36.1873290  16.6072620  55.7413330  35.4624160
  16.1213140  57.0858870  35.9603200  19.8736740  63.8120150  33.8413120
  20.2924850  64.6552880  33.6689360  18.9545370  63.9492190  33.6119900
  22.2100640  61.5436330  35.2250960  22.3296850  60.9477470  35.9645800
  23.0694640  61.5806020  34.8052260  24.5488540  62.0973520  33.8013470
  24.0223760  62.6216140  33.1978610  24.8919880  62.7300910  34.4323200
  16.9474930  59.4866890  20.2463180  16.7463990  58.6234250  20.6076520
  16.7766980  59.4000250  19.3084780  18.9769410  58.0857680  36.4826780
  19.5669100  57.7773530  37.1704600  18.1589650  57.6137430  36.6386680
  23.7962840  57.7023490  36.7159800  23.1078360  57.0405030  36.6509790
  24.5168860  57.2561760  37.1608260  24.4263240  54.2975120  22.7750060
  24.7065530  53.4543020  23.1309480  23.6528970  54.5298230  23.2888810
  15.7457730  56.5867510  20.2341060  16.0483630  56.5934940  19.3260210
  16.4852320  56.2365370  20.7308720  18.9642660  55.5302130  21.2197260
  18.6164660  54.8526120  20.6399710  19.1655430  55.0691640  22.0340650
  14.7687860  65.8909930  21.0670860  15.2062730  66.4339600  21.7228440
  15.2535590  65.0656880  21.0767200  28.8043960  63.5351850  23.3853970
  29.5662870  64.1048500  23.4913660  28.8198330  62.9679050  24.1562280
  12.3048300  62.0589780  27.6161630  11.6497140  61.7901420  26.9721330
  13.1426250  61.9494260  27.1663610  29.8103930  64.3901950  28.2295900
  30.1812760  63.6069270  27.8231870  30.4505860  65.0791050  28.0513200
  26.7937690  65.7738530  33.6426220  25.9797530  66.2035690  33.9052010
  27.2011890  66.3856940  33.0295270  28.8563130  63.8286220  20.5426490
  29.1311970  64.7365100  20.4145710  28.6673870  63.7648750  21.4788480
  25.2538740  56.8531070  21.8380120  25.6723620  56.6662050  20.9976780
  24.9474800  56.0010120  22.1483050  28.7528470  61.7655210  25.5355920
  28.3772070  60.9983140  25.1037210  28.0231590  62.1477910  26.0230850
  13.3424230  62.4442350  32.1564970  13.7097270  62.3569750  33.0360990
  12.7735050  61.6808900  32.0571830  28.1428090  60.9126730  35.1695440
  27.9114180  60.6839480  34.2693390  28.4032640  61.8326280  35.1240330
  12.8940230  59.3551440  36.0623390  11.9996280  59.3218200  36.4017100
  13.4337780  59.5538230  36.8274640  26.5816160  56.1383160  37.9475140
  27.4586340  56.1466560  38.3309140  26.5937000  55.4014000  37.3367490
  11.5186380  59.2688710  23.5586960  10.6150460  59.5318910  23.3838620
  12.0027000  59.5399880  22.7786920  28.0279430  59.9912700  28.8363160
  28.5516910  59.4975350  28.2053330  28.6138850  60.1263060  29.5810730
  28.2069150  60.0752570  32.3582710  27.2571860  60.0416110  32.4727700
  28.3882160  60.9852680  32.1232480  14.0613590  58.3254250  21.4681340
  14.7705290  57.9037470  20.9828620  13.3453530  58.3929480  20.8364690
  13.7087750  54.3793580  20.5083990  14.4315880  54.9202520  20.8265210
  13.9812270  54.1057000  19.6325530  27.5179400  59.2486050  24.7755570
  28.0138520  59.0156920  25.5604450  27.3195470  58.4097890  24.3593210
  13.3979940  53.6299770  30.4106610  14.0456130  53.0797150  29.9701770
  13.8181780  53.8842920  31.2322420  28.9466560  57.8847000  27.3093250
  28.8365840  57.7303040  28.2475520  29.7074150  57.3567940  27.0668660
  27.2932280  53.8241130  33.7676250  27.9304500  54.4375270  34.1335440
  27.4407170  53.8601790  32.8225480  29.8356830  55.7154920  20.5499390
  30.7606140  55.5836100  20.3417680  29.8132620  55.7947740  21.5035840
  29.9095320  56.4865580  23.1756100  29.1146820  56.4210700  23.7049010
  30.1138600  57.4216220  23.1641450  13.1511940  53.7855440  33.1531930
  12.8026760  54.2419260  33.9190110  12.8199640  52.8912570  33.2354360
  13.8232580  53.3131640  36.4282700  14.3715570  53.1319690  35.6648810
  13.8887890  52.5225750  36.9639010  24.9491340  55.4040390  34.0254650
  24.6204700  54.5892150  33.6456380  25.8973640  55.3610200  33.9020340
  26.3415250  54.8162460  29.6254930  26.7823340  54.7607560  28.7776530
  26.0722840  55.7320470  29.6965110  28.2053820  54.4477700  27.6363750
  28.1442220  53.5038920  27.4894770  28.9845850  54.5557790  28.1817210
  13.1334590  54.4186840  24.1019560  13.8913950  54.5315720  23.5283590
  12.6711760  55.2556040  24.0562990  19.6748400  56.5326110  27.0921870
  18.8622910  56.1583000  26.7517750  20.1790040  55.7771190  27.3943060
  24.1773380  53.1968560  28.3304940  24.7802750  53.7688770  28.8053460
  23.4366370  53.7608000  28.1078840  27.3207980  53.5990120  23.6045220
  27.5158610  54.4973570  23.8712650  26.5337850  53.3677200  24.0978170
  15.5059740  54.9450890  22.6421530  16.0352500  54.1580690  22.5129480
  16.1388060  55.6242080  22.8757060  17.6997580  54.6826030  25.6966920
  17.0700320  53.9813340  25.8637050  17.1602720  55.4430160  25.4800080
  17.8253140  53.9610010  38.1319410  17.5437410  54.4643610  37.3680230
  18.2072840  53.1631760  37.7661540  24.4268600  53.3763590  38.7099880
  24.3134050  53.6958200  39.6051400  25.2438340  53.7776100  38.4137160
  23.3326750  61.3956060   9.0734620  23.2520800  60.4810670   8.8026330
  22.9191170  61.8923130   8.3674330  21.4644790  63.1735080  10.9543890
  20.6886890  62.6935520  11.2442460  22.1157720  62.4940730  10.7800050
  15.4810620  63.4854890  11.8319650  14.6495500  63.2303600  12.2316160
  16.0891600  63.5565660  12.5677570  13.8902570  58.4456780   5.6162040
  13.0019270  58.7872750   5.5141920  14.1743760  58.2457100   4.7242870
  11.8535580  61.0462430  11.5001740  12.4251690  60.2784630  11.5005380
  11.8537120  61.3451190  10.5908350  20.9053780  65.8492270  10.9614050
  20.8362060  64.9082210  10.8003180  21.6673640  65.9393680  11.5336620
  13.0960450  56.4546790  13.2870670  12.9163290  55.5572540  13.5673430
  12.6940530  57.0018660  13.9617620  21.9358950  58.6562650  11.1882980
  22.3123770  57.7834530  11.0756650  21.8378460  58.9921350  10.2973420
  16.0663960  57.0288280   6.6500420  16.1730710  57.9292010   6.9569180
  15.1556320  56.9806250   6.3595070  25.7183070  56.1513090   8.1211320
  26.5392690  55.6609660   8.1636800  25.7517150  56.7410750   8.8743160
  13.7147120  58.9507290  11.8953010  14.3957230  59.2145660  12.5140410
  13.3995170  58.1108160  12.2291020  17.9071690  59.9974650  10.9825600
  18.4149910  60.4955620  11.6230620  18.4384930  59.2209850  10.8064960
  30.0082620  58.1679840  14.6854950  29.3034790  58.5561550  14.1670060
  30.2740540  58.8630130  15.2875880  16.1907790  54.6373210  15.2489020
  16.1926230  55.1545600  14.4434920  15.3612100  54.1603390  15.2258950
  22.5778880  64.7492520   6.7478920  21.9596150  65.2141970   6.1841640
  23.0902130  65.4420000   7.1648430  17.4410640  64.2768390  13.4262520
  17.1080020  64.9037310  14.0683590  17.6177320  64.8030270  12.6464190
  25.9544550  58.0913470  10.8938860  25.2500120  58.3798360  11.4741970
  26.3156710  58.9013580  10.5338420  15.8723120  56.3483170  13.2559470
  16.2139930  57.1925220  12.9613340  14.9338930  56.4966910  13.3724810
  11.9462080  65.4349050   4.1218550  11.5690060  65.9236150   3.3903450
  12.2035150  66.1074330   4.7525080  29.0231470  57.5368260  11.2848070
  28.0756380  57.5707240  11.4163500  29.3481460  58.3507210  11.6697430
  19.5551010  53.8365440   9.5804060  19.8625990  53.2812330   8.8639560
  18.6251710  53.9709900   9.3977050  26.4011490  66.2748950   6.9601690
  26.2907820  65.3323280   7.0851110  26.3979740  66.6364590   7.8464450
  24.5051510  64.4562570  13.1994130  24.9220300  64.2422680  12.3647590
  25.2291330  64.7135360  13.7702750  21.9431770  61.9014270   6.3164180
  21.0161050  61.8351650   6.5452650  22.0956590  62.8394400   6.2019420
  21.9300850  58.1731270   3.3131340  20.9904520  58.3345230   3.3983800
  22.2484110  58.8916950   2.7667330  28.4513610  62.8549790  13.2910370
  27.6232240  62.9242880  12.8160500  29.0464090  63.4404100  12.8226200
  25.9729060  63.4634570   6.8199430  25.3541480  63.1254120   6.1725730
  25.9553510  62.8194330   7.5278620  25.4155620  59.6419110  14.2365240
  25.0026800  60.4672820  14.4905230  24.6831570  59.0564150  14.0441600
  17.5488410  62.4279010   9.0983910  17.1445410  61.7156260   8.6029810
  17.6351530  62.0832250   9.9871950  18.0170110  66.1146570  11.2623120
  17.7198400  65.5092040  10.5830900  18.9669930  66.1523880  11.1512480
  16.2617030  59.2022220  12.8782950  16.8131620  59.3117560  12.1036200
  16.7760540  59.5759820  13.5938180  17.1088540  65.8528260  17.9130920
  16.2117070  66.0768230  18.1604320  17.1341410  65.9763200  16.9642320
  24.1493760  62.7021380   3.8272180  24.5887040  61.8643810   3.6810000
  24.8622180  63.3350780   3.9136320  15.9359760  62.7241580  16.4888290
  15.7967530  63.5964380  16.8575690  15.0541120  62.3814390  16.3436230
  27.7310900  53.9564190   2.1413220  27.4183560  54.0491020   3.0412290
  28.4923370  54.5345220   2.0910650  14.2493040  61.3223990   6.5990560
  14.1290640  62.0486080   5.9871830  13.9393930  60.5526900   6.1218470
  11.8878410  64.4939130  12.4059200  11.9658830  64.6287900  11.4614920
  12.5020090  63.7855020  12.5987320  13.1326040  66.1939320   8.8165380
  12.7254120  66.3353910   7.9618980  14.0239050  65.9099480   8.6136590
  29.0888180  66.6403230  17.1537620  29.2151240  66.4015110  16.2354800
  29.1309560  65.8087770  17.6259700  28.9412190  58.6935690  18.1187360
  28.3256460  59.2015360  17.5902820  28.6208610  57.7934020  18.0613300
  11.9437930  65.5353300  14.9453660  12.1068970  65.0658660  14.1273030
  12.4090380  65.0276860  15.6102500  16.7156700  54.6659060   9.9814230
  16.2724850  55.4468600   9.6498750  17.2741690  54.9888950  10.6885170
  21.0026510  57.5327580  15.5849550  20.5405880  57.7410600  16.3969490
  20.6004620  56.7186930  15.2820220  26.0031020  58.7536530  16.7146210
  25.1524610  58.4542280  17.0355280  25.8432810  58.9978540  15.8030030
  23.0980730  60.2538280  18.8145000  23.4234140  59.4202030  18.4747230
  23.8861060  60.7766800  18.9623330  19.8315520  54.2869760   4.8620060
  19.2069700  54.2829630   5.5873370  19.7445640  53.4200720   4.4656030
  18.7532600  55.2106390  11.8403830  19.0504930  56.1169220  11.7595850
  19.3018160  54.7225170  11.2263400  16.5070920  59.7892630   7.7095480
  16.2811840  59.5729800   8.6142100  15.7263450  60.2221090   7.3641450
  23.7368680  59.7956000   6.3086130  23.1377570  60.5191800   6.1249750
  24.2848290  59.7332780   5.5262580  18.9470130  60.6878210  18.3755750
  18.8513730  59.7472940  18.2256150  19.7902110  60.9093280  17.9803820
  22.3433550  58.4319540   8.3389410  22.7363120  58.7491740   7.5258100
  22.7050400  57.5531420   8.4533930  14.0780670  57.0991880  16.5289530
  13.6844060  57.9467090  16.7362310  13.3899070  56.4618250  16.7198170
  20.6525720  57.1826850  19.5986270  19.9624040  56.9899050  20.2332360
  21.3958020  57.4661490  20.1310570  11.3797720  55.0220340  10.5619610
  11.0910770  55.5923200  11.2744590  12.1243480  54.5424790  10.9250840
  22.9288690  61.0225290  12.4340190  22.1969810  61.5312100  12.7830290
  22.5313030  60.2055270  12.1328970  19.3666080  57.6979490  10.8392680
  19.3702140  57.2569440   9.9897220  20.2617200  58.0196820  10.9464500
  15.2168460  57.5805980   9.7986890  14.8768510  58.0581210  10.5553940
  14.4545780  57.1271100   9.4387990  19.4286230  58.6991570   3.8299440
  19.5499050  58.6578050   4.7785260  19.0434740  59.5615720   3.6746170
  23.3914600  56.4758970  11.8463130  23.4087340  56.9267620  12.6904980
  23.1430180  55.5764610  12.0596570  18.4407730  61.0092710   3.2282740
  17.8724630  60.5610960   2.6018650  19.1496730  61.3685490   2.6947890
  26.8185350  53.8891150  17.6849510  27.1431120  53.1580810  18.2107490
  26.8541860  53.5704790  16.7830500  13.5176910  64.9104730  17.1049470
  13.1331700  64.2698400  17.7032430  13.8289100  65.6140850  17.6744200
  19.6674050  61.7581270  12.5858090  20.0344180  61.2839840  13.3319430
  19.4779110  62.6322840  12.9266430  12.5314540  56.5024960   8.7151560
  12.2461460  56.1380630   9.5530180  12.4693400  55.7705420   8.1014700
  17.4573420  60.7989910  14.9042300  17.1530490  61.6781890  15.1292660
  18.4119880  60.8589700  14.9399740  15.9855210  65.0050900   5.5009150
  15.2117470  64.4648520   5.3407870  16.7149840  64.4857510   5.1626910
  26.7443190  64.0016260  11.2935540  27.4642310  64.4971550  10.9031650
  26.5425010  63.3234150  10.6489410  22.2053130  55.3954220   5.4364930
  21.3917740  54.8967390   5.3610240  22.0115080  56.2352470   5.0201280
  22.1261990  64.0725320  17.1804540  22.0599300  63.1520990  16.9262130
  21.4967130  64.1700760  17.8949180  24.9201520  59.7673870   3.7327090
  25.8081140  60.0791100   3.5578430  24.8906610  58.8946120   3.3407670
  16.0292610  64.6731280   9.1387960  16.5471280  63.8699540   9.0844850
  15.5776630  64.6110420   9.9804790  20.9162110  65.9397560   4.4115260
  21.2577810  66.6839790   3.9158580  20.0874820  66.2528680   4.7740090
  13.5137150  61.6392650  16.0513660  13.1552090  62.3046500  16.6387000
  13.2191710  60.8076200  16.4226280  16.7150270  62.0976890  18.9353210
  16.4150410  62.2434070  18.0381030  17.4861510  61.5382180  18.8426600
  27.1915790  61.0785710   3.2006950  27.1079510  61.5099930   2.3503390
  27.9109980  61.5384060   3.6333770  28.2689930  63.5353230  16.2776920
  27.5438120  64.1282010  16.0806310  28.7965390  63.5276770  15.4790290
  23.7989520  65.2613400   9.7760770  24.1513340  64.6641530   9.1162140
  22.9151850  64.9357630   9.9469020  19.8852800  66.0211090   7.1831180
  20.5723930  66.5680300   7.5638770  19.0985220  66.5651820   7.2180790
  12.0245200  61.6383910   2.6748260  12.8940050  61.9208710   2.9584180
  11.5335520  62.4519780   2.5597070  19.1880010  63.0257120   6.7956540
  19.6442790  63.8362370   7.0216730  18.8368220  62.7080260   7.6275030
  15.0891790  53.3694770   7.2679060  14.9606420  53.3612670   8.2163980
  14.2653810  53.7077860   6.9170070  12.0885720  55.1285890  16.7285760
  11.3744240  55.3282810  17.3338370  12.5080760  54.3525460  17.1000560
  26.1916670  64.7416370   4.1279590  25.9038370  65.2029060   4.9157470
  26.9868840  64.2814140   4.3963810  14.0091710  63.4557380   4.8030320
  13.4019660  64.1956280   4.8125620  14.4841060  63.5456740   3.9768520
  23.5824500  57.6208200  14.4787210  23.9505320  56.8003410  14.8066780
  22.7222700  57.6810090  14.8942860  26.9486530  56.5765140   5.2874770
  26.3199690  56.6810810   4.5733000  26.4538450  56.7961920   6.0768650
  18.9170560  58.8551090   6.7032650  18.2086710  59.3237430   7.1446260
  19.2015040  58.1973100   7.3377840  20.5426490  60.2747790  14.7025180
  21.0411740  60.7493610  15.3677030  20.6849440  59.3511310  14.9095210
  22.9485990  55.5801750   8.1428440  22.8253770  55.5987880   7.1937950
  23.8970550  55.6280690   8.2626840  17.1205580  57.1636170   4.0783360
  17.9696110  57.6006320   4.0123550  16.7536850  57.4756430   4.9055420
  27.7493350  56.4915750  15.5453570  27.2466950  57.2321150  15.8847380
  28.5650010  56.8799750  15.2290360  26.0415360  61.7348930   8.9914930
  25.1005500  61.7499160   9.1662620  26.3559430  60.9484890   9.4375230
  16.0197000  63.4168530   2.5518890  16.7860270  63.3049890   3.1144320
  16.0971690  62.7206500   1.8995660  14.7143760  60.8493600   3.2351780
  14.7947350  59.9021110   3.3469180  15.6063510  61.1800480   3.3412440
  23.3581380  66.2914930  19.4747310  22.7519540  66.3146530  18.7343060
  23.0535490  65.5597970  20.0114560  12.2414560  62.6708520  18.4707950
  12.7453580  62.0915800  19.0424180  11.5021980  62.9548750  19.0084320
  19.2952500  64.0779510  18.0043470  18.5298170  64.6464510  17.9198140
  19.4768460  63.7855720  17.1111700  22.3840910  64.4542740   2.6296230
  21.8351010  64.9012040   3.2738970  23.0060170  63.9491990   3.1533900
  26.4375850  65.8084840  18.5618490  27.1785320  66.1460600  18.0585950
  25.6748530  65.9776900  18.0088260  14.2737640  60.8138110  19.3658020
  14.3142980  60.5151980  20.2743250  15.1283140  61.2145720  19.2065540
  18.0516030  63.4133660   4.5261530  18.4732450  63.2473530   5.3692920
  18.1766870  62.6033890   4.0316670  16.2143450  59.3930210  17.3332510
  15.6839910  58.9021160  16.7055850  16.8831520  59.8214410  16.7990440
  25.1121510  63.8599670  17.0973700  25.5262530  64.0144750  17.9464120
  24.1772510  63.9854890  17.2599480  25.5843680  61.1995830  19.1012850
  26.1664450  60.4448150  19.0133330  25.7605450  61.7303270  18.3244330
  16.7015750  56.3592580  17.4129800  16.6072620  55.7413330  16.6880670
  16.1213140  57.0858870  17.1859710  19.4677190  54.9165820  14.4457190
  19.0194490  54.9390080  13.6002740  18.8342390  54.5184840  15.0427490
  19.8736740  63.8120150  15.0669630  20.2924850  64.6552880  14.8945870
  18.9545370  63.9492190  14.8376410  22.2100640  61.5436330  16.4507470
  22.3296850  60.9477470  17.1902310  23.0694640  61.5806020  16.0308770
  24.5488540  62.0973520  15.0269980  24.0223760  62.6216140  14.4235120
  24.8919880  62.7300910  15.6579710  18.9769410  58.0857680  17.7083290
  19.5669100  57.7773530  18.3961110  18.1589650  57.6137430  17.8643190
  23.7962840  57.7023490  17.9416310  23.1078360  57.0405030  17.8766300
  24.5168860  57.2561760  18.3864770  24.4263240  54.2975120   4.0006570
  24.7065530  53.4543020   4.3565990  23.6528970  54.5298230   4.5145320
  18.9642660  55.5302130   2.4453770  18.6164660  54.8526120   1.8656220
  19.1655430  55.0691640   3.2597160  14.7687860  65.8909930   2.2927370
  15.2062730  66.4339600   2.9484950  15.2535590  65.0656880   2.3023710
  28.8043960  63.5351850   4.6110480  29.5662870  64.1048500   4.7170170
  28.8198330  62.9679050   5.3818790  12.3048300  62.0589780   8.8418140
  11.6497140  61.7901420   8.1977840  13.1426250  61.9494260   8.3920120
  29.8103930  64.3901950   9.4552410  30.1812760  63.6069270   9.0488380
  30.4505860  65.0791050   9.2769710  26.7937690  65.7738530  14.8682730
  25.9797530  66.2035690  15.1308520  27.2011890  66.3856940  14.2551780
  28.8563130  63.8286220   1.7683000  29.1311970  64.7365100   1.6402220
  28.6673870  63.7648750   2.7044990  25.2538740  56.8531070   3.0636630
  25.6723620  56.6662050   2.2233290  24.9474800  56.0010120   3.3739560
  28.7528470  61.7655210   6.7612430  28.3772070  60.9983140   6.3293720
  28.0231590  62.1477910   7.2487360  13.3424230  62.4442350  13.3821480
  13.7097270  62.3569750  14.2617500  12.7735050  61.6808900  13.2828340
  28.1428090  60.9126730  16.3951950  27.9114180  60.6839480  15.4949900
  28.4032640  61.8326280  16.3496840  12.8940230  59.3551440  17.2879900
  11.9996280  59.3218200  17.6273610  13.4337780  59.5538230  18.0531150
  26.5816160  56.1383160  19.1731650  27.4586340  56.1466560  19.5565650
  26.5937000  55.4014000  18.5624000  11.5186380  59.2688710   4.7843470
  10.6150460  59.5318910   4.6095130  12.0027000  59.5399880   4.0043430
  28.0279430  59.9912700  10.0619670  28.5516910  59.4975350   9.4309840
  28.6138850  60.1263060  10.8067240  28.2069150  60.0752570  13.5839220
  27.2571860  60.0416110  13.6984210  28.3882160  60.9852680  13.3488990
  14.0613590  58.3254250   2.6937850  14.7705290  57.9037470   2.2085130
  13.3453530  58.3929480   2.0621200  27.5179400  59.2486050   6.0012080
  28.0138520  59.0156920   6.7860960  27.3195470  58.4097890   5.5849720
  13.3979940  53.6299770  11.6363120  14.0456130  53.0797150  11.1958280
  13.8181780  53.8842920  12.4578930  28.9466560  57.8847000   8.5349760
  28.8365840  57.7303040   9.4732030  29.7074150  57.3567940   8.2925170
  27.2932280  53.8241130  14.9932760  27.9304500  54.4375270  15.3591950
  27.4407170  53.8601790  14.0481990  29.9095320  56.4865580   4.4012610
  29.1146820  56.4210700   4.9305520  30.1138600  57.4216220   4.3897960
  13.1511940  53.7855440  14.3788440  12.8026760  54.2419260  15.1446620
  12.8199640  52.8912570  14.4610870  20.6636760  54.9767320  17.9007860
  20.6025650  55.5689150  18.6503270  21.6037140  54.8693280  17.7558120
  23.3011320  54.6337380  17.5400150  23.9151730  54.9516670  16.8781230
  23.8460880  54.1485970  18.1596010  13.8232580  53.3131640  17.6539210
  14.3715570  53.1319690  16.8905320  13.8887890  52.5225750  18.1895520
  24.0419360  53.1969520  13.8669440  23.1679200  53.5304630  13.6642370
  23.9330110  52.7242700  14.6921310  24.9491340  55.4040390  15.2511160
  24.6204700  54.5892150  14.8712890  25.8973640  55.3610200  15.1276850
  21.7894180  54.1139360  12.8062350  21.0065970  54.5884860  13.0859110
  21.4957110  53.2094190  12.6975530  26.3415250  54.8162460  10.8511440
  26.7823340  54.7607560  10.0033040  26.0722840  55.7320470  10.9221620
  28.2053820  54.4477700   8.8620260  28.1442220  53.5038920   8.7151280
  28.9845850  54.5557790   9.4073720  13.1334590  54.4186840   5.3276070
  13.8913950  54.5315720   4.7540100  12.6711760  55.2556040   5.2819500
  19.6748400  56.5326110   8.3178380  18.8622910  56.1583000   7.9774260
  20.1790040  55.7771190   8.6199570  24.1773380  53.1968560   9.5561450
  24.7802750  53.7688770  10.0309970  23.4366370  53.7608000   9.3335350
  27.3207980  53.5990120   4.8301730  27.5158610  54.4973570   5.0969160
  26.5337850  53.3677200   5.3234680  15.5059740  54.9450890   3.8678040
  16.0352500  54.1580690   3.7385990  16.1388060  55.6242080   4.1013570
  17.6997580  54.6826030   6.9223430  17.0700320  53.9813340   7.0893560
  17.1602720  55.4430160   6.7056590  17.8253140  53.9610010  19.3575920
  17.5437410  54.4643610  18.5936740  18.2072840  53.1631760  18.9918050
  24.4268600  53.3763590  19.9356390  24.3134050  53.6958200  20.8307910
  25.2438340  53.7776100  19.6393670  23.3326750  42.6212570  46.6221600
  23.2520800  41.7067180  46.3513310  22.9191170  43.1179640  45.9161310
  21.4644790  44.3991590  48.5030870  20.6886890  43.9192030  48.7929440
  22.1157720  43.7197240  48.3287030  15.4810620  44.7111400  49.3806630
  14.6495500  44.4560110  49.7803140  16.0891600  44.7822170  50.1164550
  25.4852220  48.8051780  47.2830000  25.0233750  48.0339020  47.6117170
  26.2977770  48.8317850  47.7882450  15.4611880  48.7451490  49.5764650
  15.7639920  47.8549230  49.3974870  16.2055470  49.3021710  49.3486900
  13.8902570  39.6713290  43.1649020  13.0019270  40.0129260  43.0628900
  14.1743760  39.4713610  42.2729850  11.8535580  42.2718940  49.0488720
  12.4251690  41.5041140  49.0492360  11.8537120  42.5707700  48.1395330
  21.7115530  51.0909790  46.9033990  21.0926970  51.5467290  46.3328430
  22.5667310  51.2461250  46.5023690  20.9053780  47.0748780  48.5101030
  20.8362060  46.1338720  48.3490160  21.6673640  47.1650190  49.0823600
  13.0960450  37.6803300  50.8357650  12.9163290  36.7829050  51.1160410
  12.6940530  38.2275170  51.5104600  21.9358950  39.8819160  48.7369960
  22.3123770  39.0091040  48.6243630  21.8378460  40.2177860  47.8460400
  16.0663960  38.2544790  44.1987400  16.1730710  39.1548520  44.5056160
  15.1556320  38.2062760  43.9082050  25.7183070  37.3769600  45.6698300
  26.5392690  36.8866170  45.7123780  25.7517150  37.9667260  46.4230140
  13.7147120  40.1763800  49.4439990  14.3957230  40.4402170  50.0627390
  13.3995170  39.3364670  49.7778000  17.9071690  41.2231160  48.5312580
  18.4149910  41.7212130  49.1717600  18.4384930  40.4466360  48.3551940
  30.0082620  39.3936350  52.2341930  29.3034790  39.7818060  51.7157040
  30.2740540  40.0886640  52.8362860  16.1907790  35.8629720  52.7976000
  16.1926230  36.3802110  51.9921900  15.3612100  35.3859900  52.7745930
  22.5778880  45.9749030  44.2965900  21.9596150  46.4398480  43.7328620
  23.0902130  46.6676510  44.7135410  17.4410640  45.5024900  50.9749500
  17.1080020  46.1293820  51.6170570  17.6177320  46.0286780  50.1951170
  25.9544550  39.3169980  48.4425840  25.2500120  39.6054870  49.0228950
  26.3156710  40.1270090  48.0825400  15.8723120  37.5739680  50.8046450
  16.2139930  38.4181730  50.5100320  14.9338930  37.7223420  50.9211790
  16.6529740  47.4705700  52.7898680  17.2703740  48.1456780  52.5083130
  15.7922860  47.8793680  52.6986180  11.9462080  46.6605560  41.6705530
  11.5690060  47.1492660  40.9390430  12.2035150  47.3330840  42.3012060
  27.5707330  48.9345110  50.7053320  26.8870850  49.6044220  50.6969990
  28.1101620  49.1325760  49.9398180  29.0231470  38.7624770  48.8335050
  28.0756380  38.7963750  48.9650480  29.3481460  39.5763720  49.2184410
  19.5551010  35.0621950  47.1291040  19.8625990  34.5068840  46.4126540
  18.6251710  35.1966410  46.9464030  25.1066070  50.7789240  49.4198500
  25.1193230  50.3751530  48.5520760  24.5541290  51.5536530  49.3159930
  26.4011490  47.5005460  44.5088670  26.2907820  46.5579790  44.6338090
  26.3979740  47.8621100  45.3951430  24.5051510  45.6819080  50.7481110
  24.9220300  45.4679190  49.9134570  25.2291330  45.9391870  51.3189730
  21.9431770  43.1270780  43.8651160  21.0161050  43.0608160  44.0939630
  22.0956590  44.0650910  43.7506400  21.9300850  39.3987780  40.8618320
  20.9904520  39.5601740  40.9470780  22.2484110  40.1173460  40.3154310
  28.4513610  44.0806300  50.8397350  27.6232240  44.1499390  50.3647480
  29.0464090  44.6660610  50.3713180  25.9729060  44.6891080  44.3686410
  25.3541480  44.3510630  43.7212710  25.9553510  44.0450840  45.0765600
  25.4155620  40.8675620  51.7852220  25.0026800  41.6929330  52.0392210
  24.6831570  40.2820660  51.5928580  17.5488410  43.6535520  46.6470890
  17.1445410  42.9412770  46.1516790  17.6351530  43.3088760  47.5358930
  18.0170110  47.3403080  48.8110100  17.7198400  46.7348550  48.1317880
  18.9669930  47.3780390  48.6999460  16.2617030  40.4278730  50.4269930
  16.8131620  40.5374070  49.6523180  16.7760540  40.8016330  51.1425160
  26.1055720  50.9134950  52.4733200  25.6286280  51.7207140  52.2805810
  25.4217510  50.2613280  52.6259410  17.1088540  47.0784770  55.4617900
  16.2117070  47.3024740  55.7091300  17.1341410  47.2019710  54.5129300
  24.1493760  43.9277890  41.3759160  24.5887040  43.0900320  41.2296980
  24.8622180  44.5607290  41.4623300  15.9359760  43.9498090  54.0375270
  15.7967530  44.8220890  54.4062670  15.0541120  43.6070900  53.8923210
  22.2589140  48.8673960  45.3440400  22.6985050  49.6098290  44.9295790
  22.1976030  49.1100530  46.2679360  17.7340110  49.8919790  56.2460420
  17.7055540  50.2962740  55.3788850  17.5705080  48.9630150  56.0832020
  27.7310900  35.1820700  39.6900200  27.4183560  35.2747530  40.5899270
  28.4923370  35.7601730  39.6397630  14.2493040  42.5480500  44.1477540
  14.1290640  43.2742590  43.5358810  13.9393930  41.7783410  43.6705450
  11.8878410  45.7195640  49.9546180  11.9658830  45.8544410  49.0101900
  12.5020090  45.0111530  50.1474300  13.1326040  47.4195830  46.3652360
  12.7254120  47.5610420  45.5105960  14.0239050  47.1355990  46.1623570
  29.0888180  47.8659740  54.7024600  29.2151240  47.6271620  53.7841780
  29.1309560  47.0344280  55.1746680  22.9504920  51.5687740  53.2719410
  23.4649590  51.4795750  54.0741840  22.1074000  51.9147440  53.5647320
  24.9259320  51.8543080  42.7003410  24.7660460  51.5646020  43.5985240
  24.7606030  51.0783210  42.1648640  17.4047700  51.6341610  44.4775030
  17.2290180  50.7177150  44.2642830  16.5503440  51.9928900  44.7172830
  24.6285450  49.3630640  41.2601410  23.9350610  49.3607930  40.6003690
  25.3708310  48.9389960  40.8295580  24.1935380  50.9893350  45.3349900
  24.6492330  50.2082730  45.6488520  24.5327900  51.7000170  45.8791080
  28.9412190  39.9192200  55.6674340  28.3256460  40.4271870  55.1389800
  28.6208610  39.0190530  55.6100280  11.9437930  46.7609810  52.4940640
  12.1068970  46.2915170  51.6760010  12.4090380  46.2533370  53.1589480
  16.7156700  35.8915570  47.5301210  16.2724850  36.6725110  47.1985730
  17.2741690  36.2145460  48.2372150  21.0026510  38.7584090  53.1336530
  20.5405880  38.9667110  53.9456470  20.6004620  37.9443440  52.8307200
  26.0031020  39.9793040  54.2633190  25.1524610  39.6798790  54.5842260
  25.8432810  40.2235050  53.3517010  23.0980730  41.4794790  56.3631980
  23.4234140  40.6458540  56.0234210  23.8861060  42.0023310  56.5110310
  19.8315520  35.5126270  42.4107040  19.2069700  35.5086140  43.1360350
  19.7445640  34.6457230  42.0143010  18.7532600  36.4362900  49.3890810
  19.0504930  37.3425730  49.3082830  19.3018160  35.9481680  48.7750380
  16.5070920  41.0149140  45.2582460  16.2811840  40.7986310  46.1629080
  15.7263450  41.4477600  44.9128430  23.7368680  41.0212510  43.8573110
  23.1377570  41.7448310  43.6736730  24.2848290  40.9589290  43.0749560
  18.9470130  41.9134720  55.9242730  18.8513730  40.9729450  55.7743130
  19.7902110  42.1349790  55.5290800  22.3433550  39.6576050  45.8876390
  22.7363120  39.9748250  45.0745080  22.7050400  38.7787930  46.0020910
  14.0780670  38.3248390  54.0776510  13.6844060  39.1723600  54.2849290
  13.3899070  37.6874760  54.2685150  11.3797720  36.2476850  48.1106590
  11.0910770  36.8179710  48.8231570  12.1243480  35.7681300  48.4737820
  11.5667950  40.1896970  39.3209310  11.4842620  41.1327730  39.4624300
  11.2151010  40.0471880  38.4421660  22.9288690  42.2481800  49.9827170
  22.1969810  42.7568610  50.3317270  22.5313030  41.4311780  49.6815950
  19.3666080  38.9236000  48.3879660  19.3702140  38.4825950  47.5384200
  20.2617200  39.2453330  48.4951480  15.2168460  38.8062490  47.3473870
  14.8768510  39.2837720  48.1040920  14.4545780  38.3527610  46.9874970
  19.4286230  39.9248080  41.3786420  19.5499050  39.8834560  42.3272240
  19.0434740  40.7872230  41.2233150  23.3914600  37.7015480  49.3950110
  23.4087340  38.1524130  50.2391960  23.1430180  36.8021120  49.6083550
  18.4407730  42.2349220  40.7769720  17.8724630  41.7867470  40.1505630
  19.1496730  42.5942000  40.2434870  26.8185350  35.1147660  55.2336490
  27.1431120  34.3837320  55.7594470  26.8541860  34.7961300  54.3317480
  13.5176910  46.1361240  54.6536450  13.1331700  45.4954910  55.2519410
  13.8289100  46.8397360  55.2231180  19.6674050  42.9837780  50.1345070
  20.0344180  42.5096350  50.8806410  19.4779110  43.8579350  50.4753410
  12.5314540  37.7281470  46.2638540  12.2461460  37.3637140  47.1017160
  12.4693400  36.9961930  45.6501680  17.4573420  42.0246420  52.4529280
  17.1530490  42.9038400  52.6779640  18.4119880  42.0846210  52.4886720
  15.9855210  46.2307410  43.0496130  15.2117470  45.6905030  42.8894850
  16.7149840  45.7114020  42.7113890  26.7443190  45.2272770  48.8422520
  27.4642310  45.7228060  48.4518630  26.5425010  44.5490660  48.1976390
  22.2053130  36.6210730  42.9851910  21.3917740  36.1223900  42.9097220
  22.0115080  37.4608980  42.5688260  22.1261990  45.2981830  54.7291520
  22.0599300  44.3777500  54.4749110  21.4967130  45.3957270  55.4436160
  24.9201520  40.9930380  41.2814070  25.8081140  41.3047610  41.1065410
  24.8906610  40.1202630  40.8894650  16.0292610  45.8987790  46.6874940
  16.5471280  45.0956050  46.6331830  15.5776630  45.8366930  47.5291770
  20.9162110  47.1654070  41.9602240  21.2577810  47.9096300  41.4645560
  20.0874820  47.4785190  42.3227070  13.5137150  42.8649160  53.6000640
  13.1552090  43.5303010  54.1873980  13.2191710  42.0332710  53.9713260
  16.7150270  43.3233400  56.4840190  16.4150410  43.4690580  55.5868010
  17.4861510  42.7638690  56.3913580  22.0578720  48.1202400  54.4795320
  22.0723260  47.1883360  54.2614230  21.3503820  48.2062160  55.1185090
  27.1915790  42.3042220  40.7493930  27.1079510  42.7356440  39.8990370
  27.9109980  42.7640570  41.1820750  28.2689930  44.7609740  53.8263900
  27.5438120  45.3538520  53.6293290  28.7965390  44.7533280  53.0277270
  28.2203040  49.1584480  43.4776060  27.5779200  48.5040100  43.7519780
  27.8333700  49.5639570  42.7016730  23.7989520  46.4869910  47.3247750
  24.1513340  45.8898040  46.6649120  22.9151850  46.1614140  47.4956000
  19.8852800  47.2467600  44.7318160  20.5723930  47.7936810  45.1125750
  19.0985220  47.7908330  44.7667770  12.0245200  42.8640420  40.2235240
  12.8940050  43.1465220  40.5071160  11.5335520  43.6776290  40.1084050
  19.1880010  44.2513630  44.3443520  19.6442790  45.0618880  44.5703710
  18.8368220  43.9336770  45.1762010  21.4912620  49.7619970  51.5735820
  22.1354840  49.9679350  52.2509240  21.8542060  49.0008370  51.1206670
  15.0891790  34.5951280  44.8166040  14.9606420  34.5869180  45.7650960
  14.2653810  34.9334370  44.4657050  22.7644700  47.7652320  50.2913270
  23.4066930  47.0645480  50.4045440  23.2894050  48.5450760  50.1110160
  26.6100420  48.0500940  40.0152410  26.3838000  47.3331380  40.6077050
  26.2196620  47.8013380  39.1774160  24.5382320  48.5647220  53.4949330
  24.8738560  49.1513910  54.1727250  23.6182660  48.4339930  53.7247120
  12.3916450  52.0767800  40.7896870  12.7514090  52.6757140  40.1354140
  12.2508790  52.6227690  41.5631900  12.0885720  36.3542400  54.2772740
  11.3744240  36.5539320  54.8825350  12.5080760  35.5781970  54.6487540
  26.1916670  45.9672880  41.6766570  25.9038370  46.4285570  42.4644450
  26.9868840  45.5070650  41.9450790  12.3758310  50.3422660  55.2639270
  12.4849430  49.4017400  55.1234660  11.7238870  50.6077410  54.6153000
  20.3670900  48.6138550  56.6637390  20.0467770  47.8947790  57.2083080
  19.6929260  49.2893620  56.7373450  18.4085070  49.4599000  41.6070540
  18.3995170  50.1928690  40.9915050  17.4883430  49.2130580  41.6997500
  14.0091710  44.6813890  42.3517300  13.4019660  45.4212790  42.3612600
  14.4841060  44.7713250  41.5255500  23.5824500  38.8464710  52.0274190
  23.9505320  38.0259920  52.3553760  22.7222700  38.9066600  52.4429840
  26.9486530  37.8021650  42.8361750  26.3199690  37.9067320  42.1219980
  26.4538450  38.0218430  43.6255630  21.3944670  49.5227240  40.2695730
  21.4956650  49.3191230  39.3397710  20.4946410  49.2685520  40.4743510
  18.9170560  40.0807600  44.2519630  18.2086710  40.5493940  44.6933240
  19.2015040  39.4229610  44.8864820  20.5426490  41.5004300  52.2512160
  21.0411740  41.9750120  52.9164010  20.6849440  40.5767820  52.4582190
  22.9485990  36.8058260  45.6915420  22.8253770  36.8244390  44.7424930
  23.8970550  36.8537200  45.8113820  20.0362780  52.0413560  44.9643400
  20.2904280  52.0034950  44.0422770  19.0875260  51.9146890  44.9571650
  17.1205580  38.3892680  41.6270340  17.9696110  38.8262830  41.5610530
  16.7536850  38.7012940  42.4542400  27.7493350  37.7172260  53.0940550
  27.2466950  38.4577660  53.4334360  28.5650010  38.1056260  52.7777340
  26.0415360  42.9605440  46.5401910  25.1005500  42.9755670  46.7149600
  26.3559430  42.1741400  46.9862210  16.0197000  44.6425040  40.1005870
  16.7860270  44.5306400  40.6631300  16.0971690  43.9463010  39.4482640
  14.7143760  42.0750110  40.7838760  14.7947350  41.1277620  40.8956160
  15.6063510  42.4056990  40.8899420  28.0440940  50.1314290  48.2156170
  28.1688360  50.9545460  48.6879980  28.9106500  49.9205020  47.8680320
  15.5158470  52.2245500  47.8873300  16.2520950  51.6760960  48.1581870
  15.8999390  53.0901510  47.7479290  12.4003950  48.2919070  43.7614810
  11.4743730  48.5340210  43.7520220  12.8660380  49.1193330  43.6399560
  18.6260780  51.3975810  39.7098870  19.4189390  51.6864640  39.2580660
  18.1065130  50.9667980  39.0311350  24.7881750  51.2451730  55.6343700
  25.7403500  51.1609750  55.5843940  24.6409970  51.9093440  56.3077490
  27.6790950  50.6245940  41.1335610  27.3932460  50.2111080  40.3189790
  27.4810500  51.5533650  41.0136130  12.2414560  43.8965030  56.0194930
  12.7453580  43.3172310  56.5911160  11.5021980  44.1805260  56.5571300
  19.1438180  46.6179220  39.5741220  19.0388820  46.0031570  40.3002600
  18.9762400  46.0945110  38.7904230  19.2952500  45.3036020  55.5530450
  18.5298170  45.8721020  55.4685120  19.4768460  45.0112230  54.6598680
  22.3840910  45.6799250  40.1783210  21.8351010  46.1268550  40.8225950
  23.0060170  45.1748500  40.7020880  26.4375850  47.0341350  56.1105470
  27.1785320  47.3717110  55.6072930  25.6748530  47.2033410  55.5575240
  18.0516030  44.6390170  42.0748510  18.4732450  44.4730040  42.9179900
  18.1766870  43.8290400  41.5803650  16.2143450  40.6186720  54.8819490
  15.6839910  40.1277670  54.2542830  16.8831520  41.0470920  54.3477420
  20.5643670  43.6627780  39.3225610  21.0849330  42.9476800  38.9566760
  21.2112070  44.3013650  39.6226120  25.1121510  45.0856180  54.6460680
  25.5262530  45.2401260  55.4951100  24.1772510  45.2111400  54.8086460
  25.5843680  42.4252340  56.6499830  26.1664450  41.6704660  56.5620310
  25.7605450  42.9559780  55.8731310  16.7015750  37.5849090  54.9616780
  16.6072620  36.9669840  54.2367650  16.1213140  38.3115380  54.7346690
  19.4677190  36.1422330  51.9944170  19.0194490  36.1646590  51.1489720
  18.8342390  35.7441350  52.5914470  19.8736740  45.0376660  52.6156610
  20.2924850  45.8809390  52.4432850  18.9545370  45.1748700  52.3863390
  22.2100640  42.7692840  53.9994450  22.3296850  42.1733980  54.7389290
  23.0694640  42.8062530  53.5795750  24.5488540  43.3230030  52.5756960
  24.0223760  43.8472650  51.9722100  24.8919880  43.9557420  53.2066690
  16.9474930  40.7123400  39.0206670  16.7463990  39.8490760  39.3820010
  16.7766980  40.6256760  38.0828270  17.7244160  51.3429670  53.7314340
  17.1865250  52.0675730  53.4123040  17.9778120  50.8660010  52.9411680
  18.9769410  39.3114190  55.2570270  19.5669100  39.0030040  55.9448090
  18.1589650  38.8393940  55.4130170  23.7962840  38.9280000  55.4903290
  23.1078360  38.2661540  55.4253280  24.5168860  38.4818270  55.9351750
  24.4263240  35.5231630  41.5493550  24.7065530  34.6799530  41.9052970
  23.6528970  35.7554740  42.0632300  15.7457730  37.8124020  39.0084550
  16.0483630  37.8191450  38.1003700  16.4852320  37.4621880  39.5052210
  20.5806370  52.5780880  53.9900990  20.5065070  53.4816020  54.2973360
  19.6785210  52.2592780  53.9623060  18.9642660  36.7558640  39.9940750
  18.6164660  36.0782630  39.4143200  19.1655430  36.2948150  40.8084140
  21.1291700  51.7439390  41.6127350  22.0242490  52.0824360  41.6346110
  21.1609330  51.0218800  40.9851630  14.7687860  47.1166440  39.8414350
  15.2062730  47.6596110  40.4971930  15.2535590  46.2913390  39.8510690
  11.9833660  49.9055470  47.2934610  12.3136670  49.0376530  47.0613250
  12.4124660  50.1113990  48.1239570  16.5795580  48.2364480  44.9536580
  16.2791120  48.1129450  45.8540490  16.4733070  47.3773070  44.5452310
  12.4723870  50.7726060  50.0316240  12.0354860  50.9526860  50.8640390
  13.0401550  51.5300680  49.8897960  28.1086050  50.2743060  54.3193550
  27.5088040  50.3335620  53.5757470  28.2379950  49.3348040  54.4490400
  29.3487500  48.0160880  39.6563260  28.5180460  48.0837530  40.1270490
  29.5259330  48.9065000  39.3530120  28.8043960  44.7608360  42.1597460
  29.5662870  45.3305010  42.2657150  28.8198330  44.1935560  42.9305770
  12.3048300  43.2846290  46.3905120  11.6497140  43.0157930  45.7464820
  13.1426250  43.1750770  45.9407100  29.8103930  45.6158460  47.0039390
  30.1812760  44.8325780  46.5975360  30.4505860  46.3047560  46.8256690
  26.7937690  46.9995040  52.4169710  25.9797530  47.4292200  52.6795500
  27.2011890  47.6113450  51.8038760  28.8563130  45.0542730  39.3169980
  29.1311970  45.9621610  39.1889200  28.6673870  44.9905260  40.2531970
  25.2538740  38.0787580  40.6123610  25.6723620  37.8918560  39.7720270
  24.9474800  37.2266630  40.9226540  28.7528470  42.9911720  44.3099410
  28.3772070  42.2239650  43.8780700  28.0231590  43.3734420  44.7974340
  13.3424230  43.6698860  50.9308460  13.7097270  43.5826260  51.8104480
  12.7735050  42.9065410  50.8315320  28.1428090  42.1383240  53.9438930
  27.9114180  41.9095990  53.0436880  28.4032640  43.0582790  53.8983820
  12.8940230  40.5807950  54.8366880  11.9996280  40.5474710  55.1760590
  13.4337780  40.7794740  55.6018130  26.5816160  37.3639670  56.7218630
  27.4586340  37.3723070  57.1052630  26.5937000  36.6270510  56.1110980
  11.5186380  40.4945220  42.3330450  10.6150460  40.7575420  42.1582110
  12.0027000  40.7656390  41.5530410  28.0279430  41.2169210  47.6106650
  28.5516910  40.7231860  46.9796820  28.6138850  41.3519570  48.3554220
  28.2069150  41.3009080  51.1326200  27.2571860  41.2672620  51.2471190
  28.3882160  42.2109190  50.8975970  14.0613590  39.5510760  40.2424830
  14.7705290  39.1293980  39.7572110  13.3453530  39.6185990  39.6108180
  13.7087750  35.6050090  39.2827480  14.4315880  36.1459030  39.6008700
  13.9812270  35.3313510  38.4069020  27.5179400  40.4742560  43.5499060
  28.0138520  40.2413430  44.3347940  27.3195470  39.6354400  43.1336700
  13.3979940  34.8556280  49.1850100  14.0456130  34.3053660  48.7445260
  13.8181780  35.1099430  50.0065910  28.9466560  39.1103510  46.0836740
  28.8365840  38.9559550  47.0219010  29.7074150  38.5824450  45.8412150
  27.2932280  35.0497640  52.5419740  27.9304500  35.6631780  52.9078930
  27.4407170  35.0858300  51.5968970  29.9095320  37.7122090  41.9499590
  29.1146820  37.6467210  42.4792500  30.1138600  38.6472730  41.9384940
  26.8513740  51.7513640  45.9437980  27.4472810  51.4298210  45.2672400
  27.1091890  51.2785460  46.7351250  13.1511940  35.0111950  51.9275420
  12.8026760  35.4675770  52.6933600  12.8199640  34.1169080  52.0097850
  14.7576310  48.1831550  56.0928610  14.7145940  47.8124460  56.9743070
  14.8887320  49.1209120  56.2330430  18.4582340  49.7391140  51.6938330
  18.2173700  50.0065700  50.8068850  19.3984980  49.9096870  51.7489190
  20.6636760  36.2023830  55.4494840  20.6025650  36.7945660  56.1990250
  21.6037140  36.0949790  55.3045100  23.3011320  35.8593890  55.0887130
  23.9151730  36.1773180  54.4268210  23.8460880  35.3742480  55.7082990
  29.7186500  51.7585520  52.4948970  29.2244780  52.1554390  51.7776100
  29.1099790  51.1334730  52.8886250  13.8232580  34.5388150  55.2026190
  14.3715570  34.3576200  54.4392300  13.8887890  33.7482260  55.7382500
  14.5964340  51.1293800  53.2126390  14.0024660  50.9978500  53.9516430
  14.5888180  50.2931940  52.7468490  24.0419360  34.4226030  51.4156420
  23.1679200  34.7561140  51.2129350  23.9330110  33.9499210  52.2408290
  24.9491340  36.6296900  52.7998140  24.6204700  35.8148660  52.4199870
  25.8973640  36.5866710  52.6763830  27.4025950  52.4008940  49.7735710
  26.9428920  53.1524750  49.3993730  26.7738410  51.6815410  49.7150510
  14.2276570  48.4952180  52.1634430  13.5010630  47.8757470  52.0960380
  14.2885720  48.8892790  51.2932510  17.8321670  50.7097180  48.9483840
  18.3486690  50.0984540  48.4232100  18.4819050  51.2125960  49.4394850
  20.5717170  51.6005670  49.7752820  20.8594980  51.3459970  48.8985830
  21.0840390  51.0483030  50.3658390  21.7894180  35.3395870  50.3549330
  21.0065970  35.8141370  50.6346090  21.4957110  34.4350700  50.2462510
  26.3415250  36.0418970  48.3998420  26.7823340  35.9864070  47.5520020
  26.0722840  36.9576980  48.4708600  28.2053820  35.6734210  46.4107240
  28.1442220  34.7295430  46.2638260  28.9845850  35.7814300  46.9560700
  12.5106570  51.8126570  45.3731190  12.3428610  51.1797250  46.0713080
  11.6441080  52.0185970  45.0225380  13.1334590  35.6443350  42.8763050
  13.8913950  35.7572230  42.3027080  12.6711760  36.4812550  42.8306480
  19.6748400  37.7582620  45.8665360  18.8622910  37.3839510  45.5261240
  20.1790040  37.0027700  46.1686550  24.1773380  34.4225070  47.1048430
  24.7802750  34.9945280  47.5796950  23.4366370  34.9864510  46.8822330
  27.3207980  34.8246630  42.3788710  27.5158610  35.7230080  42.6456140
  26.5337850  34.5933710  42.8721660  14.1169270  50.5059800  42.8181330
  13.5916890  50.8867830  42.1143290  14.0413850  51.1310570  43.5391040
  15.5059740  36.1707400  41.4165020  16.0352500  35.3837200  41.2872970
  16.1388060  36.8498590  41.6500550  17.6997580  35.9082540  44.4710410
  17.0700320  35.2069850  44.6380540  17.1602720  36.6686670  44.2543570
  20.6389530  52.5221770  57.1421020  21.5656840  52.2866040  57.1856980
  20.6239960  53.3493770  56.6607050  28.8734590  52.0647340  44.1395270
  29.0486780  51.3785080  43.4956190  28.1756160  52.5894390  43.7471940
  17.8253140  35.1866520  56.9062900  17.5437410  35.6900120  56.1423720
  18.2072840  34.3888270  56.5405030  16.7162240  52.4542180  41.6930580
  17.4481060  52.1701460  41.1454470  16.9755910  52.2155460  42.5829960
  15.8777030  48.5706910  41.6976910  15.2485910  49.0392010  42.2462740
  15.9924860  47.7256130  42.1323100  13.8902570  39.6713290  24.3905530
  13.0019270  40.0129260  24.2885410  14.1743760  39.4713610  23.4986360
  11.8535580  42.2718940  30.2745230  12.4251690  41.5041140  30.2748870
  11.8537120  42.5707700  29.3651840  13.0960450  37.6803300  32.0614160
  12.9163290  36.7829050  32.3416920  12.6940530  38.2275170  32.7361110
  16.0663960  38.2544790  25.4243910  16.1730710  39.1548520  25.7312670
  15.1556320  38.2062760  25.1338560  13.7147120  40.1763800  30.6696500
  14.3957230  40.4402170  31.2883900  13.3995170  39.3364670  31.0034510
  16.1907790  35.8629720  34.0232510  16.1926230  36.3802110  33.2178410
  15.3612100  35.3859900  34.0002440  15.8723120  37.5739680  32.0302960
  16.2139930  38.4181730  31.7356830  14.9338930  37.7223420  32.1468300
  11.9462080  46.6605560  22.8962040  11.5690060  47.1492660  22.1646940
  12.2035150  47.3330840  23.5268570  27.5707330  48.9345110  31.9309830
  26.8870850  49.6044220  31.9226500  28.1101620  49.1325760  31.1654690
  19.5551010  35.0621950  28.3547550  19.8625990  34.5068840  27.6383050
  18.6251710  35.1966410  28.1720540  26.4011490  47.5005460  25.7345180
  26.2907820  46.5579790  25.8594600  26.3979740  47.8621100  26.6207940
  21.9300850  39.3987780  22.0874830  20.9904520  39.5601740  22.1727290
  22.2484110  40.1173460  21.5410820  25.9729060  44.6891080  25.5942920
  25.3541480  44.3510630  24.9469220  25.9553510  44.0450840  26.3022110
  26.1055720  50.9134950  33.6989710  25.6286280  51.7207140  33.5062320
  25.4217510  50.2613280  33.8515920  17.1088540  47.0784770  36.6874410
  16.2117070  47.3024740  36.9347810  17.1341410  47.2019710  35.7385810
  24.1493760  43.9277890  22.6015670  24.5887040  43.0900320  22.4553490
  24.8622180  44.5607290  22.6879810  15.9359760  43.9498090  35.2631780
  15.7967530  44.8220890  35.6319180  15.0541120  43.6070900  35.1179720
  17.7340110  49.8919790  37.4716930  17.7055540  50.2962740  36.6045360
  17.5705080  48.9630150  37.3088530  27.7310900  35.1820700  20.9156710
  27.4183560  35.2747530  21.8155780  28.4923370  35.7601730  20.8654140
  29.6854930  50.6746890  38.7681100  30.1614650  51.1529780  39.4470180
  30.3062090  50.6064380  38.0426600  11.8878410  45.7195640  31.1802690
  11.9658830  45.8544410  30.2358410  12.5020090  45.0111530  31.3730810
  29.0888180  47.8659740  35.9281110  29.2151240  47.6271620  35.0098290
  29.1309560  47.0344280  36.4003190  24.9259320  51.8543080  23.9259920
  24.7660460  51.5646020  24.8241750  24.7606030  51.0783210  23.3905150
  17.4047700  51.6341610  25.7031540  17.2290180  50.7177150  25.4899340
  16.5503440  51.9928900  25.9429340  24.6285450  49.3630640  22.4857920
  23.9350610  49.3607930  21.8260200  25.3708310  48.9389960  22.0552090
  24.1935380  50.9893350  26.5606410  24.6492330  50.2082730  26.8745030
  24.5327900  51.7000170  27.1047590  11.9437930  46.7609810  33.7197150
  12.1068970  46.2915170  32.9016520  12.4090380  46.2533370  34.3845990
  16.7156700  35.8915570  28.7557720  16.2724850  36.6725110  28.4242240
  17.2741690  36.2145460  29.4628660  23.0980730  41.4794790  37.5888490
  23.4234140  40.6458540  37.2490720  23.8861060  42.0023310  37.7366820
  19.8315520  35.5126270  23.6363550  19.2069700  35.5086140  24.3616860
  19.7445640  34.6457230  23.2399520  18.7532600  36.4362900  30.6147320
  19.0504930  37.3425730  30.5339340  19.3018160  35.9481680  30.0006890
  18.9470130  41.9134720  37.1499240  18.8513730  40.9729450  36.9999640
  19.7902110  42.1349790  36.7547310  14.0780670  38.3248390  35.3033020
  13.6844060  39.1723600  35.5105800  13.3899070  37.6874760  35.4941660
  20.6525720  38.4083360  38.3729760  19.9624040  38.2155560  39.0075850
  21.3958020  38.6918000  38.9054060  11.3797720  36.2476850  29.3363100
  11.0910770  36.8179710  30.0488080  12.1243480  35.7681300  29.6994330
  11.5667950  40.1896970  20.5465820  11.4842620  41.1327730  20.6880810
  11.2151010  40.0471880  19.6678170  15.2168460  38.8062490  28.5730380
  14.8768510  39.2837720  29.3297430  14.4545780  38.3527610  28.2131480
  19.4286230  39.9248080  22.6042930  19.5499050  39.8834560  23.5528750
  19.0434740  40.7872230  22.4489660  18.4407730  42.2349220  22.0026230
  17.8724630  41.7867470  21.3762140  19.1496730  42.5942000  21.4691380
  26.8185350  35.1147660  36.4593000  27.1431120  34.3837320  36.9850980
  26.8541860  34.7961300  35.5573990  13.5176910  46.1361240  35.8792960
  13.1331700  45.4954910  36.4775920  13.8289100  46.8397360  36.4487690
  12.5314540  37.7281470  27.4895050  12.2461460  37.3637140  28.3273670
  12.4693400  36.9961930  26.8758190  22.1261990  45.2981830  35.9548030
  22.0599300  44.3777500  35.7005620  21.4967130  45.3957270  36.6692670
  13.5137150  42.8649160  34.8257150  13.1552090  43.5303010  35.4130490
  13.2191710  42.0332710  35.1969770  16.7150270  43.3233400  37.7096700
  16.4150410  43.4690580  36.8124520  17.4861510  42.7638690  37.6170090
  27.1915790  42.3042220  21.9750440  27.1079510  42.7356440  21.1246880
  27.9109980  42.7640570  22.4077260  28.2203040  49.1584480  24.7032570
  27.5779200  48.5040100  24.9776290  27.8333700  49.5639570  23.9273240
  12.0245200  42.8640420  21.4491750  12.8940050  43.1465220  21.7327670
  11.5335520  43.6776290  21.3340560  15.0891790  34.5951280  26.0422550
  14.9606420  34.5869180  26.9907470  14.2653810  34.9334370  25.6913560
  26.6100420  48.0500940  21.2408920  26.3838000  47.3331380  21.8333560
  26.2196620  47.8013380  20.4030670  12.3916450  52.0767800  22.0153380
  12.7514090  52.6757140  21.3610650  12.2508790  52.6227690  22.7888410
  12.0885720  36.3542400  35.5029250  11.3744240  36.5539320  36.1081860
  12.5080760  35.5781970  35.8744050  26.1916670  45.9672880  22.9023080
  25.9038370  46.4285570  23.6900960  26.9868840  45.5070650  23.1707300
  12.3758310  50.3422660  36.4895780  12.4849430  49.4017400  36.3491170
  11.7238870  50.6077410  35.8409510  18.4085070  49.4599000  22.8327050
  18.3995170  50.1928690  22.2171560  17.4883430  49.2130580  22.9254010
  21.3944670  49.5227240  21.4952240  21.4956650  49.3191230  20.5654220
  20.4946410  49.2685520  21.7000020  18.9170560  40.0807600  25.4776140
  18.2086710  40.5493940  25.9189750  19.2015040  39.4229610  26.1121330
  20.0362780  52.0413560  26.1899910  20.2904280  52.0034950  25.2679280
  19.0875260  51.9146890  26.1828160  17.1205580  38.3892680  22.8526850
  17.9696110  38.8262830  22.7867040  16.7536850  38.7012940  23.6798910
  16.0197000  44.6425040  21.3262380  16.7860270  44.5306400  21.8887810
  16.0971690  43.9463010  20.6739150  14.7143760  42.0750110  22.0095270
  14.7947350  41.1277620  22.1212670  15.6063510  42.4056990  22.1155930
  28.0440940  50.1314290  29.4412680  28.1688360  50.9545460  29.9136490
  28.9106500  49.9205020  29.0936830  12.4003950  48.2919070  24.9871320
  11.4743730  48.5340210  24.9776730  12.8660380  49.1193330  24.8656070
  14.5216750  51.4091570  38.3015390  15.3229480  51.7303620  38.7150790
  14.0068570  51.0487150  39.0235300  18.6260780  51.3975810  20.9355380
  19.4189390  51.6864640  20.4837170  18.1065130  50.9667980  20.2567860
  23.3581380  47.5171440  38.2490800  22.7519540  47.5403040  37.5086550
  23.0535490  46.7854480  38.7858050  27.6790950  50.6245940  22.3592120
  27.3932460  50.2111080  21.5446300  27.4810500  51.5533650  22.2392640
  12.2414560  43.8965030  37.2451440  12.7453580  43.3172310  37.8167670
  11.5021980  44.1805260  37.7827810  19.1438180  46.6179220  20.7997730
  19.0388820  46.0031570  21.5259110  18.9762400  46.0945110  20.0160740
  19.2952500  45.3036020  36.7786960  18.5298170  45.8721020  36.6941630
  19.4768460  45.0112230  35.8855190  22.3840910  45.6799250  21.4039720
  21.8351010  46.1268550  22.0482460  23.0060170  45.1748500  21.9277390
  26.4375850  47.0341350  37.3361980  27.1785320  47.3717110  36.8329440
  25.6748530  47.2033410  36.7831750  14.2737640  42.0394620  38.1401510
  14.3142980  41.7408490  39.0486740  15.1283140  42.4402230  37.9809030
  16.2143450  40.6186720  36.1076000  15.6839910  40.1277670  35.4799340
  16.8831520  41.0470920  35.5733930  20.5643670  43.6627780  20.5482120
  21.0849330  42.9476800  20.1823270  21.2112070  44.3013650  20.8482630
  25.5843680  42.4252340  37.8756340  26.1664450  41.6704660  37.7876820
  25.7605450  42.9559780  37.0987820  16.7015750  37.5849090  36.1873290
  16.6072620  36.9669840  35.4624160  16.1213140  38.3115380  35.9603200
  19.4677190  36.1422330  33.2200680  19.0194490  36.1646590  32.3746230
  18.8342390  35.7441350  33.8170980  22.2100640  42.7692840  35.2250960
  22.3296850  42.1733980  35.9645800  23.0694640  42.8062530  34.8052260
  16.9474930  40.7123400  20.2463180  16.7463990  39.8490760  20.6076520
  16.7766980  40.6256760  19.3084780  18.9769410  39.3114190  36.4826780
  19.5669100  39.0030040  37.1704600  18.1589650  38.8393940  36.6386680
  23.7962840  38.9280000  36.7159800  23.1078360  38.2661540  36.6509790
  24.5168860  38.4818270  37.1608260  24.4263240  35.5231630  22.7750060
  24.7065530  34.6799530  23.1309480  23.6528970  35.7554740  23.2888810
  15.7457730  37.8124020  20.2341060  16.0483630  37.8191450  19.3260210
  16.4852320  37.4621880  20.7308720  18.9642660  36.7558640  21.2197260
  18.6164660  36.0782630  20.6399710  19.1655430  36.2948150  22.0340650
  21.1291700  51.7439390  22.8383860  22.0242490  52.0824360  22.8602620
  21.1609330  51.0218800  22.2108140  14.7687860  47.1166440  21.0670860
  15.2062730  47.6596110  21.7228440  15.2535590  46.2913390  21.0767200
  11.9833660  49.9055470  28.5191120  12.3136670  49.0376530  28.2869760
  12.4124660  50.1113990  29.3496080  12.4723870  50.7726060  31.2572750
  12.0354860  50.9526860  32.0896900  13.0401550  51.5300680  31.1154470
  28.1086050  50.2743060  35.5450060  27.5088040  50.3335620  34.8013980
  28.2379950  49.3348040  35.6746910  29.3487500  48.0160880  20.8819770
  28.5180460  48.0837530  21.3527000  29.5259330  48.9065000  20.5786630
  28.8043960  44.7608360  23.3853970  29.5662870  45.3305010  23.4913660
  28.8198330  44.1935560  24.1562280  29.8103930  45.6158460  28.2295900
  30.1812760  44.8325780  27.8231870  30.4505860  46.3047560  28.0513200
  28.8563130  45.0542730  20.5426490  29.1311970  45.9621610  20.4145710
  28.6673870  44.9905260  21.4788480  25.2538740  38.0787580  21.8380120
  25.6723620  37.8918560  20.9976780  24.9474800  37.2266630  22.1483050
  28.7528470  42.9911720  25.5355920  28.3772070  42.2239650  25.1037210
  28.0231590  43.3734420  26.0230850  13.3424230  43.6698860  32.1564970
  13.7097270  43.5826260  33.0360990  12.7735050  42.9065410  32.0571830
  12.8940230  40.5807950  36.0623390  11.9996280  40.5474710  36.4017100
  13.4337780  40.7794740  36.8274640  26.5816160  37.3639670  37.9475140
  27.4586340  37.3723070  38.3309140  26.5937000  36.6270510  37.3367490
  11.5186380  40.4945220  23.5586960  10.6150460  40.7575420  23.3838620
  12.0027000  40.7656390  22.7786920  14.0613590  39.5510760  21.4681340
  14.7705290  39.1293980  20.9828620  13.3453530  39.6185990  20.8364690
  13.7087750  35.6050090  20.5083990  14.4315880  36.1459030  20.8265210
  13.9812270  35.3313510  19.6325530  13.3979940  34.8556280  30.4106610
  14.0456130  34.3053660  29.9701770  13.8181780  35.1099430  31.2322420
  29.8356830  36.9411430  20.5499390  30.7606140  36.8092610  20.3417680
  29.8132620  37.0204250  21.5035840  29.9095320  37.7122090  23.1756100
  29.1146820  37.6467210  23.7049010  30.1138600  38.6472730  23.1641450
  26.8513740  51.7513640  27.1694490  27.4472810  51.4298210  26.4928910
  27.1091890  51.2785460  27.9607760  13.1511940  35.0111950  33.1531930
  12.8026760  35.4675770  33.9190110  12.8199640  34.1169080  33.2354360
  14.7576310  48.1831550  37.3185120  14.7145940  47.8124460  38.1999580
  14.8887320  49.1209120  37.4586940  20.6636760  36.2023830  36.6751350
  20.6025650  36.7945660  37.4246760  21.6037140  36.0949790  36.5301610
  23.3011320  35.8593890  36.3143640  23.9151730  36.1773180  35.6524720
  23.8460880  35.3742480  36.9339500  29.7186500  51.7585520  33.7205480
  29.2244780  52.1554390  33.0032610  29.1099790  51.1334730  34.1142760
  13.8232580  34.5388150  36.4282700  14.3715570  34.3576200  35.6648810
  13.8887890  33.7482260  36.9639010  14.5964340  51.1293800  34.4382900
  14.0024660  50.9978500  35.1772940  14.5888180  50.2931940  33.9725000
  27.4025950  52.4008940  30.9992220  26.9428920  53.1524750  30.6250240
  26.7738410  51.6815410  30.9407020  12.5106570  51.8126570  26.5987700
  12.3428610  51.1797250  27.2969590  11.6441080  52.0185970  26.2481890
  13.1334590  35.6443350  24.1019560  13.8913950  35.7572230  23.5283590
  12.6711760  36.4812550  24.0562990  19.6748400  37.7582620  27.0921870
  18.8622910  37.3839510  26.7517750  20.1790040  37.0027700  27.3943060
  27.3207980  34.8246630  23.6045220  27.5158610  35.7230080  23.8712650
  26.5337850  34.5933710  24.0978170  14.1169270  50.5059800  24.0437840
  13.5916890  50.8867830  23.3399800  14.0413850  51.1310570  24.7647550
  15.5059740  36.1707400  22.6421530  16.0352500  35.3837200  22.5129480
  16.1388060  36.8498590  22.8757060  17.6997580  35.9082540  25.6966920
  17.0700320  35.2069850  25.8637050  17.1602720  36.6686670  25.4800080
  28.8734590  52.0647340  25.3651780  29.0486780  51.3785080  24.7212700
  28.1756160  52.5894390  24.9728450  17.8253140  35.1866520  38.1319410
  17.5437410  35.6900120  37.3680230  18.2072840  34.3888270  37.7661540
  16.7162240  52.4542180  22.9187090  17.4481060  52.1701460  22.3710980
  16.9755910  52.2155460  23.8086470  15.8777030  48.5706910  22.9233420
  15.2485910  49.0392010  23.4719250  15.9924860  47.7256130  23.3579610
  24.4268600  34.6020100  38.7099880  24.3134050  34.9214710  39.6051400
  25.2438340  35.0032610  38.4137160  27.2067090  51.7491630  38.1918570
  27.9992410  51.2540860  37.9844530  27.5000240  52.4281770  38.7994180
  23.3326750  42.6212570   9.0734620  23.2520800  41.7067180   8.8026330
  22.9191170  43.1179640   8.3674330  21.4644790  44.3991590  10.9543890
  20.6886890  43.9192030  11.2442460  22.1157720  43.7197240  10.7800050
  15.4810620  44.7111400  11.8319650  14.6495500  44.4560110  12.2316160
  16.0891600  44.7822170  12.5677570  25.4852220  48.8051780   9.7343020
  25.0233750  48.0339020  10.0630190  26.2977770  48.8317850  10.2395470
  15.4611880  48.7451490  12.0277670  15.7639920  47.8549230  11.8487890
  16.2055470  49.3021710  11.7999920  13.8902570  39.6713290   5.6162040
  13.0019270  40.0129260   5.5141920  14.1743760  39.4713610   4.7242870
  11.8535580  42.2718940  11.5001740  12.4251690  41.5041140  11.5005380
  11.8537120  42.5707700  10.5908350  21.7115530  51.0909790   9.3547010
  21.0926970  51.5467290   8.7841450  22.5667310  51.2461250   8.9536710
  20.9053780  47.0748780  10.9614050  20.8362060  46.1338720  10.8003180
  21.6673640  47.1650190  11.5336620  13.0960450  37.6803300  13.2870670
  12.9163290  36.7829050  13.5673430  12.6940530  38.2275170  13.9617620
  21.9358950  39.8819160  11.1882980  22.3123770  39.0091040  11.0756650
  21.8378460  40.2177860  10.2973420  16.0663960  38.2544790   6.6500420
  16.1730710  39.1548520   6.9569180  15.1556320  38.2062760   6.3595070
  25.7183070  37.3769600   8.1211320  26.5392690  36.8866170   8.1636800
  25.7517150  37.9667260   8.8743160  13.7147120  40.1763800  11.8953010
  14.3957230  40.4402170  12.5140410  13.3995170  39.3364670  12.2291020
  17.9071690  41.2231160  10.9825600  18.4149910  41.7212130  11.6230620
  18.4384930  40.4466360  10.8064960  16.1907790  35.8629720  15.2489020
  16.1926230  36.3802110  14.4434920  15.3612100  35.3859900  15.2258950
  22.5778880  45.9749030   6.7478920  21.9596150  46.4398480   6.1841640
  23.0902130  46.6676510   7.1648430  17.4410640  45.5024900  13.4262520
  17.1080020  46.1293820  14.0683590  17.6177320  46.0286780  12.6464190
  25.9544550  39.3169980  10.8938860  25.2500120  39.6054870  11.4741970
  26.3156710  40.1270090  10.5338420  15.8723120  37.5739680  13.2559470
  16.2139930  38.4181730  12.9613340  14.9338930  37.7223420  13.3724810
  16.6529740  47.4705700  15.2411700  17.2703740  48.1456780  14.9596150
  15.7922860  47.8793680  15.1499200  11.9462080  46.6605560   4.1218550
  11.5690060  47.1492660   3.3903450  12.2035150  47.3330840   4.7525080
  27.5707330  48.9345110  13.1566340  26.8870850  49.6044220  13.1483010
  28.1101620  49.1325760  12.3911200  29.0231470  38.7624770  11.2848070
  28.0756380  38.7963750  11.4163500  29.3481460  39.5763720  11.6697430
  19.5551010  35.0621950   9.5804060  19.8625990  34.5068840   8.8639560
  18.6251710  35.1966410   9.3977050  25.1066070  50.7789240  11.8711520
  25.1193230  50.3751530  11.0033780  24.5541290  51.5536530  11.7672950
  26.4011490  47.5005460   6.9601690  26.2907820  46.5579790   7.0851110
  26.3979740  47.8621100   7.8464450  24.5051510  45.6819080  13.1994130
  24.9220300  45.4679190  12.3647590  25.2291330  45.9391870  13.7702750
  21.9431770  43.1270780   6.3164180  21.0161050  43.0608160   6.5452650
  22.0956590  44.0650910   6.2019420  21.9300850  39.3987780   3.3131340
  20.9904520  39.5601740   3.3983800  22.2484110  40.1173460   2.7667330
  28.4513610  44.0806300  13.2910370  27.6232240  44.1499390  12.8160500
  29.0464090  44.6660610  12.8226200  25.9729060  44.6891080   6.8199430
  25.3541480  44.3510630   6.1725730  25.9553510  44.0450840   7.5278620
  25.4155620  40.8675620  14.2365240  25.0026800  41.6929330  14.4905230
  24.6831570  40.2820660  14.0441600  17.5488410  43.6535520   9.0983910
  17.1445410  42.9412770   8.6029810  17.6351530  43.3088760   9.9871950
  18.0170110  47.3403080  11.2623120  17.7198400  46.7348550  10.5830900
  18.9669930  47.3780390  11.1512480  16.2617030  40.4278730  12.8782950
  16.8131620  40.5374070  12.1036200  16.7760540  40.8016330  13.5938180
  26.1055720  50.9134950  14.9246220  25.6286280  51.7207140  14.7318830
  25.4217510  50.2613280  15.0772430  17.1088540  47.0784770  17.9130920
  16.2117070  47.3024740  18.1604320  17.1341410  47.2019710  16.9642320
  24.1493760  43.9277890   3.8272180  24.5887040  43.0900320   3.6810000
  24.8622180  44.5607290   3.9136320  15.9359760  43.9498090  16.4888290
  15.7967530  44.8220890  16.8575690  15.0541120  43.6070900  16.3436230
  22.2589140  48.8673960   7.7953420  22.6985050  49.6098290   7.3808810
  22.1976030  49.1100530   8.7192380  17.7340110  49.8919790  18.6973440
  17.7055540  50.2962740  17.8301870  17.5705080  48.9630150  18.5345040
  27.7310900  35.1820700   2.1413220  27.4183560  35.2747530   3.0412290
  28.4923370  35.7601730   2.0910650  14.2493040  42.5480500   6.5990560
  14.1290640  43.2742590   5.9871830  13.9393930  41.7783410   6.1218470
  29.6854930  50.6746890  19.9937610  30.1614650  51.1529780  20.6726690
  30.3062090  50.6064380  19.2683110  11.8878410  45.7195640  12.4059200
  11.9658830  45.8544410  11.4614920  12.5020090  45.0111530  12.5987320
  13.1326040  47.4195830   8.8165380  12.7254120  47.5610420   7.9618980
  14.0239050  47.1355990   8.6136590  29.0888180  47.8659740  17.1537620
  29.2151240  47.6271620  16.2354800  29.1309560  47.0344280  17.6259700
  22.9504920  51.5687740  15.7232430  23.4649590  51.4795750  16.5254860
  22.1074000  51.9147440  16.0160340  24.9259320  51.8543080   5.1516430
  24.7660460  51.5646020   6.0498260  24.7606030  51.0783210   4.6161660
  17.4047700  51.6341610   6.9288050  17.2290180  50.7177150   6.7155850
  16.5503440  51.9928900   7.1685850  24.6285450  49.3630640   3.7114430
  23.9350610  49.3607930   3.0516710  25.3708310  48.9389960   3.2808600
  24.1935380  50.9893350   7.7862920  24.6492330  50.2082730   8.1001540
  24.5327900  51.7000170   8.3304100  28.9412190  39.9192200  18.1187360
  28.3256460  40.4271870  17.5902820  28.6208610  39.0190530  18.0613300
  11.9437930  46.7609810  14.9453660  12.1068970  46.2915170  14.1273030
  12.4090380  46.2533370  15.6102500  16.7156700  35.8915570   9.9814230
  16.2724850  36.6725110   9.6498750  17.2741690  36.2145460  10.6885170
  21.0026510  38.7584090  15.5849550  20.5405880  38.9667110  16.3969490
  20.6004620  37.9443440  15.2820220  26.0031020  39.9793040  16.7146210
  25.1524610  39.6798790  17.0355280  25.8432810  40.2235050  15.8030030
  23.0980730  41.4794790  18.8145000  23.4234140  40.6458540  18.4747230
  23.8861060  42.0023310  18.9623330  19.8315520  35.5126270   4.8620060
  19.2069700  35.5086140   5.5873370  19.7445640  34.6457230   4.4656030
  18.7532600  36.4362900  11.8403830  19.0504930  37.3425730  11.7595850
  19.3018160  35.9481680  11.2263400  16.5070920  41.0149140   7.7095480
  16.2811840  40.7986310   8.6142100  15.7263450  41.4477600   7.3641450
  23.7368680  41.0212510   6.3086130  23.1377570  41.7448310   6.1249750
  24.2848290  40.9589290   5.5262580  18.9470130  41.9134720  18.3755750
  18.8513730  40.9729450  18.2256150  19.7902110  42.1349790  17.9803820
  22.3433550  39.6576050   8.3389410  22.7363120  39.9748250   7.5258100
  22.7050400  38.7787930   8.4533930  14.0780670  38.3248390  16.5289530
  13.6844060  39.1723600  16.7362310  13.3899070  37.6874760  16.7198170
  20.6525720  38.4083360  19.5986270  19.9624040  38.2155560  20.2332360
  21.3958020  38.6918000  20.1310570  11.3797720  36.2476850  10.5619610
  11.0910770  36.8179710  11.2744590  12.1243480  35.7681300  10.9250840
  22.9288690  42.2481800  12.4340190  22.1969810  42.7568610  12.7830290
  22.5313030  41.4311780  12.1328970  19.3666080  38.9236000  10.8392680
  19.3702140  38.4825950   9.9897220  20.2617200  39.2453330  10.9464500
  15.2168460  38.8062490   9.7986890  14.8768510  39.2837720  10.5553940
  14.4545780  38.3527610   9.4387990  19.4286230  39.9248080   3.8299440
  19.5499050  39.8834560   4.7785260  19.0434740  40.7872230   3.6746170
  23.3914600  37.7015480  11.8463130  23.4087340  38.1524130  12.6904980
  23.1430180  36.8021120  12.0596570  18.4407730  42.2349220   3.2282740
  17.8724630  41.7867470   2.6018650  19.1496730  42.5942000   2.6947890
  13.5176910  46.1361240  17.1049470  13.1331700  45.4954910  17.7032430
  13.8289100  46.8397360  17.6744200  19.6674050  42.9837780  12.5858090
  20.0344180  42.5096350  13.3319430  19.4779110  43.8579350  12.9266430
  12.5314540  37.7281470   8.7151560  12.2461460  37.3637140   9.5530180
  12.4693400  36.9961930   8.1014700  17.4573420  42.0246420  14.9042300
  17.1530490  42.9038400  15.1292660  18.4119880  42.0846210  14.9399740
  15.9855210  46.2307410   5.5009150  15.2117470  45.6905030   5.3407870
  16.7149840  45.7114020   5.1626910  26.7443190  45.2272770  11.2935540
  27.4642310  45.7228060  10.9031650  26.5425010  44.5490660  10.6489410
  22.2053130  36.6210730   5.4364930  21.3917740  36.1223900   5.3610240
  22.0115080  37.4608980   5.0201280  22.1261990  45.2981830  17.1804540
  22.0599300  44.3777500  16.9262130  21.4967130  45.3957270  17.8949180
  24.9201520  40.9930380   3.7327090  25.8081140  41.3047610   3.5578430
  24.8906610  40.1202630   3.3407670  16.0292610  45.8987790   9.1387960
  16.5471280  45.0956050   9.0844850  15.5776630  45.8366930   9.9804790
  20.9162110  47.1654070   4.4115260  21.2577810  47.9096300   3.9158580
  20.0874820  47.4785190   4.7740090  13.5137150  42.8649160  16.0513660
  13.1552090  43.5303010  16.6387000  13.2191710  42.0332710  16.4226280
  16.7150270  43.3233400  18.9353210  16.4150410  43.4690580  18.0381030
  17.4861510  42.7638690  18.8426600  22.0578720  48.1202400  16.9308340
  22.0723260  47.1883360  16.7127250  21.3503820  48.2062160  17.5698110
  27.1915790  42.3042220   3.2006950  27.1079510  42.7356440   2.3503390
  27.9109980  42.7640570   3.6333770  28.2689930  44.7609740  16.2776920
  27.5438120  45.3538520  16.0806310  28.7965390  44.7533280  15.4790290
  28.2203040  49.1584480   5.9289080  27.5779200  48.5040100   6.2032800
  27.8333700  49.5639570   5.1529750  23.7989520  46.4869910   9.7760770
  24.1513340  45.8898040   9.1162140  22.9151850  46.1614140   9.9469020
  19.8852800  47.2467600   7.1831180  20.5723930  47.7936810   7.5638770
  19.0985220  47.7908330   7.2180790  12.0245200  42.8640420   2.6748260
  12.8940050  43.1465220   2.9584180  11.5335520  43.6776290   2.5597070
  19.1880010  44.2513630   6.7956540  19.6442790  45.0618880   7.0216730
  18.8368220  43.9336770   7.6275030  21.4912620  49.7619970  14.0248840
  22.1354840  49.9679350  14.7022260  21.8542060  49.0008370  13.5719690
  15.0891790  34.5951280   7.2679060  14.9606420  34.5869180   8.2163980
  14.2653810  34.9334370   6.9170070  22.7644700  47.7652320  12.7426290
  23.4066930  47.0645480  12.8558460  23.2894050  48.5450760  12.5623180
  24.5382320  48.5647220  15.9462350  24.8738560  49.1513910  16.6240270
  23.6182660  48.4339930  16.1760140  12.3916450  52.0767800   3.2409890
  12.7514090  52.6757140   2.5867160  12.2508790  52.6227690   4.0144920
  12.0885720  36.3542400  16.7285760  11.3744240  36.5539320  17.3338370
  12.5080760  35.5781970  17.1000560  26.1916670  45.9672880   4.1279590
  25.9038370  46.4285570   4.9157470  26.9868840  45.5070650   4.3963810
  12.3758310  50.3422660  17.7152290  12.4849430  49.4017400  17.5747680
  11.7238870  50.6077410  17.0666020  20.3670900  48.6138550  19.1150410
  20.0467770  47.8947790  19.6596100  19.6929260  49.2893620  19.1886470
  18.4085070  49.4599000   4.0583560  18.3995170  50.1928690   3.4428070
  17.4883430  49.2130580   4.1510520  14.0091710  44.6813890   4.8030320
  13.4019660  45.4212790   4.8125620  14.4841060  44.7713250   3.9768520
  23.5824500  38.8464710  14.4787210  23.9505320  38.0259920  14.8066780
  22.7222700  38.9066600  14.8942860  26.9486530  37.8021650   5.2874770
  26.3199690  37.9067320   4.5733000  26.4538450  38.0218430   6.0768650
  21.3944670  49.5227240   2.7208750  21.4956650  49.3191230   1.7910730
  20.4946410  49.2685520   2.9256530  18.9170560  40.0807600   6.7032650
  18.2086710  40.5493940   7.1446260  19.2015040  39.4229610   7.3377840
  20.5426490  41.5004300  14.7025180  21.0411740  41.9750120  15.3677030
  20.6849440  40.5767820  14.9095210  22.9485990  36.8058260   8.1428440
  22.8253770  36.8244390   7.1937950  23.8970550  36.8537200   8.2626840
  20.0362780  52.0413560   7.4156420  20.2904280  52.0034950   6.4935790
  19.0875260  51.9146890   7.4084670  17.1205580  38.3892680   4.0783360
  17.9696110  38.8262830   4.0123550  16.7536850  38.7012940   4.9055420
  26.0415360  42.9605440   8.9914930  25.1005500  42.9755670   9.1662620
  26.3559430  42.1741400   9.4375230  16.0197000  44.6425040   2.5518890
  16.7860270  44.5306400   3.1144320  16.0971690  43.9463010   1.8995660
  14.7143760  42.0750110   3.2351780  14.7947350  41.1277620   3.3469180
  15.6063510  42.4056990   3.3412440  28.0440940  50.1314290  10.6669190
  28.1688360  50.9545460  11.1393000  28.9106500  49.9205020  10.3193340
  15.5158470  52.2245500  10.3386320  16.2520950  51.6760960  10.6094890
  15.8999390  53.0901510  10.1992310  12.4003950  48.2919070   6.2127830
  11.4743730  48.5340210   6.2033240  12.8660380  49.1193330   6.0912580
  14.5216750  51.4091570  19.5271900  15.3229480  51.7303620  19.9407300
  14.0068570  51.0487150  20.2491810  23.3581380  47.5171440  19.4747310
  22.7519540  47.5403040  18.7343060  23.0535490  46.7854480  20.0114560
  24.7881750  51.2451730  18.0856720  25.7403500  51.1609750  18.0356960
  24.6409970  51.9093440  18.7590510  27.6790950  50.6245940   3.5848630
  27.3932460  50.2111080   2.7702810  27.4810500  51.5533650   3.4649150
  12.2414560  43.8965030  18.4707950  12.7453580  43.3172310  19.0424180
  11.5021980  44.1805260  19.0084320  19.2952500  45.3036020  18.0043470
  18.5298170  45.8721020  17.9198140  19.4768460  45.0112230  17.1111700
  22.3840910  45.6799250   2.6296230  21.8351010  46.1268550   3.2738970
  23.0060170  45.1748500   3.1533900  26.4375850  47.0341350  18.5618490
  27.1785320  47.3717110  18.0585950  25.6748530  47.2033410  18.0088260
  14.2737640  42.0394620  19.3658020  14.3142980  41.7408490  20.2743250
  15.1283140  42.4402230  19.2065540  18.0516030  44.6390170   4.5261530
  18.4732450  44.4730040   5.3692920  18.1766870  43.8290400   4.0316670
  16.2143450  40.6186720  17.3332510  15.6839910  40.1277670  16.7055850
  16.8831520  41.0470920  16.7990440  25.1121510  45.0856180  17.0973700
  25.5262530  45.2401260  17.9464120  24.1772510  45.2111400  17.2599480
  25.5843680  42.4252340  19.1012850  26.1664450  41.6704660  19.0133330
  25.7605450  42.9559780  18.3244330  16.7015750  37.5849090  17.4129800
  16.6072620  36.9669840  16.6880670  16.1213140  38.3115380  17.1859710
  19.4677190  36.1422330  14.4457190  19.0194490  36.1646590  13.6002740
  18.8342390  35.7441350  15.0427490  19.8736740  45.0376660  15.0669630
  20.2924850  45.8809390  14.8945870  18.9545370  45.1748700  14.8376410
  22.2100640  42.7692840  16.4507470  22.3296850  42.1733980  17.1902310
  23.0694640  42.8062530  16.0308770  24.5488540  43.3230030  15.0269980
  24.0223760  43.8472650  14.4235120  24.8919880  43.9557420  15.6579710
  17.7244160  51.3429670  16.1827360  17.1865250  52.0675730  15.8636060
  17.9778120  50.8660010  15.3924700  18.9769410  39.3114190  17.7083290
  19.5669100  39.0030040  18.3961110  18.1589650  38.8393940  17.8643190
  23.7962840  38.9280000  17.9416310  23.1078360  38.2661540  17.8766300
  24.5168860  38.4818270  18.3864770  24.4263240  35.5231630   4.0006570
  24.7065530  34.6799530   4.3565990  23.6528970  35.7554740   4.5145320
  20.5806370  52.5780880  16.4414010  20.5065070  53.4816020  16.7486380
  19.6785210  52.2592780  16.4136080  18.9642660  36.7558640   2.4453770
  18.6164660  36.0782630   1.8656220  19.1655430  36.2948150   3.2597160
  21.1291700  51.7439390   4.0640370  22.0242490  52.0824360   4.0859130
  21.1609330  51.0218800   3.4364650  14.7687860  47.1166440   2.2927370
  15.2062730  47.6596110   2.9484950  15.2535590  46.2913390   2.3023710
  11.9833660  49.9055470   9.7447630  12.3136670  49.0376530   9.5126270
  12.4124660  50.1113990  10.5752590  16.5795580  48.2364480   7.4049600
  16.2791120  48.1129450   8.3053510  16.4733070  47.3773070   6.9965330
  12.4723870  50.7726060  12.4829260  12.0354860  50.9526860  13.3153410
  13.0401550  51.5300680  12.3410980  28.1086050  50.2743060  16.7706570
  27.5088040  50.3335620  16.0270490  28.2379950  49.3348040  16.9003420
  29.3487500  48.0160880   2.1076280  28.5180460  48.0837530   2.5783510
  29.5259330  48.9065000   1.8043140  28.8043960  44.7608360   4.6110480
  29.5662870  45.3305010   4.7170170  28.8198330  44.1935560   5.3818790
  12.3048300  43.2846290   8.8418140  11.6497140  43.0157930   8.1977840
  13.1426250  43.1750770   8.3920120  29.8103930  45.6158460   9.4552410
  30.1812760  44.8325780   9.0488380  30.4505860  46.3047560   9.2769710
  26.7937690  46.9995040  14.8682730  25.9797530  47.4292200  15.1308520
  27.2011890  47.6113450  14.2551780  28.8563130  45.0542730   1.7683000
  29.1311970  45.9621610   1.6402220  28.6673870  44.9905260   2.7044990
  25.2538740  38.0787580   3.0636630  25.6723620  37.8918560   2.2233290
  24.9474800  37.2266630   3.3739560  28.7528470  42.9911720   6.7612430
  28.3772070  42.2239650   6.3293720  28.0231590  43.3734420   7.2487360
  13.3424230  43.6698860  13.3821480  13.7097270  43.5826260  14.2617500
  12.7735050  42.9065410  13.2828340  28.1428090  42.1383240  16.3951950
  27.9114180  41.9095990  15.4949900  28.4032640  43.0582790  16.3496840
  12.8940230  40.5807950  17.2879900  11.9996280  40.5474710  17.6273610
  13.4337780  40.7794740  18.0531150  26.5816160  37.3639670  19.1731650
  27.4586340  37.3723070  19.5565650  26.5937000  36.6270510  18.5624000
  11.5186380  40.4945220   4.7843470  10.6150460  40.7575420   4.6095130
  12.0027000  40.7656390   4.0043430  28.0279430  41.2169210  10.0619670
  28.5516910  40.7231860   9.4309840  28.6138850  41.3519570  10.8067240
  28.2069150  41.3009080  13.5839220  27.2571860  41.2672620  13.6984210
  28.3882160  42.2109190  13.3488990  14.0613590  39.5510760   2.6937850
  14.7705290  39.1293980   2.2085130  13.3453530  39.6185990   2.0621200
  27.5179400  40.4742560   6.0012080  28.0138520  40.2413430   6.7860960
  27.3195470  39.6354400   5.5849720  13.3979940  34.8556280  11.6363120
  14.0456130  34.3053660  11.1958280  13.8181780  35.1099430  12.4578930
  28.9466560  39.1103510   8.5349760  28.8365840  38.9559550   9.4732030
  29.7074150  38.5824450   8.2925170  29.9095320  37.7122090   4.4012610
  29.1146820  37.6467210   4.9305520  30.1138600  38.6472730   4.3897960
  26.8513740  51.7513640   8.3951000  27.4472810  51.4298210   7.7185420
  27.1091890  51.2785460   9.1864270  13.1511940  35.0111950  14.3788440
  12.8026760  35.4675770  15.1446620  12.8199640  34.1169080  14.4610870
  14.7576310  48.1831550  18.5441630  14.7145940  47.8124460  19.4256090
  14.8887320  49.1209120  18.6843450  18.4582340  49.7391140  14.1451350
  18.2173700  50.0065700  13.2581870  19.3984980  49.9096870  14.2002210
  20.6636760  36.2023830  17.9007860  20.6025650  36.7945660  18.6503270
  21.6037140  36.0949790  17.7558120  23.3011320  35.8593890  17.5400150
  23.9151730  36.1773180  16.8781230  23.8460880  35.3742480  18.1596010
  29.7186500  51.7585520  14.9461990  29.2244780  52.1554390  14.2289120
  29.1099790  51.1334730  15.3399270  13.8232580  34.5388150  17.6539210
  14.3715570  34.3576200  16.8905320  13.8887890  33.7482260  18.1895520
  14.5964340  51.1293800  15.6639410  14.0024660  50.9978500  16.4029450
  14.5888180  50.2931940  15.1981510  27.4025950  52.4008940  12.2248730
  26.9428920  53.1524750  11.8506750  26.7738410  51.6815410  12.1663530
  14.2276570  48.4952180  14.6147450  13.5010630  47.8757470  14.5473400
  14.2885720  48.8892790  13.7445530  17.8321670  50.7097180  11.3996860
  18.3486690  50.0984540  10.8745120  18.4819050  51.2125960  11.8907870
  20.5717170  51.6005670  12.2265840  20.8594980  51.3459970  11.3498850
  21.0840390  51.0483030  12.8171410  21.7894180  35.3395870  12.8062350
  21.0065970  35.8141370  13.0859110  21.4957110  34.4350700  12.6975530
  26.3415250  36.0418970  10.8511440  26.7823340  35.9864070  10.0033040
  26.0722840  36.9576980  10.9221620  28.2053820  35.6734210   8.8620260
  28.1442220  34.7295430   8.7151280  28.9845850  35.7814300   9.4073720
  12.5106570  51.8126570   7.8244210  12.3428610  51.1797250   8.5226100
  11.6441080  52.0185970   7.4738400  13.1334590  35.6443350   5.3276070
  13.8913950  35.7572230   4.7540100  12.6711760  36.4812550   5.2819500
  19.6748400  37.7582620   8.3178380  18.8622910  37.3839510   7.9774260
  20.1790040  37.0027700   8.6199570  24.1773380  34.4225070   9.5561450
  24.7802750  34.9945280  10.0309970  23.4366370  34.9864510   9.3335350
  27.3207980  34.8246630   4.8301730  27.5158610  35.7230080   5.0969160
  26.5337850  34.5933710   5.3234680  14.1169270  50.5059800   5.2694350
  13.5916890  50.8867830   4.5656310  14.0413850  51.1310570   5.9904060
  15.5059740  36.1707400   3.8678040  16.0352500  35.3837200   3.7385990
  16.1388060  36.8498590   4.1013570  17.6997580  35.9082540   6.9223430
  17.0700320  35.2069850   7.0893560  17.1602720  36.6686670   6.7056590
  20.6389530  52.5221770  19.5934040  21.5656840  52.2866040  19.6370000
  20.6239960  53.3493770  19.1120070  28.8734590  52.0647340   6.5908290
  29.0486780  51.3785080   5.9469210  28.1756160  52.5894390   6.1984960
  17.8253140  35.1866520  19.3575920  17.5437410  35.6900120  18.5936740
  18.2072840  34.3888270  18.9918050  16.7162240  52.4542180   4.1443600
  17.4481060  52.1701460   3.5967490  16.9755910  52.2155460   5.0342980
  15.8777030  48.5706910   4.1489930  15.2485910  49.0392010   4.6975760
  15.9924860  47.7256130   4.5836120  24.4268600  34.6020100  19.9356390
  24.3134050  34.9214710  20.8307910  25.2438340  35.0032610  19.6393670
  27.2067090  51.7491630  19.4175080  27.9992410  51.2540860  19.2101040
  27.5000240  52.4281770  20.0250690  23.3326750  23.8469080  46.6221600
  23.2520800  22.9323690  46.3513310  22.9191170  24.3436150  45.9161310
  21.4644790  25.6248100  48.5030870  20.6886890  25.1448540  48.7929440
  22.1157720  24.9453750  48.3287030  15.4810620  25.9367910  49.3806630
  14.6495500  25.6816620  49.7803140  16.0891600  26.0078680  50.1164550
  25.4852220  30.0308290  47.2830000  25.0233750  29.2595530  47.6117170
  26.2977770  30.0574360  47.7882450  15.4611880  29.9708000  49.5764650
  15.7639920  29.0805740  49.3974870  16.2055470  30.5278220  49.3486900
  13.8902570  20.8969800  43.1649020  13.0019270  21.2385770  43.0628900
  14.1743760  20.6970120  42.2729850  11.8535580  23.4975450  49.0488720
  12.4251690  22.7297650  49.0492360  11.8537120  23.7964210  48.1395330
  21.7115530  32.3166300  46.9033990  21.0926970  32.7723800  46.3328430
  22.5667310  32.4717760  46.5023690  20.9053780  28.3005290  48.5101030
  20.8362060  27.3595230  48.3490160  21.6673640  28.3906700  49.0823600
  13.0960450  18.9059810  50.8357650  12.9163290  18.0085560  51.1160410
  12.6940530  19.4531680  51.5104600  21.9358950  21.1075670  48.7369960
  22.3123770  20.2347550  48.6243630  21.8378460  21.4434370  47.8460400
  16.0663960  19.4801300  44.1987400  16.1730710  20.3805030  44.5056160
  15.1556320  19.4319270  43.9082050  25.7183070  18.6026110  45.6698300
  26.5392690  18.1122680  45.7123780  25.7517150  19.1923770  46.4230140
  13.7147120  21.4020310  49.4439990  14.3957230  21.6658680  50.0627390
  13.3995170  20.5621180  49.7778000  17.9071690  22.4487670  48.5312580
  18.4149910  22.9468640  49.1717600  18.4384930  21.6722870  48.3551940
  30.0082620  20.6192860  52.2341930  29.3034790  21.0074570  51.7157040
  30.2740540  21.3143150  52.8362860  16.1907790  17.0886230  52.7976000
  16.1926230  17.6058620  51.9921900  15.3612100  16.6116410  52.7745930
  22.5778880  27.2005540  44.2965900  21.9596150  27.6654990  43.7328620
  23.0902130  27.8933020  44.7135410  17.4410640  26.7281410  50.9749500
  17.1080020  27.3550330  51.6170570  17.6177320  27.2543290  50.1951170
  25.9544550  20.5426490  48.4425840  25.2500120  20.8311380  49.0228950
  26.3156710  21.3526600  48.0825400  15.8723120  18.7996190  50.8046450
  16.2139930  19.6438240  50.5100320  14.9338930  18.9479930  50.9211790
  16.6529740  28.6962210  52.7898680  17.2703740  29.3713290  52.5083130
  15.7922860  29.1050190  52.6986180  11.9462080  27.8862070  41.6705530
  11.5690060  28.3749170  40.9390430  12.2035150  28.5587350  42.3012060
  27.5707330  30.1601620  50.7053320  26.8870850  30.8300730  50.6969990
  28.1101620  30.3582270  49.9398180  29.0231470  19.9881280  48.8335050
  28.0756380  20.0220260  48.9650480  29.3481460  20.8020230  49.2184410
  19.5551010  16.2878460  47.1291040  19.8625990  15.7325350  46.4126540
  18.6251710  16.4222920  46.9464030  25.1066070  32.0045750  49.4198500
  25.1193230  31.6008040  48.5520760  24.5541290  32.7793040  49.3159930
  26.4011490  28.7261970  44.5088670  26.2907820  27.7836300  44.6338090
  26.3979740  29.0877610  45.3951430  24.5051510  26.9075590  50.7481110
  24.9220300  26.6935700  49.9134570  25.2291330  27.1648380  51.3189730
  21.9431770  24.3527290  43.8651160  21.0161050  24.2864670  44.0939630
  22.0956590  25.2907420  43.7506400  21.9300850  20.6244290  40.8618320
  20.9904520  20.7858250  40.9470780  22.2484110  21.3429970  40.3154310
  28.4513610  25.3062810  50.8397350  27.6232240  25.3755900  50.3647480
  29.0464090  25.8917120  50.3713180  25.9729060  25.9147590  44.3686410
  25.3541480  25.5767140  43.7212710  25.9553510  25.2707350  45.0765600
  25.4155620  22.0932130  51.7852220  25.0026800  22.9185840  52.0392210
  24.6831570  21.5077170  51.5928580  17.5488410  24.8792030  46.6470890
  17.1445410  24.1669280  46.1516790  17.6351530  24.5345270  47.5358930
  18.0170110  28.5659590  48.8110100  17.7198400  27.9605060  48.1317880
  18.9669930  28.6036900  48.6999460  16.2617030  21.6535240  50.4269930
  16.8131620  21.7630580  49.6523180  16.7760540  22.0272840  51.1425160
  26.1055720  32.1391460  52.4733200  25.6286280  32.9463650  52.2805810
  25.4217510  31.4869790  52.6259410  17.1088540  28.3041280  55.4617900
  16.2117070  28.5281250  55.7091300  17.1341410  28.4276220  54.5129300
  24.1493760  25.1534400  41.3759160  24.5887040  24.3156830  41.2296980
  24.8622180  25.7863800  41.4623300  15.9359760  25.1754600  54.0375270
  15.7967530  26.0477400  54.4062670  15.0541120  24.8327410  53.8923210
  22.2589140  30.0930470  45.3440400  22.6985050  30.8354800  44.9295790
  22.1976030  30.3357040  46.2679360  17.7340110  31.1176300  56.2460420
  17.7055540  31.5219250  55.3788850  17.5705080  30.1886660  56.0832020
  27.7310900  16.4077210  39.6900200  27.4183560  16.5004040  40.5899270
  28.4923370  16.9858240  39.6397630  14.2493040  23.7737010  44.1477540
  14.1290640  24.4999100  43.5358810  13.9393930  23.0039920  43.6705450
  11.8878410  26.9452150  49.9546180  11.9658830  27.0800920  49.0101900
  12.5020090  26.2368040  50.1474300  13.1326040  28.6452340  46.3652360
  12.7254120  28.7866930  45.5105960  14.0239050  28.3612500  46.1623570
  29.0888180  29.0916250  54.7024600  29.2151240  28.8528130  53.7841780
  29.1309560  28.2600790  55.1746680  22.9504920  32.7944250  53.2719410
  23.4649590  32.7052260  54.0741840  22.1074000  33.1403950  53.5647320
  24.9259320  33.0799590  42.7003410  24.7660460  32.7902530  43.5985240
  24.7606030  32.3039720  42.1648640  17.4047700  32.8598120  44.4775030
  17.2290180  31.9433660  44.2642830  16.5503440  33.2185410  44.7172830
  24.6285450  30.5887150  41.2601410  23.9350610  30.5864440  40.6003690
  25.3708310  30.1646470  40.8295580  24.1935380  32.2149860  45.3349900
  24.6492330  31.4339240  45.6488520  24.5327900  32.9256680  45.8791080
  28.9412190  21.1448710  55.6674340  28.3256460  21.6528380  55.1389800
  28.6208610  20.2447040  55.6100280  11.9437930  27.9866320  52.4940640
  12.1068970  27.5171680  51.6760010  12.4090380  27.4789880  53.1589480
  16.7156700  17.1172080  47.5301210  16.2724850  17.8981620  47.1985730
  17.2741690  17.4401970  48.2372150  21.0026510  19.9840600  53.1336530
  20.5405880  20.1923620  53.9456470  20.6004620  19.1699950  52.8307200
  26.0031020  21.2049550  54.2633190  25.1524610  20.9055300  54.5842260
  25.8432810  21.4491560  53.3517010  23.0980730  22.7051300  56.3631980
  23.4234140  21.8715050  56.0234210  23.8861060  23.2279820  56.5110310
  19.8315520  16.7382780  42.4107040  19.2069700  16.7342650  43.1360350
  19.7445640  15.8713740  42.0143010  18.7532600  17.6619410  49.3890810
  19.0504930  18.5682240  49.3082830  19.3018160  17.1738190  48.7750380
  16.5070920  22.2405650  45.2582460  16.2811840  22.0242820  46.1629080
  15.7263450  22.6734110  44.9128430  23.7368680  22.2469020  43.8573110
  23.1377570  22.9704820  43.6736730  24.2848290  22.1845800  43.0749560
  18.9470130  23.1391230  55.9242730  18.8513730  22.1985960  55.7743130
  19.7902110  23.3606300  55.5290800  22.3433550  20.8832560  45.8876390
  22.7363120  21.2004760  45.0745080  22.7050400  20.0044440  46.0020910
  14.0780670  19.5504900  54.0776510  13.6844060  20.3980110  54.2849290
  13.3899070  18.9131270  54.2685150  11.3797720  17.4733360  48.1106590
  11.0910770  18.0436220  48.8231570  12.1243480  16.9937810  48.4737820
  11.5667950  21.4153480  39.3209310  11.4842620  22.3584240  39.4624300
  11.2151010  21.2728390  38.4421660  22.9288690  23.4738310  49.9827170
  22.1969810  23.9825120  50.3317270  22.5313030  22.6568290  49.6815950
  19.3666080  20.1492510  48.3879660  19.3702140  19.7082460  47.5384200
  20.2617200  20.4709840  48.4951480  15.2168460  20.0319000  47.3473870
  14.8768510  20.5094230  48.1040920  14.4545780  19.5784120  46.9874970
  19.4286230  21.1504590  41.3786420  19.5499050  21.1091070  42.3272240
  19.0434740  22.0128740  41.2233150  23.3914600  18.9271990  49.3950110
  23.4087340  19.3780640  50.2391960  23.1430180  18.0277630  49.6083550
  18.4407730  23.4605730  40.7769720  17.8724630  23.0123980  40.1505630
  19.1496730  23.8198510  40.2434870  26.8185350  16.3404170  55.2336490
  27.1431120  15.6093830  55.7594470  26.8541860  16.0217810  54.3317480
  13.5176910  27.3617750  54.6536450  13.1331700  26.7211420  55.2519410
  13.8289100  28.0653870  55.2231180  19.6674050  24.2094290  50.1345070
  20.0344180  23.7352860  50.8806410  19.4779110  25.0835860  50.4753410
  12.5314540  18.9537980  46.2638540  12.2461460  18.5893650  47.1017160
  12.4693400  18.2218440  45.6501680  17.4573420  23.2502930  52.4529280
  17.1530490  24.1294910  52.6779640  18.4119880  23.3102720  52.4886720
  15.9855210  27.4563920  43.0496130  15.2117470  26.9161540  42.8894850
  16.7149840  26.9370530  42.7113890  26.7443190  26.4529280  48.8422520
  27.4642310  26.9484570  48.4518630  26.5425010  25.7747170  48.1976390
  22.2053130  17.8467240  42.9851910  21.3917740  17.3480410  42.9097220
  22.0115080  18.6865490  42.5688260  22.1261990  26.5238340  54.7291520
  22.0599300  25.6034010  54.4749110  21.4967130  26.6213780  55.4436160
  24.9201520  22.2186890  41.2814070  25.8081140  22.5304120  41.1065410
  24.8906610  21.3459140  40.8894650  16.0292610  27.1244300  46.6874940
  16.5471280  26.3212560  46.6331830  15.5776630  27.0623440  47.5291770
  20.9162110  28.3910580  41.9602240  21.2577810  29.1352810  41.4645560
  20.0874820  28.7041700  42.3227070  13.5137150  24.0905670  53.6000640
  13.1552090  24.7559520  54.1873980  13.2191710  23.2589220  53.9713260
  16.7150270  24.5489910  56.4840190  16.4150410  24.6947090  55.5868010
  17.4861510  23.9895200  56.3913580  22.0578720  29.3458910  54.4795320
  22.0723260  28.4139870  54.2614230  21.3503820  29.4318670  55.1185090
  27.1915790  23.5298730  40.7493930  27.1079510  23.9612950  39.8990370
  27.9109980  23.9897080  41.1820750  28.2689930  25.9866250  53.8263900
  27.5438120  26.5795030  53.6293290  28.7965390  25.9789790  53.0277270
  23.7989520  27.7126420  47.3247750  24.1513340  27.1154550  46.6649120
  22.9151850  27.3870650  47.4956000  19.8852800  28.4724110  44.7318160
  20.5723930  29.0193320  45.1125750  19.0985220  29.0164840  44.7667770
  12.0245200  24.0896930  40.2235240  12.8940050  24.3721730  40.5071160
  11.5335520  24.9032800  40.1084050  19.1880010  25.4770140  44.3443520
  19.6442790  26.2875390  44.5703710  18.8368220  25.1593280  45.1762010
  21.4912620  30.9876480  51.5735820  22.1354840  31.1935860  52.2509240
  21.8542060  30.2264880  51.1206670  15.0891790  15.8207790  44.8166040
  14.9606420  15.8125690  45.7650960  14.2653810  16.1590880  44.4657050
  22.7644700  28.9908830  50.2913270  23.4066930  28.2901990  50.4045440
  23.2894050  29.7707270  50.1110160  26.6100420  29.2757450  40.0152410
  26.3838000  28.5587890  40.6077050  26.2196620  29.0269890  39.1774160
  24.5382320  29.7903730  53.4949330  24.8738560  30.3770420  54.1727250
  23.6182660  29.6596440  53.7247120  12.3916450  33.3024310  40.7896870
  12.7514090  33.9013650  40.1354140  12.2508790  33.8484200  41.5631900
  12.0885720  17.5798910  54.2772740  11.3744240  17.7795830  54.8825350
  12.5080760  16.8038480  54.6487540  26.1916670  27.1929390  41.6766570
  25.9038370  27.6542080  42.4644450  26.9868840  26.7327160  41.9450790
  12.3758310  31.5679170  55.2639270  12.4849430  30.6273910  55.1234660
  11.7238870  31.8333920  54.6153000  20.3670900  29.8395060  56.6637390
  20.0467770  29.1204300  57.2083080  19.6929260  30.5150130  56.7373450
  18.4085070  30.6855510  41.6070540  18.3995170  31.4185200  40.9915050
  17.4883430  30.4387090  41.6997500  14.0091710  25.9070400  42.3517300
  13.4019660  26.6469300  42.3612600  14.4841060  25.9969760  41.5255500
  23.5824500  20.0721220  52.0274190  23.9505320  19.2516430  52.3553760
  22.7222700  20.1323110  52.4429840  26.9486530  19.0278160  42.8361750
  26.3199690  19.1323830  42.1219980  26.4538450  19.2474940  43.6255630
  21.3944670  30.7483750  40.2695730  21.4956650  30.5447740  39.3397710
  20.4946410  30.4942030  40.4743510  18.9170560  21.3064110  44.2519630
  18.2086710  21.7750450  44.6933240  19.2015040  20.6486120  44.8864820
  20.5426490  22.7260810  52.2512160  21.0411740  23.2006630  52.9164010
  20.6849440  21.8024330  52.4582190  22.9485990  18.0314770  45.6915420
  22.8253770  18.0500900  44.7424930  23.8970550  18.0793710  45.8113820
  20.0362780  33.2670070  44.9643400  20.2904280  33.2291460  44.0422770
  19.0875260  33.1403400  44.9571650  17.1205580  19.6149190  41.6270340
  17.9696110  20.0519340  41.5610530  16.7536850  19.9269450  42.4542400
  27.7493350  18.9428770  53.0940550  27.2466950  19.6834170  53.4334360
  28.5650010  19.3312770  52.7777340  26.0415360  24.1861950  46.5401910
  25.1005500  24.2012180  46.7149600  26.3559430  23.3997910  46.9862210
  16.0197000  25.8681550  40.1005870  16.7860270  25.7562910  40.6631300
  16.0971690  25.1719520  39.4482640  14.7143760  23.3006620  40.7838760
  14.7947350  22.3534130  40.8956160  15.6063510  23.6313500  40.8899420
  28.0440940  31.3570800  48.2156170  28.1688360  32.1801970  48.6879980
  28.9106500  31.1461530  47.8680320  15.5158470  33.4502010  47.8873300
  16.2520950  32.9017470  48.1581870  15.8999390  34.3158020  47.7479290
  12.4003950  29.5175580  43.7614810  11.4743730  29.7596720  43.7520220
  12.8660380  30.3449840  43.6399560  18.6260780  32.6232320  39.7098870
  19.4189390  32.9121150  39.2580660  18.1065130  32.1924490  39.0311350
  24.7881750  32.4708240  55.6343700  25.7403500  32.3866260  55.5843940
  24.6409970  33.1349950  56.3077490  12.2414560  25.1221540  56.0194930
  12.7453580  24.5428820  56.5911160  11.5021980  25.4061770  56.5571300
  19.1438180  27.8435730  39.5741220  19.0388820  27.2288080  40.3002600
  18.9762400  27.3201620  38.7904230  19.2952500  26.5292530  55.5530450
  18.5298170  27.0977530  55.4685120  19.4768460  26.2368740  54.6598680
  22.3840910  26.9055760  40.1783210  21.8351010  27.3525060  40.8225950
  23.0060170  26.4005010  40.7020880  26.4375850  28.2597860  56.1105470
  27.1785320  28.5973620  55.6072930  25.6748530  28.4289920  55.5575240
  18.0516030  25.8646680  42.0748510  18.4732450  25.6986550  42.9179900
  18.1766870  25.0546910  41.5803650  16.2143450  21.8443230  54.8819490
  15.6839910  21.3534180  54.2542830  16.8831520  22.2727430  54.3477420
  20.5643670  24.8884290  39.3225610  21.0849330  24.1733310  38.9566760
  21.2112070  25.5270160  39.6226120  25.1121510  26.3112690  54.6460680
  25.5262530  26.4657770  55.4951100  24.1772510  26.4367910  54.8086460
  25.5843680  23.6508850  56.6499830  26.1664450  22.8961170  56.5620310
  25.7605450  24.1816290  55.8731310  16.7015750  18.8105600  54.9616780
  16.6072620  18.1926350  54.2367650  16.1213140  19.5371890  54.7346690
  19.4677190  17.3678840  51.9944170  19.0194490  17.3903100  51.1489720
  18.8342390  16.9697860  52.5914470  19.8736740  26.2633170  52.6156610
  20.2924850  27.1065900  52.4432850  18.9545370  26.4005210  52.3863390
  22.2100640  23.9949350  53.9994450  22.3296850  23.3990490  54.7389290
  23.0694640  24.0319040  53.5795750  24.5488540  24.5486540  52.5756960
  24.0223760  25.0729160  51.9722100  24.8919880  25.1813930  53.2066690
  16.9474930  21.9379910  39.0206670  16.7463990  21.0747270  39.3820010
  16.7766980  21.8513270  38.0828270  17.7244160  32.5686180  53.7314340
  17.1865250  33.2932240  53.4123040  17.9778120  32.0916520  52.9411680
  18.9769410  20.5370700  55.2570270  19.5669100  20.2286550  55.9448090
  18.1589650  20.0650450  55.4130170  23.7962840  20.1536510  55.4903290
  23.1078360  19.4918050  55.4253280  24.5168860  19.7074780  55.9351750
  24.4263240  16.7488140  41.5493550  24.7065530  15.9056040  41.9052970
  23.6528970  16.9811250  42.0632300  15.7457730  19.0380530  39.0084550
  16.0483630  19.0447960  38.1003700  16.4852320  18.6878390  39.5052210
  20.5806370  33.8037390  53.9900990  20.5065070  34.7072530  54.2973360
  19.6785210  33.4849290  53.9623060  18.9642660  17.9815150  39.9940750
  18.6164660  17.3039140  39.4143200  19.1655430  17.5204660  40.8084140
  21.1291700  32.9695900  41.6127350  22.0242490  33.3080870  41.6346110
  21.1609330  32.2475310  40.9851630  14.7687860  28.3422950  39.8414350
  15.2062730  28.8852620  40.4971930  15.2535590  27.5169900  39.8510690
  11.9833660  31.1311980  47.2934610  12.3136670  30.2633040  47.0613250
  12.4124660  31.3370500  48.1239570  16.5795580  29.4620990  44.9536580
  16.2791120  29.3385960  45.8540490  16.4733070  28.6029580  44.5452310
  12.4723870  31.9982570  50.0316240  12.0354860  32.1783370  50.8640390
  13.0401550  32.7557190  49.8897960  28.1086050  31.4999570  54.3193550
  27.5088040  31.5592130  53.5757470  28.2379950  30.5604550  54.4490400
  12.3048300  24.5102800  46.3905120  11.6497140  24.2414440  45.7464820
  13.1426250  24.4007280  45.9407100  29.8103930  26.8414970  47.0039390
  30.1812760  26.0582290  46.5975360  30.4505860  27.5304070  46.8256690
  26.7937690  28.2251550  52.4169710  25.9797530  28.6548710  52.6795500
  27.2011890  28.8369960  51.8038760  25.2538740  19.3044090  40.6123610
  25.6723620  19.1175070  39.7720270  24.9474800  18.4523140  40.9226540
  13.3424230  24.8955370  50.9308460  13.7097270  24.8082770  51.8104480
  12.7735050  24.1321920  50.8315320  28.1428090  23.3639750  53.9438930
  27.9114180  23.1352500  53.0436880  28.4032640  24.2839300  53.8983820
  12.8940230  21.8064460  54.8366880  11.9996280  21.7731220  55.1760590
  13.4337780  22.0051250  55.6018130  26.5816160  18.5896180  56.7218630
  27.4586340  18.5979580  57.1052630  26.5937000  17.8527020  56.1110980
  11.5186380  21.7201730  42.3330450  10.6150460  21.9831930  42.1582110
  12.0027000  21.9912900  41.5530410  28.0279430  22.4425720  47.6106650
  28.5516910  21.9488370  46.9796820  28.6138850  22.5776080  48.3554220
  28.2069150  22.5265590  51.1326200  27.2571860  22.4929130  51.2471190
  28.3882160  23.4365700  50.8975970  14.0613590  20.7767270  40.2424830
  14.7705290  20.3550490  39.7572110  13.3453530  20.8442500  39.6108180
  13.7087750  16.8306600  39.2827480  14.4315880  17.3715540  39.6008700
  13.9812270  16.5570020  38.4069020  27.5179400  21.6999070  43.5499060
  28.0138520  21.4669940  44.3347940  27.3195470  20.8610910  43.1336700
  13.3979940  16.0812790  49.1850100  14.0456130  15.5310170  48.7445260
  13.8181780  16.3355940  50.0065910  28.9466560  20.3360020  46.0836740
  28.8365840  20.1816060  47.0219010  29.7074150  19.8080960  45.8412150
  27.2932280  16.2754150  52.5419740  27.9304500  16.8888290  52.9078930
  27.4407170  16.3114810  51.5968970  29.8356830  18.1667940  39.3242880
  30.7606140  18.0349120  39.1161170  29.8132620  18.2460760  40.2779330
  29.9095320  18.9378600  41.9499590  29.1146820  18.8723720  42.4792500
  30.1138600  19.8729240  41.9384940  26.8513740  32.9770150  45.9437980
  27.4472810  32.6554720  45.2672400  27.1091890  32.5041970  46.7351250
  13.1511940  16.2368460  51.9275420  12.8026760  16.6932280  52.6933600
  12.8199640  15.3425590  52.0097850  14.7576310  29.4088060  56.0928610
  14.7145940  29.0380970  56.9743070  14.8887320  30.3465630  56.2330430
  18.4582340  30.9647650  51.6938330  18.2173700  31.2322210  50.8068850
  19.3984980  31.1353380  51.7489190  20.6636760  17.4280340  55.4494840
  20.6025650  18.0202170  56.1990250  21.6037140  17.3206300  55.3045100
  23.3011320  17.0850400  55.0887130  23.9151730  17.4029690  54.4268210
  23.8460880  16.5998990  55.7082990  29.7186500  32.9842030  52.4948970
  29.2244780  33.3810900  51.7776100  29.1099790  32.3591240  52.8886250
  13.8232580  15.7644660  55.2026190  14.3715570  15.5832710  54.4392300
  13.8887890  14.9738770  55.7382500  14.5964340  32.3550310  53.2126390
  14.0024660  32.2235010  53.9516430  14.5888180  31.5188450  52.7468490
  24.0419360  15.6482540  51.4156420  23.1679200  15.9817650  51.2129350
  23.9330110  15.1755720  52.2408290  24.9491340  17.8553410  52.7998140
  24.6204700  17.0405170  52.4199870  25.8973640  17.8123220  52.6763830
  27.4025950  33.6265450  49.7735710  26.9428920  34.3781260  49.3993730
  26.7738410  32.9071920  49.7150510  14.2276570  29.7208690  52.1634430
  13.5010630  29.1013980  52.0960380  14.2885720  30.1149300  51.2932510
  17.8321670  31.9353690  48.9483840  18.3486690  31.3241050  48.4232100
  18.4819050  32.4382470  49.4394850  20.5717170  32.8262180  49.7752820
  20.8594980  32.5716480  48.8985830  21.0840390  32.2739540  50.3658390
  21.7894180  16.5652380  50.3549330  21.0065970  17.0397880  50.6346090
  21.4957110  15.6607210  50.2462510  26.3415250  17.2675480  48.3998420
  26.7823340  17.2120580  47.5520020  26.0722840  18.1833490  48.4708600
  28.2053820  16.8990720  46.4107240  28.1442220  15.9551940  46.2638260
  28.9845850  17.0070810  46.9560700  12.5106570  33.0383080  45.3731190
  12.3428610  32.4053760  46.0713080  11.6441080  33.2442480  45.0225380
  13.1334590  16.8699860  42.8763050  13.8913950  16.9828740  42.3027080
  12.6711760  17.7069060  42.8306480  19.6748400  18.9839130  45.8665360
  18.8622910  18.6096020  45.5261240  20.1790040  18.2284210  46.1686550
  24.1773380  15.6481580  47.1048430  24.7802750  16.2201790  47.5796950
  23.4366370  16.2121020  46.8822330  27.3207980  16.0503140  42.3788710
  27.5158610  16.9486590  42.6456140  26.5337850  15.8190220  42.8721660
  14.1169270  31.7316310  42.8181330  13.5916890  32.1124340  42.1143290
  14.0413850  32.3567080  43.5391040  15.5059740  17.3963910  41.4165020
  16.0352500  16.6093710  41.2872970  16.1388060  18.0755100  41.6500550
  17.6997580  17.1339050  44.4710410  17.0700320  16.4326360  44.6380540
  17.1602720  17.8943180  44.2543570  20.6389530  33.7478280  57.1421020
  21.5656840  33.5122550  57.1856980  20.6239960  34.5750280  56.6607050
  17.8253140  16.4123030  56.9062900  17.5437410  16.9156630  56.1423720
  18.2072840  15.6144780  56.5405030  16.7162240  33.6798690  41.6930580
  17.4481060  33.3957970  41.1454470  16.9755910  33.4411970  42.5829960
  15.8777030  29.7963420  41.6976910  15.2485910  30.2648520  42.2462740
  15.9924860  28.9512640  42.1323100  23.3326750  23.8469080  27.8478110
  23.2520800  22.9323690  27.5769820  22.9191170  24.3436150  27.1417820
  21.4644790  25.6248100  29.7287380  20.6886890  25.1448540  30.0185950
  22.1157720  24.9453750  29.5543540  15.4810620  25.9367910  30.6063140
  14.6495500  25.6816620  31.0059650  16.0891600  26.0078680  31.3421060
  25.4852220  30.0308290  28.5086510  25.0233750  29.2595530  28.8373680
  26.2977770  30.0574360  29.0138960  15.4611880  29.9708000  30.8021160
  15.7639920  29.0805740  30.6231380  16.2055470  30.5278220  30.5743410
  13.8902570  20.8969800  24.3905530  13.0019270  21.2385770  24.2885410
  14.1743760  20.6970120  23.4986360  11.8535580  23.4975450  30.2745230
  12.4251690  22.7297650  30.2748870  11.8537120  23.7964210  29.3651840
  21.7115530  32.3166300  28.1290500  21.0926970  32.7723800  27.5584940
  22.5667310  32.4717760  27.7280200  20.9053780  28.3005290  29.7357540
  20.8362060  27.3595230  29.5746670  21.6673640  28.3906700  30.3080110
  13.0960450  18.9059810  32.0614160  12.9163290  18.0085560  32.3416920
  12.6940530  19.4531680  32.7361110  21.9358950  21.1075670  29.9626470
  22.3123770  20.2347550  29.8500140  21.8378460  21.4434370  29.0716910
  16.0663960  19.4801300  25.4243910  16.1730710  20.3805030  25.7312670
  15.1556320  19.4319270  25.1338560  13.7147120  21.4020310  30.6696500
  14.3957230  21.6658680  31.2883900  13.3995170  20.5621180  31.0034510
  17.9071690  22.4487670  29.7569090  18.4149910  22.9468640  30.3974110
  18.4384930  21.6722870  29.5808450  16.1907790  17.0886230  34.0232510
  16.1926230  17.6058620  33.2178410  15.3612100  16.6116410  34.0002440
  22.5778880  27.2005540  25.5222410  21.9596150  27.6654990  24.9585130
  23.0902130  27.8933020  25.9391920  17.4410640  26.7281410  32.2006010
  17.1080020  27.3550330  32.8427080  17.6177320  27.2543290  31.4207680
  15.8723120  18.7996190  32.0302960  16.2139930  19.6438240  31.7356830
  14.9338930  18.9479930  32.1468300  16.6529740  28.6962210  34.0155190
  17.2703740  29.3713290  33.7339640  15.7922860  29.1050190  33.9242690
  11.9462080  27.8862070  22.8962040  11.5690060  28.3749170  22.1646940
  12.2035150  28.5587350  23.5268570  19.5551010  16.2878460  28.3547550
  19.8625990  15.7325350  27.6383050  18.6251710  16.4222920  28.1720540
  25.1066070  32.0045750  30.6455010  25.1193230  31.6008040  29.7777270
  24.5541290  32.7793040  30.5416440  26.4011490  28.7261970  25.7345180
  26.2907820  27.7836300  25.8594600  26.3979740  29.0877610  26.6207940
  24.5051510  26.9075590  31.9737620  24.9220300  26.6935700  31.1391080
  25.2291330  27.1648380  32.5446240  21.9431770  24.3527290  25.0907670
  21.0161050  24.2864670  25.3196140  22.0956590  25.2907420  24.9762910
  21.9300850  20.6244290  22.0874830  20.9904520  20.7858250  22.1727290
  22.2484110  21.3429970  21.5410820  25.9729060  25.9147590  25.5942920
  25.3541480  25.5767140  24.9469220  25.9553510  25.2707350  26.3022110
  17.5488410  24.8792030  27.8727400  17.1445410  24.1669280  27.3773300
  17.6351530  24.5345270  28.7615440  18.0170110  28.5659590  30.0366610
  17.7198400  27.9605060  29.3574390  18.9669930  28.6036900  29.9255970
  16.2617030  21.6535240  31.6526440  16.8131620  21.7630580  30.8779690
  16.7760540  22.0272840  32.3681670  26.1055720  32.1391460  33.6989710
  25.6286280  32.9463650  33.5062320  25.4217510  31.4869790  33.8515920
  17.1088540  28.3041280  36.6874410  16.2117070  28.5281250  36.9347810
  17.1341410  28.4276220  35.7385810  24.1493760  25.1534400  22.6015670
  24.5887040  24.3156830  22.4553490  24.8622180  25.7863800  22.6879810
  15.9359760  25.1754600  35.2631780  15.7967530  26.0477400  35.6319180
  15.0541120  24.8327410  35.1179720  22.2589140  30.0930470  26.5696910
  22.6985050  30.8354800  26.1552300  22.1976030  30.3357040  27.4935870
  17.7340110  31.1176300  37.4716930  17.7055540  31.5219250  36.6045360
  17.5705080  30.1886660  37.3088530  27.7310900  16.4077210  20.9156710
  27.4183560  16.5004040  21.8155780  28.4923370  16.9858240  20.8654140
  14.2493040  23.7737010  25.3734050  14.1290640  24.4999100  24.7615320
  13.9393930  23.0039920  24.8961960  11.8878410  26.9452150  31.1802690
  11.9658830  27.0800920  30.2358410  12.5020090  26.2368040  31.3730810
  13.1326040  28.6452340  27.5908870  12.7254120  28.7866930  26.7362470
  14.0239050  28.3612500  27.3880080  22.9504920  32.7944250  34.4975920
  23.4649590  32.7052260  35.2998350  22.1074000  33.1403950  34.7903830
  24.9259320  33.0799590  23.9259920  24.7660460  32.7902530  24.8241750
  24.7606030  32.3039720  23.3905150  17.4047700  32.8598120  25.7031540
  17.2290180  31.9433660  25.4899340  16.5503440  33.2185410  25.9429340
  24.6285450  30.5887150  22.4857920  23.9350610  30.5864440  21.8260200
  25.3708310  30.1646470  22.0552090  24.1935380  32.2149860  26.5606410
  24.6492330  31.4339240  26.8745030  24.5327900  32.9256680  27.1047590
  11.9437930  27.9866320  33.7197150  12.1068970  27.5171680  32.9016520
  12.4090380  27.4789880  34.3845990  16.7156700  17.1172080  28.7557720
  16.2724850  17.8981620  28.4242240  17.2741690  17.4401970  29.4628660
  21.0026510  19.9840600  34.3593040  20.5405880  20.1923620  35.1712980
  20.6004620  19.1699950  34.0563710  23.0980730  22.7051300  37.5888490
  23.4234140  21.8715050  37.2490720  23.8861060  23.2279820  37.7366820
  19.8315520  16.7382780  23.6363550  19.2069700  16.7342650  24.3616860
  19.7445640  15.8713740  23.2399520  18.7532600  17.6619410  30.6147320
  19.0504930  18.5682240  30.5339340  19.3018160  17.1738190  30.0006890
  16.5070920  22.2405650  26.4838970  16.2811840  22.0242820  27.3885590
  15.7263450  22.6734110  26.1384940  23.7368680  22.2469020  25.0829620
  23.1377570  22.9704820  24.8993240  24.2848290  22.1845800  24.3006070
  18.9470130  23.1391230  37.1499240  18.8513730  22.1985960  36.9999640
  19.7902110  23.3606300  36.7547310  22.3433550  20.8832560  27.1132900
  22.7363120  21.2004760  26.3001590  22.7050400  20.0044440  27.2277420
  14.0780670  19.5504900  35.3033020  13.6844060  20.3980110  35.5105800
  13.3899070  18.9131270  35.4941660  20.6525720  19.6339870  38.3729760
  19.9624040  19.4412070  39.0075850  21.3958020  19.9174510  38.9054060
  11.3797720  17.4733360  29.3363100  11.0910770  18.0436220  30.0488080
  12.1243480  16.9937810  29.6994330  11.5667950  21.4153480  20.5465820
  11.4842620  22.3584240  20.6880810  11.2151010  21.2728390  19.6678170
  22.9288690  23.4738310  31.2083680  22.1969810  23.9825120  31.5573780
  22.5313030  22.6568290  30.9072460  19.3666080  20.1492510  29.6136170
  19.3702140  19.7082460  28.7640710  20.2617200  20.4709840  29.7207990
  15.2168460  20.0319000  28.5730380  14.8768510  20.5094230  29.3297430
  14.4545780  19.5784120  28.2131480  19.4286230  21.1504590  22.6042930
  19.5499050  21.1091070  23.5528750  19.0434740  22.0128740  22.4489660
  18.4407730  23.4605730  22.0026230  17.8724630  23.0123980  21.3762140
  19.1496730  23.8198510  21.4691380  26.8185350  16.3404170  36.4593000
  27.1431120  15.6093830  36.9850980  26.8541860  16.0217810  35.5573990
  13.5176910  27.3617750  35.8792960  13.1331700  26.7211420  36.4775920
  13.8289100  28.0653870  36.4487690  19.6674050  24.2094290  31.3601580
  20.0344180  23.7352860  32.1062920  19.4779110  25.0835860  31.7009920
  12.5314540  18.9537980  27.4895050  12.2461460  18.5893650  28.3273670
  12.4693400  18.2218440  26.8758190  17.4573420  23.2502930  33.6785790
  17.1530490  24.1294910  33.9036150  18.4119880  23.3102720  33.7143230
  15.9855210  27.4563920  24.2752640  15.2117470  26.9161540  24.1151360
  16.7149840  26.9370530  23.9370400  26.7443190  26.4529280  30.0679030
  27.4642310  26.9484570  29.6775140  26.5425010  25.7747170  29.4232900
  22.2053130  17.8467240  24.2108420  21.3917740  17.3480410  24.1353730
  22.0115080  18.6865490  23.7944770  22.1261990  26.5238340  35.9548030
  22.0599300  25.6034010  35.7005620  21.4967130  26.6213780  36.6692670
  24.9201520  22.2186890  22.5070580  25.8081140  22.5304120  22.3321920
  24.8906610  21.3459140  22.1151160  16.0292610  27.1244300  27.9131450
  16.5471280  26.3212560  27.8588340  15.5776630  27.0623440  28.7548280
  20.9162110  28.3910580  23.1858750  21.2577810  29.1352810  22.6902070
  20.0874820  28.7041700  23.5483580  13.5137150  24.0905670  34.8257150
  13.1552090  24.7559520  35.4130490  13.2191710  23.2589220  35.1969770
  16.7150270  24.5489910  37.7096700  16.4150410  24.6947090  36.8124520
  17.4861510  23.9895200  37.6170090  22.0578720  29.3458910  35.7051830
  22.0723260  28.4139870  35.4870740  21.3503820  29.4318670  36.3441600
  27.1915790  23.5298730  21.9750440  27.1079510  23.9612950  21.1246880
  27.9109980  23.9897080  22.4077260  28.2203040  30.3840990  24.7032570
  27.5779200  29.7296610  24.9776290  27.8333700  30.7896080  23.9273240
  23.7989520  27.7126420  28.5504260  24.1513340  27.1154550  27.8905630
  22.9151850  27.3870650  28.7212510  19.8852800  28.4724110  25.9574670
  20.5723930  29.0193320  26.3382260  19.0985220  29.0164840  25.9924280
  12.0245200  24.0896930  21.4491750  12.8940050  24.3721730  21.7327670
  11.5335520  24.9032800  21.3340560  19.1880010  25.4770140  25.5700030
  19.6442790  26.2875390  25.7960220  18.8368220  25.1593280  26.4018520
  21.4912620  30.9876480  32.7992330  22.1354840  31.1935860  33.4765750
  21.8542060  30.2264880  32.3463180  15.0891790  15.8207790  26.0422550
  14.9606420  15.8125690  26.9907470  14.2653810  16.1590880  25.6913560
  22.7644700  28.9908830  31.5169780  23.4066930  28.2901990  31.6301950
  23.2894050  29.7707270  31.3366670  26.6100420  29.2757450  21.2408920
  26.3838000  28.5587890  21.8333560  26.2196620  29.0269890  20.4030670
  24.5382320  29.7903730  34.7205840  24.8738560  30.3770420  35.3983760
  23.6182660  29.6596440  34.9503630  12.3916450  33.3024310  22.0153380
  12.7514090  33.9013650  21.3610650  12.2508790  33.8484200  22.7888410
  12.0885720  17.5798910  35.5029250  11.3744240  17.7795830  36.1081860
  12.5080760  16.8038480  35.8744050  26.1916670  27.1929390  22.9023080
  25.9038370  27.6542080  23.6900960  26.9868840  26.7327160  23.1707300
  12.3758310  31.5679170  36.4895780  12.4849430  30.6273910  36.3491170
  11.7238870  31.8333920  35.8409510  20.3670900  29.8395060  37.8893900
  20.0467770  29.1204300  38.4339590  19.6929260  30.5150130  37.9629960
  18.4085070  30.6855510  22.8327050  18.3995170  31.4185200  22.2171560
  17.4883430  30.4387090  22.9254010  14.0091710  25.9070400  23.5773810
  13.4019660  26.6469300  23.5869110  14.4841060  25.9969760  22.7512010
  26.9486530  19.0278160  24.0618260  26.3199690  19.1323830  23.3476490
  26.4538450  19.2474940  24.8512140  21.3944670  30.7483750  21.4952240
  21.4956650  30.5447740  20.5654220  20.4946410  30.4942030  21.7000020
  18.9170560  21.3064110  25.4776140  18.2086710  21.7750450  25.9189750
  19.2015040  20.6486120  26.1121330  20.5426490  22.7260810  33.4768670
  21.0411740  23.2006630  34.1420520  20.6849440  21.8024330  33.6838700
  22.9485990  18.0314770  26.9171930  22.8253770  18.0500900  25.9681440
  23.8970550  18.0793710  27.0370330  20.0362780  33.2670070  26.1899910
  20.2904280  33.2291460  25.2679280  19.0875260  33.1403400  26.1828160
  17.1205580  19.6149190  22.8526850  17.9696110  20.0519340  22.7867040
  16.7536850  19.9269450  23.6798910  26.0415360  24.1861950  27.7658420
  25.1005500  24.2012180  27.9406110  26.3559430  23.3997910  28.2118720
  16.0197000  25.8681550  21.3262380  16.7860270  25.7562910  21.8887810
  16.0971690  25.1719520  20.6739150  14.7143760  23.3006620  22.0095270
  14.7947350  22.3534130  22.1212670  15.6063510  23.6313500  22.1155930
  28.0440940  31.3570800  29.4412680  28.1688360  32.1801970  29.9136490
  28.9106500  31.1461530  29.0936830  15.5158470  33.4502010  29.1129810
  16.2520950  32.9017470  29.3838380  15.8999390  34.3158020  28.9735800
  12.4003950  29.5175580  24.9871320  11.4743730  29.7596720  24.9776730
  12.8660380  30.3449840  24.8656070  14.5216750  32.6348080  38.3015390
  15.3229480  32.9560130  38.7150790  14.0068570  32.2743660  39.0235300
  18.6260780  32.6232320  20.9355380  19.4189390  32.9121150  20.4837170
  18.1065130  32.1924490  20.2567860  23.3581380  28.7427950  38.2490800
  22.7519540  28.7659550  37.5086550  23.0535490  28.0110990  38.7858050
  24.7881750  32.4708240  36.8600210  25.7403500  32.3866260  36.8100450
  24.6409970  33.1349950  37.5334000  27.6790950  31.8502450  22.3592120
  27.3932460  31.4367590  21.5446300  27.4810500  32.7790160  22.2392640
  12.2414560  25.1221540  37.2451440  12.7453580  24.5428820  37.8167670
  11.5021980  25.4061770  37.7827810  19.1438180  27.8435730  20.7997730
  19.0388820  27.2288080  21.5259110  18.9762400  27.3201620  20.0160740
  19.2952500  26.5292530  36.7786960  18.5298170  27.0977530  36.6941630
  19.4768460  26.2368740  35.8855190  22.3840910  26.9055760  21.4039720
  21.8351010  27.3525060  22.0482460  23.0060170  26.4005010  21.9277390
  14.2737640  23.2651130  38.1401510  14.3142980  22.9665000  39.0486740
  15.1283140  23.6658740  37.9809030  18.0516030  25.8646680  23.3005020
  18.4732450  25.6986550  24.1436410  18.1766870  25.0546910  22.8060160
  16.2143450  21.8443230  36.1076000  15.6839910  21.3534180  35.4799340
  16.8831520  22.2727430  35.5733930  20.5643670  24.8884290  20.5482120
  21.0849330  24.1733310  20.1823270  21.2112070  25.5270160  20.8482630
  25.1121510  26.3112690  35.8717190  25.5262530  26.4657770  36.7207610
  24.1772510  26.4367910  36.0342970  16.7015750  18.8105600  36.1873290
  16.6072620  18.1926350  35.4624160  16.1213140  19.5371890  35.9603200
  19.4677190  17.3678840  33.2200680  19.0194490  17.3903100  32.3746230
  18.8342390  16.9697860  33.8170980  19.8736740  26.2633170  33.8413120
  20.2924850  27.1065900  33.6689360  18.9545370  26.4005210  33.6119900
  22.2100640  23.9949350  35.2250960  22.3296850  23.3990490  35.9645800
  23.0694640  24.0319040  34.8052260  16.9474930  21.9379910  20.2463180
  16.7463990  21.0747270  20.6076520  16.7766980  21.8513270  19.3084780
  17.7244160  32.5686180  34.9570850  17.1865250  33.2932240  34.6379550
  17.9778120  32.0916520  34.1668190  18.9769410  20.5370700  36.4826780
  19.5669100  20.2286550  37.1704600  18.1589650  20.0650450  36.6386680
  23.7962840  20.1536510  36.7159800  23.1078360  19.4918050  36.6509790
  24.5168860  19.7074780  37.1608260  24.4263240  16.7488140  22.7750060
  24.7065530  15.9056040  23.1309480  23.6528970  16.9811250  23.2888810
  15.7457730  19.0380530  20.2341060  16.0483630  19.0447960  19.3260210
  16.4852320  18.6878390  20.7308720  20.5806370  33.8037390  35.2157500
  20.5065070  34.7072530  35.5229870  19.6785210  33.4849290  35.1879570
  18.9642660  17.9815150  21.2197260  18.6164660  17.3039140  20.6399710
  19.1655430  17.5204660  22.0340650  21.1291700  32.9695900  22.8383860
  22.0242490  33.3080870  22.8602620  21.1609330  32.2475310  22.2108140
  14.7687860  28.3422950  21.0670860  15.2062730  28.8852620  21.7228440
  15.2535590  27.5169900  21.0767200  11.9833660  31.1311980  28.5191120
  12.3136670  30.2633040  28.2869760  12.4124660  31.3370500  29.3496080
  16.5795580  29.4620990  26.1793090  16.2791120  29.3385960  27.0797000
  16.4733070  28.6029580  25.7708820  12.4723870  31.9982570  31.2572750
  12.0354860  32.1783370  32.0896900  13.0401550  32.7557190  31.1154470
  29.3487500  29.2417390  20.8819770  28.5180460  29.3094040  21.3527000
  29.5259330  30.1321510  20.5786630  28.8043960  25.9864870  23.3853970
  29.5662870  26.5561520  23.4913660  28.8198330  25.4192070  24.1562280
  12.3048300  24.5102800  27.6161630  11.6497140  24.2414440  26.9721330
  13.1426250  24.4007280  27.1663610  28.8563130  26.2799240  20.5426490
  29.1311970  27.1878120  20.4145710  28.6673870  26.2161770  21.4788480
  25.2538740  19.3044090  21.8380120  25.6723620  19.1175070  20.9976780
  24.9474800  18.4523140  22.1483050  28.7528470  24.2168230  25.5355920
  28.3772070  23.4496160  25.1037210  28.0231590  24.5990930  26.0230850
  13.3424230  24.8955370  32.1564970  13.7097270  24.8082770  33.0360990
  12.7735050  24.1321920  32.0571830  12.8940230  21.8064460  36.0623390
  11.9996280  21.7731220  36.4017100  13.4337780  22.0051250  36.8274640
  26.5816160  18.5896180  37.9475140  27.4586340  18.5979580  38.3309140
  26.5937000  17.8527020  37.3367490  11.5186380  21.7201730  23.5586960
  10.6150460  21.9831930  23.3838620  12.0027000  21.9912900  22.7786920
  14.0613590  20.7767270  21.4681340  14.7705290  20.3550490  20.9828620
  13.3453530  20.8442500  20.8364690  13.7087750  16.8306600  20.5083990
  14.4315880  17.3715540  20.8265210  13.9812270  16.5570020  19.6325530
  27.5179400  21.6999070  24.7755570  28.0138520  21.4669940  25.5604450
  27.3195470  20.8610910  24.3593210  13.3979940  16.0812790  30.4106610
  14.0456130  15.5310170  29.9701770  13.8181780  16.3355940  31.2322420
  27.2932280  16.2754150  33.7676250  27.9304500  16.8888290  34.1335440
  27.4407170  16.3114810  32.8225480  29.8356830  18.1667940  20.5499390
  30.7606140  18.0349120  20.3417680  29.8132620  18.2460760  21.5035840
  29.9095320  18.9378600  23.1756100  29.1146820  18.8723720  23.7049010
  30.1138600  19.8729240  23.1641450  26.8513740  32.9770150  27.1694490
  27.4472810  32.6554720  26.4928910  27.1091890  32.5041970  27.9607760
  13.1511940  16.2368460  33.1531930  12.8026760  16.6932280  33.9190110
  12.8199640  15.3425590  33.2354360  14.7576310  29.4088060  37.3185120
  14.7145940  29.0380970  38.1999580  14.8887320  30.3465630  37.4586940
  18.4582340  30.9647650  32.9194840  18.2173700  31.2322210  32.0325360
  19.3984980  31.1353380  32.9745700  20.6636760  17.4280340  36.6751350
  20.6025650  18.0202170  37.4246760  21.6037140  17.3206300  36.5301610
  23.3011320  17.0850400  36.3143640  23.9151730  17.4029690  35.6524720
  23.8460880  16.5998990  36.9339500  13.8232580  15.7644660  36.4282700
  14.3715570  15.5832710  35.6648810  13.8887890  14.9738770  36.9639010
  14.5964340  32.3550310  34.4382900  14.0024660  32.2235010  35.1772940
  14.5888180  31.5188450  33.9725000  14.2276570  29.7208690  33.3890940
  13.5010630  29.1013980  33.3216890  14.2885720  30.1149300  32.5189020
  17.8321670  31.9353690  30.1740350  18.3486690  31.3241050  29.6488610
  18.4819050  32.4382470  30.6651360  20.5717170  32.8262180  31.0009330
  20.8594980  32.5716480  30.1242340  21.0840390  32.2739540  31.5914900
  21.7894180  16.5652380  31.5805840  21.0065970  17.0397880  31.8602600
  21.4957110  15.6607210  31.4719020  12.5106570  33.0383080  26.5987700
  12.3428610  32.4053760  27.2969590  11.6441080  33.2442480  26.2481890
  13.1334590  16.8699860  24.1019560  13.8913950  16.9828740  23.5283590
  12.6711760  17.7069060  24.0562990  19.6748400  18.9839130  27.0921870
  18.8622910  18.6096020  26.7517750  20.1790040  18.2284210  27.3943060
  24.1773380  15.6481580  28.3304940  24.7802750  16.2201790  28.8053460
  23.4366370  16.2121020  28.1078840  27.3207980  16.0503140  23.6045220
  27.5158610  16.9486590  23.8712650  26.5337850  15.8190220  24.0978170
  14.1169270  31.7316310  24.0437840  13.5916890  32.1124340  23.3399800
  14.0413850  32.3567080  24.7647550  15.5059740  17.3963910  22.6421530
  16.0352500  16.6093710  22.5129480  16.1388060  18.0755100  22.8757060
  17.6997580  17.1339050  25.6966920  17.0700320  16.4326360  25.8637050
  17.1602720  17.8943180  25.4800080  20.6389530  33.7478280  38.3677530
  21.5656840  33.5122550  38.4113490  20.6239960  34.5750280  37.8863560
  28.8734590  33.2903850  25.3651780  29.0486780  32.6041590  24.7212700
  28.1756160  33.8150900  24.9728450  17.8253140  16.4123030  38.1319410
  17.5437410  16.9156630  37.3680230  18.2072840  15.6144780  37.7661540
  16.7162240  33.6798690  22.9187090  17.4481060  33.3957970  22.3710980
  16.9755910  33.4411970  23.8086470  15.8777030  29.7963420  22.9233420
  15.2485910  30.2648520  23.4719250  15.9924860  28.9512640  23.3579610
  24.4268600  15.8276610  38.7099880  24.3134050  16.1471220  39.6051400
  25.2438340  16.2289120  38.4137160  27.2067090  32.9748140  38.1918570
  27.9992410  32.4797370  37.9844530  27.5000240  33.6538280  38.7994180
  23.3326750  23.8469080   9.0734620  23.2520800  22.9323690   8.8026330
  22.9191170  24.3436150   8.3674330  21.4644790  25.6248100  10.9543890
  20.6886890  25.1448540  11.2442460  22.1157720  24.9453750  10.7800050
  15.4810620  25.9367910  11.8319650  14.6495500  25.6816620  12.2316160
  16.0891600  26.0078680  12.5677570  25.4852220  30.0308290   9.7343020
  25.0233750  29.2595530  10.0630190  26.2977770  30.0574360  10.2395470
  15.4611880  29.9708000  12.0277670  15.7639920  29.0805740  11.8487890
  16.2055470  30.5278220  11.7999920  13.8902570  20.8969800   5.6162040
  13.0019270  21.2385770   5.5141920  14.1743760  20.6970120   4.7242870
  11.8535580  23.4975450  11.5001740  12.4251690  22.7297650  11.5005380
  11.8537120  23.7964210  10.5908350  21.7115530  32.3166300   9.3547010
  21.0926970  32.7723800   8.7841450  22.5667310  32.4717760   8.9536710
  20.9053780  28.3005290  10.9614050  20.8362060  27.3595230  10.8003180
  21.6673640  28.3906700  11.5336620  13.0960450  18.9059810  13.2870670
  12.9163290  18.0085560  13.5673430  12.6940530  19.4531680  13.9617620
  21.9358950  21.1075670  11.1882980  22.3123770  20.2347550  11.0756650
  21.8378460  21.4434370  10.2973420  16.0663960  19.4801300   6.6500420
  16.1730710  20.3805030   6.9569180  15.1556320  19.4319270   6.3595070
  25.7183070  18.6026110   8.1211320  26.5392690  18.1122680   8.1636800
  25.7517150  19.1923770   8.8743160  13.7147120  21.4020310  11.8953010
  14.3957230  21.6658680  12.5140410  13.3995170  20.5621180  12.2291020
  17.9071690  22.4487670  10.9825600  18.4149910  22.9468640  11.6230620
  18.4384930  21.6722870  10.8064960  30.0082620  20.6192860  14.6854950
  29.3034790  21.0074570  14.1670060  30.2740540  21.3143150  15.2875880
  16.1907790  17.0886230  15.2489020  16.1926230  17.6058620  14.4434920
  15.3612100  16.6116410  15.2258950  22.5778880  27.2005540   6.7478920
  21.9596150  27.6654990   6.1841640  23.0902130  27.8933020   7.1648430
  17.4410640  26.7281410  13.4262520  17.1080020  27.3550330  14.0683590
  17.6177320  27.2543290  12.6464190  25.9544550  20.5426490  10.8938860
  25.2500120  20.8311380  11.4741970  26.3156710  21.3526600  10.5338420
  15.8723120  18.7996190  13.2559470  16.2139930  19.6438240  12.9613340
  14.9338930  18.9479930  13.3724810  16.6529740  28.6962210  15.2411700
  17.2703740  29.3713290  14.9596150  15.7922860  29.1050190  15.1499200
  11.9462080  27.8862070   4.1218550  11.5690060  28.3749170   3.3903450
  12.2035150  28.5587350   4.7525080  29.0231470  19.9881280  11.2848070
  28.0756380  20.0220260  11.4163500  29.3481460  20.8020230  11.6697430
  19.5551010  16.2878460   9.5804060  19.8625990  15.7325350   8.8639560
  18.6251710  16.4222920   9.3977050  25.1066070  32.0045750  11.8711520
  25.1193230  31.6008040  11.0033780  24.5541290  32.7793040  11.7672950
  26.4011490  28.7261970   6.9601690  26.2907820  27.7836300   7.0851110
  26.3979740  29.0877610   7.8464450  24.5051510  26.9075590  13.1994130
  24.9220300  26.6935700  12.3647590  25.2291330  27.1648380  13.7702750
  21.9431770  24.3527290   6.3164180  21.0161050  24.2864670   6.5452650
  22.0956590  25.2907420   6.2019420  21.9300850  20.6244290   3.3131340
  20.9904520  20.7858250   3.3983800  22.2484110  21.3429970   2.7667330
  28.4513610  25.3062810  13.2910370  27.6232240  25.3755900  12.8160500
  29.0464090  25.8917120  12.8226200  25.9729060  25.9147590   6.8199430
  25.3541480  25.5767140   6.1725730  25.9553510  25.2707350   7.5278620
  25.4155620  22.0932130  14.2365240  25.0026800  22.9185840  14.4905230
  24.6831570  21.5077170  14.0441600  17.5488410  24.8792030   9.0983910
  17.1445410  24.1669280   8.6029810  17.6351530  24.5345270   9.9871950
  18.0170110  28.5659590  11.2623120  17.7198400  27.9605060  10.5830900
  18.9669930  28.6036900  11.1512480  16.2617030  21.6535240  12.8782950
  16.8131620  21.7630580  12.1036200  16.7760540  22.0272840  13.5938180
  17.1088540  28.3041280  17.9130920  16.2117070  28.5281250  18.1604320
  17.1341410  28.4276220  16.9642320  24.1493760  25.1534400   3.8272180
  24.5887040  24.3156830   3.6810000  24.8622180  25.7863800   3.9136320
  15.9359760  25.1754600  16.4888290  15.7967530  26.0477400  16.8575690
  15.0541120  24.8327410  16.3436230  22.2589140  30.0930470   7.7953420
  22.6985050  30.8354800   7.3808810  22.1976030  30.3357040   8.7192380
  17.7340110  31.1176300  18.6973440  17.7055540  31.5219250  17.8301870
  17.5705080  30.1886660  18.5345040  27.7310900  16.4077210   2.1413220
  27.4183560  16.5004040   3.0412290  28.4923370  16.9858240   2.0910650
  14.2493040  23.7737010   6.5990560  14.1290640  24.4999100   5.9871830
  13.9393930  23.0039920   6.1218470  29.6854930  31.9003400  19.9937610
  30.1614650  32.3786290  20.6726690  30.3062090  31.8320890  19.2683110
  11.8878410  26.9452150  12.4059200  11.9658830  27.0800920  11.4614920
  12.5020090  26.2368040  12.5987320  13.1326040  28.6452340   8.8165380
  12.7254120  28.7866930   7.9618980  14.0239050  28.3612500   8.6136590
  22.9504920  32.7944250  15.7232430  23.4649590  32.7052260  16.5254860
  22.1074000  33.1403950  16.0160340  24.9259320  33.0799590   5.1516430
  24.7660460  32.7902530   6.0498260  24.7606030  32.3039720   4.6161660
  17.4047700  32.8598120   6.9288050  17.2290180  31.9433660   6.7155850
  16.5503440  33.2185410   7.1685850  24.6285450  30.5887150   3.7114430
  23.9350610  30.5864440   3.0516710  25.3708310  30.1646470   3.2808600
  24.1935380  32.2149860   7.7862920  24.6492330  31.4339240   8.1001540
  24.5327900  32.9256680   8.3304100  28.9412190  21.1448710  18.1187360
  28.3256460  21.6528380  17.5902820  28.6208610  20.2447040  18.0613300
  11.9437930  27.9866320  14.9453660  12.1068970  27.5171680  14.1273030
  12.4090380  27.4789880  15.6102500  16.7156700  17.1172080   9.9814230
  16.2724850  17.8981620   9.6498750  17.2741690  17.4401970  10.6885170
  21.0026510  19.9840600  15.5849550  20.5405880  20.1923620  16.3969490
  20.6004620  19.1699950  15.2820220  26.0031020  21.2049550  16.7146210
  25.1524610  20.9055300  17.0355280  25.8432810  21.4491560  15.8030030
  23.0980730  22.7051300  18.8145000  23.4234140  21.8715050  18.4747230
  23.8861060  23.2279820  18.9623330  19.8315520  16.7382780   4.8620060
  19.2069700  16.7342650   5.5873370  19.7445640  15.8713740   4.4656030
  18.7532600  17.6619410  11.8403830  19.0504930  18.5682240  11.7595850
  19.3018160  17.1738190  11.2263400  16.5070920  22.2405650   7.7095480
  16.2811840  22.0242820   8.6142100  15.7263450  22.6734110   7.3641450
  23.7368680  22.2469020   6.3086130  23.1377570  22.9704820   6.1249750
  24.2848290  22.1845800   5.5262580  18.9470130  23.1391230  18.3755750
  18.8513730  22.1985960  18.2256150  19.7902110  23.3606300  17.9803820
  22.3433550  20.8832560   8.3389410  22.7363120  21.2004760   7.5258100
  22.7050400  20.0044440   8.4533930  14.0780670  19.5504900  16.5289530
  13.6844060  20.3980110  16.7362310  13.3899070  18.9131270  16.7198170
  20.6525720  19.6339870  19.5986270  19.9624040  19.4412070  20.2332360
  21.3958020  19.9174510  20.1310570  11.3797720  17.4733360  10.5619610
  11.0910770  18.0436220  11.2744590  12.1243480  16.9937810  10.9250840
  22.9288690  23.4738310  12.4340190  22.1969810  23.9825120  12.7830290
  22.5313030  22.6568290  12.1328970  19.3666080  20.1492510  10.8392680
  19.3702140  19.7082460   9.9897220  20.2617200  20.4709840  10.9464500
  15.2168460  20.0319000   9.7986890  14.8768510  20.5094230  10.5553940
  14.4545780  19.5784120   9.4387990  19.4286230  21.1504590   3.8299440
  19.5499050  21.1091070   4.7785260  19.0434740  22.0128740   3.6746170
  23.3914600  18.9271990  11.8463130  23.4087340  19.3780640  12.6904980
  23.1430180  18.0277630  12.0596570  18.4407730  23.4605730   3.2282740
  17.8724630  23.0123980   2.6018650  19.1496730  23.8198510   2.6947890
  26.8185350  16.3404170  17.6849510  27.1431120  15.6093830  18.2107490
  26.8541860  16.0217810  16.7830500  13.5176910  27.3617750  17.1049470
  13.1331700  26.7211420  17.7032430  13.8289100  28.0653870  17.6744200
  19.6674050  24.2094290  12.5858090  20.0344180  23.7352860  13.3319430
  19.4779110  25.0835860  12.9266430  12.5314540  18.9537980   8.7151560
  12.2461460  18.5893650   9.5530180  12.4693400  18.2218440   8.1014700
  17.4573420  23.2502930  14.9042300  17.1530490  24.1294910  15.1292660
  18.4119880  23.3102720  14.9399740  15.9855210  27.4563920   5.5009150
  15.2117470  26.9161540   5.3407870  16.7149840  26.9370530   5.1626910
  26.7443190  26.4529280  11.2935540  27.4642310  26.9484570  10.9031650
  26.5425010  25.7747170  10.6489410  22.2053130  17.8467240   5.4364930
  21.3917740  17.3480410   5.3610240  22.0115080  18.6865490   5.0201280
  22.1261990  26.5238340  17.1804540  22.0599300  25.6034010  16.9262130
  21.4967130  26.6213780  17.8949180  24.9201520  22.2186890   3.7327090
  25.8081140  22.5304120   3.5578430  24.8906610  21.3459140   3.3407670
  16.0292610  27.1244300   9.1387960  16.5471280  26.3212560   9.0844850
  15.5776630  27.0623440   9.9804790  20.9162110  28.3910580   4.4115260
  21.2577810  29.1352810   3.9158580  20.0874820  28.7041700   4.7740090
  13.5137150  24.0905670  16.0513660  13.1552090  24.7559520  16.6387000
  13.2191710  23.2589220  16.4226280  16.7150270  24.5489910  18.9353210
  16.4150410  24.6947090  18.0381030  17.4861510  23.9895200  18.8426600
  22.0578720  29.3458910  16.9308340  22.0723260  28.4139870  16.7127250
  21.3503820  29.4318670  17.5698110  27.1915790  23.5298730   3.2006950
  27.1079510  23.9612950   2.3503390  27.9109980  23.9897080   3.6333770
  28.2689930  25.9866250  16.2776920  27.5438120  26.5795030  16.0806310
  28.7965390  25.9789790  15.4790290  28.2203040  30.3840990   5.9289080
  27.5779200  29.7296610   6.2032800  27.8333700  30.7896080   5.1529750
  23.7989520  27.7126420   9.7760770  24.1513340  27.1154550   9.1162140
  22.9151850  27.3870650   9.9469020  19.8852800  28.4724110   7.1831180
  20.5723930  29.0193320   7.5638770  19.0985220  29.0164840   7.2180790
  12.0245200  24.0896930   2.6748260  12.8940050  24.3721730   2.9584180
  11.5335520  24.9032800   2.5597070  19.1880010  25.4770140   6.7956540
  19.6442790  26.2875390   7.0216730  18.8368220  25.1593280   7.6275030
  21.4912620  30.9876480  14.0248840  22.1354840  31.1935860  14.7022260
  21.8542060  30.2264880  13.5719690  15.0891790  15.8207790   7.2679060
  14.9606420  15.8125690   8.2163980  14.2653810  16.1590880   6.9170070
  22.7644700  28.9908830  12.7426290  23.4066930  28.2901990  12.8558460
  23.2894050  29.7707270  12.5623180  24.5382320  29.7903730  15.9462350
  24.8738560  30.3770420  16.6240270  23.6182660  29.6596440  16.1760140
  12.3916450  33.3024310   3.2409890  12.7514090  33.9013650   2.5867160
  12.2508790  33.8484200   4.0144920  12.0885720  17.5798910  16.7285760
  11.3744240  17.7795830  17.3338370  12.5080760  16.8038480  17.1000560
  26.1916670  27.1929390   4.1279590  25.9038370  27.6542080   4.9157470
  26.9868840  26.7327160   4.3963810  12.3758310  31.5679170  17.7152290
  12.4849430  30.6273910  17.5747680  11.7238870  31.8333920  17.0666020
  20.3670900  29.8395060  19.1150410  20.0467770  29.1204300  19.6596100
  19.6929260  30.5150130  19.1886470  18.4085070  30.6855510   4.0583560
  18.3995170  31.4185200   3.4428070  17.4883430  30.4387090   4.1510520
  14.0091710  25.9070400   4.8030320  13.4019660  26.6469300   4.8125620
  14.4841060  25.9969760   3.9768520  23.5824500  20.0721220  14.4787210
  23.9505320  19.2516430  14.8066780  22.7222700  20.1323110  14.8942860
  26.9486530  19.0278160   5.2874770  26.3199690  19.1323830   4.5733000
  26.4538450  19.2474940   6.0768650  21.3944670  30.7483750   2.7208750
  21.4956650  30.5447740   1.7910730  20.4946410  30.4942030   2.9256530
  18.9170560  21.3064110   6.7032650  18.2086710  21.7750450   7.1446260
  19.2015040  20.6486120   7.3377840  20.5426490  22.7260810  14.7025180
  21.0411740  23.2006630  15.3677030  20.6849440  21.8024330  14.9095210
  22.9485990  18.0314770   8.1428440  22.8253770  18.0500900   7.1937950
  23.8970550  18.0793710   8.2626840  20.0362780  33.2670070   7.4156420
  20.2904280  33.2291460   6.4935790  19.0875260  33.1403400   7.4084670
  17.1205580  19.6149190   4.0783360  17.9696110  20.0519340   4.0123550
  16.7536850  19.9269450   4.9055420  27.7493350  18.9428770  15.5453570
  27.2466950  19.6834170  15.8847380  28.5650010  19.3312770  15.2290360
  26.0415360  24.1861950   8.9914930  25.1005500  24.2012180   9.1662620
  26.3559430  23.3997910   9.4375230  16.0197000  25.8681550   2.5518890
  16.7860270  25.7562910   3.1144320  16.0971690  25.1719520   1.8995660
  14.7143760  23.3006620   3.2351780  14.7947350  22.3534130   3.3469180
  15.6063510  23.6313500   3.3412440  28.0440940  31.3570800  10.6669190
  28.1688360  32.1801970  11.1393000  28.9106500  31.1461530  10.3193340
  15.5158470  33.4502010  10.3386320  16.2520950  32.9017470  10.6094890
  15.8999390  34.3158020  10.1992310  12.4003950  29.5175580   6.2127830
  11.4743730  29.7596720   6.2033240  12.8660380  30.3449840   6.0912580
  14.5216750  32.6348080  19.5271900  15.3229480  32.9560130  19.9407300
  14.0068570  32.2743660  20.2491810  23.3581380  28.7427950  19.4747310
  22.7519540  28.7659550  18.7343060  23.0535490  28.0110990  20.0114560
  24.7881750  32.4708240  18.0856720  25.7403500  32.3866260  18.0356960
  24.6409970  33.1349950  18.7590510  27.6790950  31.8502450   3.5848630
  27.3932460  31.4367590   2.7702810  27.4810500  32.7790160   3.4649150
  12.2414560  25.1221540  18.4707950  12.7453580  24.5428820  19.0424180
  11.5021980  25.4061770  19.0084320  19.2952500  26.5292530  18.0043470
  18.5298170  27.0977530  17.9198140  19.4768460  26.2368740  17.1111700
  22.3840910  26.9055760   2.6296230  21.8351010  27.3525060   3.2738970
  23.0060170  26.4005010   3.1533900  26.4375850  28.2597860  18.5618490
  27.1785320  28.5973620  18.0585950  25.6748530  28.4289920  18.0088260
  14.2737640  23.2651130  19.3658020  14.3142980  22.9665000  20.2743250
  15.1283140  23.6658740  19.2065540  18.0516030  25.8646680   4.5261530
  18.4732450  25.6986550   5.3692920  18.1766870  25.0546910   4.0316670
  16.2143450  21.8443230  17.3332510  15.6839910  21.3534180  16.7055850
  16.8831520  22.2727430  16.7990440  25.1121510  26.3112690  17.0973700
  25.5262530  26.4657770  17.9464120  24.1772510  26.4367910  17.2599480
  25.5843680  23.6508850  19.1012850  26.1664450  22.8961170  19.0133330
  25.7605450  24.1816290  18.3244330  16.7015750  18.8105600  17.4129800
  16.6072620  18.1926350  16.6880670  16.1213140  19.5371890  17.1859710
  19.4677190  17.3678840  14.4457190  19.0194490  17.3903100  13.6002740
  18.8342390  16.9697860  15.0427490  19.8736740  26.2633170  15.0669630
  20.2924850  27.1065900  14.8945870  18.9545370  26.4005210  14.8376410
  22.2100640  23.9949350  16.4507470  22.3296850  23.3990490  17.1902310
  23.0694640  24.0319040  16.0308770  24.5488540  24.5486540  15.0269980
  24.0223760  25.0729160  14.4235120  24.8919880  25.1813930  15.6579710
  17.7244160  32.5686180  16.1827360  17.1865250  33.2932240  15.8636060
  17.9778120  32.0916520  15.3924700  18.9769410  20.5370700  17.7083290
  19.5669100  20.2286550  18.3961110  18.1589650  20.0650450  17.8643190
  23.7962840  20.1536510  17.9416310  23.1078360  19.4918050  17.8766300
  24.5168860  19.7074780  18.3864770  24.4263240  16.7488140   4.0006570
  24.7065530  15.9056040   4.3565990  23.6528970  16.9811250   4.5145320
  20.5806370  33.8037390  16.4414010  20.5065070  34.7072530  16.7486380
  19.6785210  33.4849290  16.4136080  18.9642660  17.9815150   2.4453770
  18.6164660  17.3039140   1.8656220  19.1655430  17.5204660   3.2597160
  21.1291700  32.9695900   4.0640370  22.0242490  33.3080870   4.0859130
  21.1609330  32.2475310   3.4364650  14.7687860  28.3422950   2.2927370
  15.2062730  28.8852620   2.9484950  15.2535590  27.5169900   2.3023710
  11.9833660  31.1311980   9.7447630  12.3136670  30.2633040   9.5126270
  12.4124660  31.3370500  10.5752590  16.5795580  29.4620990   7.4049600
  16.2791120  29.3385960   8.3053510  16.4733070  28.6029580   6.9965330
  12.4723870  31.9982570  12.4829260  12.0354860  32.1783370  13.3153410
  13.0401550  32.7557190  12.3410980  29.3487500  29.2417390   2.1076280
  28.5180460  29.3094040   2.5783510  29.5259330  30.1321510   1.8043140
  28.8043960  25.9864870   4.6110480  29.5662870  26.5561520   4.7170170
  28.8198330  25.4192070   5.3818790  12.3048300  24.5102800   8.8418140
  11.6497140  24.2414440   8.1977840  13.1426250  24.4007280   8.3920120
  29.8103930  26.8414970   9.4552410  30.1812760  26.0582290   9.0488380
  30.4505860  27.5304070   9.2769710  26.7937690  28.2251550  14.8682730
  25.9797530  28.6548710  15.1308520  27.2011890  28.8369960  14.2551780
  28.8563130  26.2799240   1.7683000  29.1311970  27.1878120   1.6402220
  28.6673870  26.2161770   2.7044990  25.2538740  19.3044090   3.0636630
  25.6723620  19.1175070   2.2233290  24.9474800  18.4523140   3.3739560
  28.7528470  24.2168230   6.7612430  28.3772070  23.4496160   6.3293720
  28.0231590  24.5990930   7.2487360  13.3424230  24.8955370  13.3821480
  13.7097270  24.8082770  14.2617500  12.7735050  24.1321920  13.2828340
  28.1428090  23.3639750  16.3951950  27.9114180  23.1352500  15.4949900
  28.4032640  24.2839300  16.3496840  12.8940230  21.8064460  17.2879900
  11.9996280  21.7731220  17.6273610  13.4337780  22.0051250  18.0531150
  26.5816160  18.5896180  19.1731650  27.4586340  18.5979580  19.5565650
  26.5937000  17.8527020  18.5624000  11.5186380  21.7201730   4.7843470
  10.6150460  21.9831930   4.6095130  12.0027000  21.9912900   4.0043430
  28.0279430  22.4425720  10.0619670  28.5516910  21.9488370   9.4309840
  28.6138850  22.5776080  10.8067240  28.2069150  22.5265590  13.5839220
  27.2571860  22.4929130  13.6984210  28.3882160  23.4365700  13.3488990
  14.0613590  20.7767270   2.6937850  14.7705290  20.3550490   2.2085130
  13.3453530  20.8442500   2.0621200  27.5179400  21.6999070   6.0012080
  28.0138520  21.4669940   6.7860960  27.3195470  20.8610910   5.5849720
  13.3979940  16.0812790  11.6363120  14.0456130  15.5310170  11.1958280
  13.8181780  16.3355940  12.4578930  28.9466560  20.3360020   8.5349760
  28.8365840  20.1816060   9.4732030  29.7074150  19.8080960   8.2925170
  27.2932280  16.2754150  14.9932760  27.9304500  16.8888290  15.3591950
  27.4407170  16.3114810  14.0481990  29.9095320  18.9378600   4.4012610
  29.1146820  18.8723720   4.9305520  30.1138600  19.8729240   4.3897960
  26.8513740  32.9770150   8.3951000  27.4472810  32.6554720   7.7185420
  27.1091890  32.5041970   9.1864270  13.1511940  16.2368460  14.3788440
  12.8026760  16.6932280  15.1446620  12.8199640  15.3425590  14.4610870
  14.7576310  29.4088060  18.5441630  14.7145940  29.0380970  19.4256090
  14.8887320  30.3465630  18.6843450  18.4582340  30.9647650  14.1451350
  18.2173700  31.2322210  13.2581870  19.3984980  31.1353380  14.2002210
  20.6636760  17.4280340  17.9007860  20.6025650  18.0202170  18.6503270
  21.6037140  17.3206300  17.7558120  23.3011320  17.0850400  17.5400150
  23.9151730  17.4029690  16.8781230  23.8460880  16.5998990  18.1596010
  13.8232580  15.7644660  17.6539210  14.3715570  15.5832710  16.8905320
  13.8887890  14.9738770  18.1895520  14.5964340  32.3550310  15.6639410
  14.0024660  32.2235010  16.4029450  14.5888180  31.5188450  15.1981510
  24.0419360  15.6482540  13.8669440  23.1679200  15.9817650  13.6642370
  23.9330110  15.1755720  14.6921310  24.9491340  17.8553410  15.2511160
  24.6204700  17.0405170  14.8712890  25.8973640  17.8123220  15.1276850
  14.2276570  29.7208690  14.6147450  13.5010630  29.1013980  14.5473400
  14.2885720  30.1149300  13.7445530  17.8321670  31.9353690  11.3996860
  18.3486690  31.3241050  10.8745120  18.4819050  32.4382470  11.8907870
  20.5717170  32.8262180  12.2265840  20.8594980  32.5716480  11.3498850
  21.0840390  32.2739540  12.8171410  21.7894180  16.5652380  12.8062350
  21.0065970  17.0397880  13.0859110  21.4957110  15.6607210  12.6975530
  26.3415250  17.2675480  10.8511440  26.7823340  17.2120580  10.0033040
  26.0722840  18.1833490  10.9221620  28.2053820  16.8990720   8.8620260
  28.1442220  15.9551940   8.7151280  28.9845850  17.0070810   9.4073720
  12.5106570  33.0383080   7.8244210  12.3428610  32.4053760   8.5226100
  11.6441080  33.2442480   7.4738400  13.1334590  16.8699860   5.3276070
  13.8913950  16.9828740   4.7540100  12.6711760  17.7069060   5.2819500
  19.6748400  18.9839130   8.3178380  18.8622910  18.6096020   7.9774260
  20.1790040  18.2284210   8.6199570  24.1773380  15.6481580   9.5561450
  24.7802750  16.2201790  10.0309970  23.4366370  16.2121020   9.3335350
  27.3207980  16.0503140   4.8301730  27.5158610  16.9486590   5.0969160
  26.5337850  15.8190220   5.3234680  14.1169270  31.7316310   5.2694350
  13.5916890  32.1124340   4.5656310  14.0413850  32.3567080   5.9904060
  15.5059740  17.3963910   3.8678040  16.0352500  16.6093710   3.7385990
  16.1388060  18.0755100   4.1013570  17.6997580  17.1339050   6.9223430
  17.0700320  16.4326360   7.0893560  17.1602720  17.8943180   6.7056590
  20.6389530  33.7478280  19.5934040  21.5656840  33.5122550  19.6370000
  20.6239960  34.5750280  19.1120070  28.8734590  33.2903850   6.5908290
  29.0486780  32.6041590   5.9469210  28.1756160  33.8150900   6.1984960
  17.8253140  16.4123030  19.3575920  17.5437410  16.9156630  18.5936740
  18.2072840  15.6144780  18.9918050  16.7162240  33.6798690   4.1443600
  17.4481060  33.3957970   3.5967490  16.9755910  33.4411970   5.0342980
  15.8777030  29.7963420   4.1489930  15.2485910  30.2648520   4.6975760
  15.9924860  28.9512640   4.5836120  24.4268600  15.8276610  19.9356390
  24.3134050  16.1471220  20.8307910  25.2438340  16.2289120  19.6393670
  27.2067090  32.9748140  19.4175080  27.9992410  32.4797370  19.2101040
  27.5000240  33.6538280  20.0250690  23.3326750   5.0725590  46.6221600
  23.2520800   4.1580200  46.3513310  22.9191170   5.5692660  45.9161310
  21.4644790   6.8504610  48.5030870  20.6886890   6.3705050  48.7929440
  22.1157720   6.1710260  48.3287030  15.4810620   7.1624420  49.3806630
  14.6495500   6.9073130  49.7803140  16.0891600   7.2335190  50.1164550
  25.4852220  11.2564800  47.2830000  25.0233750  10.4852040  47.6117170
  26.2977770  11.2830870  47.7882450  15.4611880  11.1964510  49.5764650
  15.7639920  10.3062250  49.3974870  16.2055470  11.7534730  49.3486900
  13.8902570   2.1226310  43.1649020  13.0019270   2.4642280  43.0628900
  14.1743760   1.9226630  42.2729850  11.8535580   4.7231960  49.0488720
  12.4251690   3.9554160  49.0492360  11.8537120   5.0220720  48.1395330
  21.7115530  13.5422810  46.9033990  21.0926970  13.9980310  46.3328430
  22.5667310  13.6974270  46.5023690  20.9053780   9.5261800  48.5101030
  20.8362060   8.5851740  48.3490160  21.6673640   9.6163210  49.0823600
  21.9358950   2.3332180  48.7369960  22.3123770   1.4604060  48.6243630
  21.8378460   2.6690880  47.8460400  13.7147120   2.6276820  49.4439990
  14.3957230   2.8915190  50.0627390  13.3995170   1.7877690  49.7778000
  17.9071690   3.6744180  48.5312580  18.4149910   4.1725150  49.1717600
  18.4384930   2.8979380  48.3551940  30.0082620   1.8449370  52.2341930
  29.3034790   2.2331080  51.7157040  30.2740540   2.5399660  52.8362860
  22.5778880   8.4262050  44.2965900  21.9596150   8.8911500  43.7328620
  23.0902130   9.1189530  44.7135410  17.4410640   7.9537920  50.9749500
  17.1080020   8.5806840  51.6170570  17.6177320   8.4799800  50.1951170
  25.9544550   1.7683000  48.4425840  25.2500120   2.0567890  49.0228950
  26.3156710   2.5783110  48.0825400  16.6529740   9.9218720  52.7898680
  17.2703740  10.5969800  52.5083130  15.7922860  10.3306700  52.6986180
  11.9462080   9.1118580  41.6705530  11.5690060   9.6005680  40.9390430
  12.2035150   9.7843860  42.3012060  27.5707330  11.3858130  50.7053320
  26.8870850  12.0557240  50.6969990  28.1101620  11.5838780  49.9398180
  25.1066070  13.2302260  49.4198500  25.1193230  12.8264550  48.5520760
  24.5541290  14.0049550  49.3159930  26.4011490   9.9518480  44.5088670
  26.2907820   9.0092810  44.6338090  26.3979740  10.3134120  45.3951430
  24.5051510   8.1332100  50.7481110  24.9220300   7.9192210  49.9134570
  25.2291330   8.3904890  51.3189730  21.9431770   5.5783800  43.8651160
  21.0161050   5.5121180  44.0939630  22.0956590   6.5163930  43.7506400
  21.9300850   1.8500800  40.8618320  20.9904520   2.0114760  40.9470780
  22.2484110   2.5686480  40.3154310  28.4513610   6.5319320  50.8397350
  27.6232240   6.6012410  50.3647480  29.0464090   7.1173630  50.3713180
  25.9729060   7.1404100  44.3686410  25.3541480   6.8023650  43.7212710
  25.9553510   6.4963860  45.0765600  25.4155620   3.3188640  51.7852220
  25.0026800   4.1442350  52.0392210  24.6831570   2.7333680  51.5928580
  17.5488410   6.1048540  46.6470890  17.1445410   5.3925790  46.1516790
  17.6351530   5.7601780  47.5358930  18.0170110   9.7916100  48.8110100
  17.7198400   9.1861570  48.1317880  18.9669930   9.8293410  48.6999460
  16.2617030   2.8791750  50.4269930  16.8131620   2.9887090  49.6523180
  16.7760540   3.2529350  51.1425160  26.1055720  13.3647970  52.4733200
  25.6286280  14.1720160  52.2805810  25.4217510  12.7126300  52.6259410
  17.1088540   9.5297790  55.4617900  16.2117070   9.7537760  55.7091300
  17.1341410   9.6532730  54.5129300  24.1493760   6.3790910  41.3759160
  24.5887040   5.5413340  41.2296980  24.8622180   7.0120310  41.4623300
  15.9359760   6.4011110  54.0375270  15.7967530   7.2733910  54.4062670
  15.0541120   6.0583920  53.8923210  22.2589140  11.3186980  45.3440400
  22.6985050  12.0611310  44.9295790  22.1976030  11.5613550  46.2679360
  17.7340110  12.3432810  56.2460420  17.7055540  12.7475760  55.3788850
  17.5705080  11.4143170  56.0832020  14.2493040   4.9993520  44.1477540
  14.1290640   5.7255610  43.5358810  13.9393930   4.2296430  43.6705450
  11.8878410   8.1708660  49.9546180  11.9658830   8.3057430  49.0101900
  12.5020090   7.4624550  50.1474300  13.1326040   9.8708850  46.3652360
  12.7254120  10.0123440  45.5105960  14.0239050   9.5869010  46.1623570
  29.0888180  10.3172760  54.7024600  29.2151240  10.0784640  53.7841780
  29.1309560   9.4857300  55.1746680  22.9504920  14.0200760  53.2719410
  23.4649590  13.9308770  54.0741840  22.1074000  14.3660460  53.5647320
  24.9259320  14.3056100  42.7003410  24.7660460  14.0159040  43.5985240
  24.7606030  13.5296230  42.1648640  17.4047700  14.0854630  44.4775030
  17.2290180  13.1690170  44.2642830  16.5503440  14.4441920  44.7172830
  24.6285450  11.8143660  41.2601410  23.9350610  11.8120950  40.6003690
  25.3708310  11.3902980  40.8295580  24.1935380  13.4406370  45.3349900
  24.6492330  12.6595750  45.6488520  24.5327900  14.1513190  45.8791080
  28.9412190   2.3705220  55.6674340  28.3256460   2.8784890  55.1389800
  28.6208610   1.4703550  55.6100280  11.9437930   9.2122830  52.4940640
  12.1068970   8.7428190  51.6760010  12.4090380   8.7046390  53.1589480
  26.0031020   2.4306060  54.2633190  25.1524610   2.1311810  54.5842260
  25.8432810   2.6748070  53.3517010  23.0980730   3.9307810  56.3631980
  23.4234140   3.0971560  56.0234210  23.8861060   4.4536330  56.5110310
  16.5070920   3.4662160  45.2582460  16.2811840   3.2499330  46.1629080
  15.7263450   3.8990620  44.9128430  23.7368680   3.4725530  43.8573110
  23.1377570   4.1961330  43.6736730  24.2848290   3.4102310  43.0749560
  18.9470130   4.3647740  55.9242730  18.8513730   3.4242470  55.7743130
  19.7902110   4.5862810  55.5290800  11.5667950   2.6409990  39.3209310
  11.4842620   3.5840750  39.4624300  11.2151010   2.4984900  38.4421660
  22.9288690   4.6994820  49.9827170  22.1969810   5.2081630  50.3317270
  22.5313030   3.8824800  49.6815950  19.4286230   2.3761100  41.3786420
  19.5499050   2.3347580  42.3272240  19.0434740   3.2385250  41.2233150
  18.4407730   4.6862240  40.7769720  17.8724630   4.2380490  40.1505630
  19.1496730   5.0455020  40.2434870  13.5176910   8.5874260  54.6536450
  13.1331700   7.9467930  55.2519410  13.8289100   9.2910380  55.2231180
  19.6674050   5.4350800  50.1345070  20.0344180   4.9609370  50.8806410
  19.4779110   6.3092370  50.4753410  17.4573420   4.4759440  52.4529280
  17.1530490   5.3551420  52.6779640  18.4119880   4.5359230  52.4886720
  15.9855210   8.6820430  43.0496130  15.2117470   8.1418050  42.8894850
  16.7149840   8.1627040  42.7113890  26.7443190   7.6785790  48.8422520
  27.4642310   8.1741080  48.4518630  26.5425010   7.0003680  48.1976390
  22.1261990   7.7494850  54.7291520  22.0599300   6.8290520  54.4749110
  21.4967130   7.8470290  55.4436160  24.9201520   3.4443400  41.2814070
  25.8081140   3.7560630  41.1065410  24.8906610   2.5715650  40.8894650
  16.0292610   8.3500810  46.6874940  16.5471280   7.5469070  46.6331830
  15.5776630   8.2879950  47.5291770  20.9162110   9.6167090  41.9602240
  21.2577810  10.3609320  41.4645560  20.0874820   9.9298210  42.3227070
  13.5137150   5.3162180  53.6000640  13.1552090   5.9816030  54.1873980
  13.2191710   4.4845730  53.9713260  16.7150270   5.7746420  56.4840190
  16.4150410   5.9203600  55.5868010  17.4861510   5.2151710  56.3913580
  22.0578720  10.5715420  54.4795320  22.0723260   9.6396380  54.2614230
  21.3503820  10.6575180  55.1185090  27.1915790   4.7555240  40.7493930
  27.1079510   5.1869460  39.8990370  27.9109980   5.2153590  41.1820750
  28.2689930   7.2122760  53.8263900  27.5438120   7.8051540  53.6293290
  28.7965390   7.2046300  53.0277270  28.2203040  11.6097500  43.4776060
  27.5779200  10.9553120  43.7519780  27.8333700  12.0152590  42.7016730
  23.7989520   8.9382930  47.3247750  24.1513340   8.3411060  46.6649120
  22.9151850   8.6127160  47.4956000  19.8852800   9.6980620  44.7318160
  20.5723930  10.2449830  45.1125750  19.0985220  10.2421350  44.7667770
  12.0245200   5.3153440  40.2235240  12.8940050   5.5978240  40.5071160
  11.5335520   6.1289310  40.1084050  19.1880010   6.7026650  44.3443520
  19.6442790   7.5131900  44.5703710  18.8368220   6.3849790  45.1762010
  21.4912620  12.2132990  51.5735820  22.1354840  12.4192370  52.2509240
  21.8542060  11.4521390  51.1206670  22.7644700  10.2165340  50.2913270
  23.4066930   9.5158500  50.4045440  23.2894050  10.9963780  50.1110160
  26.6100420  10.5013960  40.0152410  26.3838000   9.7844400  40.6077050
  26.2196620  10.2526400  39.1774160  24.5382320  11.0160240  53.4949330
  24.8738560  11.6026930  54.1727250  23.6182660  10.8852950  53.7247120
  12.3916450  14.5280820  40.7896870  12.7514090  15.1270160  40.1354140
  12.2508790  15.0740710  41.5631900  26.1916670   8.4185900  41.6766570
  25.9038370   8.8798590  42.4644450  26.9868840   7.9583670  41.9450790
  12.3758310  12.7935680  55.2639270  12.4849430  11.8530420  55.1234660
  11.7238870  13.0590430  54.6153000  20.3670900  11.0651570  56.6637390
  20.0467770  10.3460810  57.2083080  19.6929260  11.7406640  56.7373450
  18.4085070  11.9112020  41.6070540  18.3995170  12.6441710  40.9915050
  17.4883430  11.6643600  41.6997500  14.0091710   7.1326910  42.3517300
  13.4019660   7.8725810  42.3612600  14.4841060   7.2226270  41.5255500
  21.3944670  11.9740260  40.2695730  21.4956650  11.7704250  39.3397710
  20.4946410  11.7198540  40.4743510  18.9170560   2.5320620  44.2519630
  18.2086710   3.0006960  44.6933240  19.2015040   1.8742630  44.8864820
  20.5426490   3.9517320  52.2512160  21.0411740   4.4263140  52.9164010
  20.6849440   3.0280840  52.4582190  20.0362780  14.4926580  44.9643400
  20.2904280  14.4547970  44.0422770  19.0875260  14.3659910  44.9571650
  26.0415360   5.4118460  46.5401910  25.1005500   5.4268690  46.7149600
  26.3559430   4.6254420  46.9862210  16.0197000   7.0938060  40.1005870
  16.7860270   6.9819420  40.6631300  16.0971690   6.3976030  39.4482640
  14.7143760   4.5263130  40.7838760  14.7947350   3.5790640  40.8956160
  15.6063510   4.8570010  40.8899420  28.0440940  12.5827310  48.2156170
  28.1688360  13.4058480  48.6879980  28.9106500  12.3718040  47.8680320
  15.5158470  14.6758520  47.8873300  16.2520950  14.1273980  48.1581870
  15.8999390  15.5414530  47.7479290  12.4003950  10.7432090  43.7614810
  11.4743730  10.9853230  43.7520220  12.8660380  11.5706350  43.6399560
  18.6260780  13.8488830  39.7098870  19.4189390  14.1377660  39.2580660
  18.1065130  13.4181000  39.0311350  24.7881750  13.6964750  55.6343700
  25.7403500  13.6122770  55.5843940  24.6409970  14.3606460  56.3077490
  27.6790950  13.0758960  41.1335610  27.3932460  12.6624100  40.3189790
  27.4810500  14.0046670  41.0136130  12.2414560   6.3478050  56.0194930
  12.7453580   5.7685330  56.5911160  11.5021980   6.6318280  56.5571300
  19.1438180   9.0692240  39.5741220  19.0388820   8.4544590  40.3002600
  18.9762400   8.5458130  38.7904230  19.2952500   7.7549040  55.5530450
  18.5298170   8.3234040  55.4685120  19.4768460   7.4625250  54.6598680
  22.3840910   8.1312270  40.1783210  21.8351010   8.5781570  40.8225950
  23.0060170   7.6261520  40.7020880  26.4375850   9.4854370  56.1105470
  27.1785320   9.8230130  55.6072930  25.6748530   9.6546430  55.5575240
  18.0516030   7.0903190  42.0748510  18.4732450   6.9243060  42.9179900
  18.1766870   6.2803420  41.5803650  16.2143450   3.0699740  54.8819490
  15.6839910   2.5790690  54.2542830  16.8831520   3.4983940  54.3477420
  20.5643670   6.1140800  39.3225610  21.0849330   5.3989820  38.9566760
  21.2112070   6.7526670  39.6226120  25.1121510   7.5369200  54.6460680
  25.5262530   7.6914280  55.4951100  24.1772510   7.6624420  54.8086460
  25.5843680   4.8765360  56.6499830  26.1664450   4.1217680  56.5620310
  25.7605450   5.4072800  55.8731310  19.8736740   7.4889680  52.6156610
  20.2924850   8.3322410  52.4432850  18.9545370   7.6261720  52.3863390
  22.2100640   5.2205860  53.9994450  22.3296850   4.6247000  54.7389290
  23.0694640   5.2575550  53.5795750  24.5488540   5.7743050  52.5756960
  24.0223760   6.2985670  51.9722100  24.8919880   6.4070440  53.2066690
  16.9474930   3.1636420  39.0206670  16.7463990   2.3003780  39.3820010
  16.7766980   3.0769780  38.0828270  17.7244160  13.7942690  53.7314340
  17.1865250  14.5188750  53.4123040  17.9778120  13.3173030  52.9411680
  20.5806370  15.0293900  53.9900990  20.5065070  15.9329040  54.2973360
  19.6785210  14.7105800  53.9623060  21.1291700  14.1952410  41.6127350
  22.0242490  14.5337380  41.6346110  21.1609330  13.4731820  40.9851630
  14.7687860   9.5679460  39.8414350  15.2062730  10.1109130  40.4971930
  15.2535590   8.7426410  39.8510690  11.9833660  12.3568490  47.2934610
  12.3136670  11.4889550  47.0613250  12.4124660  12.5627010  48.1239570
  16.5795580  10.6877500  44.9536580  16.2791120  10.5642470  45.8540490
  16.4733070   9.8286090  44.5452310  12.4723870  13.2239080  50.0316240
  12.0354860  13.4039880  50.8640390  13.0401550  13.9813700  49.8897960
  28.1086050  12.7256080  54.3193550  27.5088040  12.7848640  53.5757470
  28.2379950  11.7861060  54.4490400  29.3487500  10.4673900  39.6563260
  28.5180460  10.5350550  40.1270490  29.5259330  11.3578020  39.3530120
  28.8043960   7.2121380  42.1597460  29.5662870   7.7818030  42.2657150
  28.8198330   6.6448580  42.9305770  12.3048300   5.7359310  46.3905120
  11.6497140   5.4670950  45.7464820  13.1426250   5.6263790  45.9407100
  29.8103930   8.0671480  47.0039390  30.1812760   7.2838800  46.5975360
  30.4505860   8.7560580  46.8256690  26.7937690   9.4508060  52.4169710
  25.9797530   9.8805220  52.6795500  27.2011890  10.0626470  51.8038760
  28.8563130   7.5055750  39.3169980  29.1311970   8.4134630  39.1889200
  28.6673870   7.4418280  40.2531970  28.7528470   5.4424740  44.3099410
  28.3772070   4.6752670  43.8780700  28.0231590   5.8247440  44.7974340
  13.3424230   6.1211880  50.9308460  13.7097270   6.0339280  51.8104480
  12.7735050   5.3578430  50.8315320  28.1428090   4.5896260  53.9438930
  27.9114180   4.3609010  53.0436880  28.4032640   5.5095810  53.8983820
  12.8940230   3.0320970  54.8366880  11.9996280   2.9987730  55.1760590
  13.4337780   3.2307760  55.6018130  11.5186380   2.9458240  42.3330450
  10.6150460   3.2088440  42.1582110  12.0027000   3.2169410  41.5530410
  28.0279430   3.6682230  47.6106650  28.5516910   3.1744880  46.9796820
  28.6138850   3.8032590  48.3554220  28.2069150   3.7522100  51.1326200
  27.2571860   3.7185640  51.2471190  28.3882160   4.6622210  50.8975970
  14.0613590   2.0023780  40.2424830  14.7705290   1.5807000  39.7572110
  13.3453530   2.0699010  39.6108180  27.5179400   2.9255580  43.5499060
  28.0138520   2.6926450  44.3347940  27.3195470   2.0867420  43.1336700
  26.8513740  14.2026660  45.9437980  27.4472810  13.8811230  45.2672400
  27.1091890  13.7298480  46.7351250  14.7576310  10.6344570  56.0928610
  14.7145940  10.2637480  56.9743070  14.8887320  11.5722140  56.2330430
  18.4582340  12.1904160  51.6938330  18.2173700  12.4578720  50.8068850
  19.3984980  12.3609890  51.7489190  29.7186500  14.2098540  52.4948970
  29.2244780  14.6067410  51.7776100  29.1099790  13.5847750  52.8886250
  14.5964340  13.5806820  53.2126390  14.0024660  13.4491520  53.9516430
  14.5888180  12.7444960  52.7468490  27.4025950  14.8521960  49.7735710
  26.9428920  15.6037770  49.3993730  26.7738410  14.1328430  49.7150510
  14.2276570  10.9465200  52.1634430  13.5010630  10.3270490  52.0960380
  14.2885720  11.3405810  51.2932510  17.8321670  13.1610200  48.9483840
  18.3486690  12.5497560  48.4232100  18.4819050  13.6638980  49.4394850
  20.5717170  14.0518690  49.7752820  20.8594980  13.7972990  48.8985830
  21.0840390  13.4996050  50.3658390  12.5106570  14.2639590  45.3731190
  12.3428610  13.6310270  46.0713080  11.6441080  14.4698990  45.0225380
  14.1169270  12.9572820  42.8181330  13.5916890  13.3380850  42.1143290
  14.0413850  13.5823590  43.5391040  20.6389530  14.9734790  57.1421020
  21.5656840  14.7379060  57.1856980  20.6239960  15.8006790  56.6607050
  28.8734590  14.5160360  44.1395270  29.0486780  13.8298100  43.4956190
  28.1756160  15.0407410  43.7471940  16.7162240  14.9055200  41.6930580
  17.4481060  14.6214480  41.1454470  16.9755910  14.6668480  42.5829960
  15.8777030  11.0219930  41.6976910  15.2485910  11.4905030  42.2462740
  15.9924860  10.1769150  42.1323100  23.3326750   5.0725590  27.8478110
  23.2520800   4.1580200  27.5769820  22.9191170   5.5692660  27.1417820
  21.4644790   6.8504610  29.7287380  20.6886890   6.3705050  30.0185950
  22.1157720   6.1710260  29.5543540  15.4810620   7.1624420  30.6063140
  14.6495500   6.9073130  31.0059650  16.0891600   7.2335190  31.3421060
  25.4852220  11.2564800  28.5086510  25.0233750  10.4852040  28.8373680
  26.2977770  11.2830870  29.0138960  15.4611880  11.1964510  30.8021160
  15.7639920  10.3062250  30.6231380  16.2055470  11.7534730  30.5743410
  13.8902570   2.1226310  24.3905530  13.0019270   2.4642280  24.2885410
  14.1743760   1.9226630  23.4986360  11.8535580   4.7231960  30.2745230
  12.4251690   3.9554160  30.2748870  11.8537120   5.0220720  29.3651840
  21.7115530  13.5422810  28.1290500  21.0926970  13.9980310  27.5584940
  22.5667310  13.6974270  27.7280200  20.9053780   9.5261800  29.7357540
  20.8362060   8.5851740  29.5746670  21.6673640   9.6163210  30.3080110
  21.9358950   2.3332180  29.9626470  22.3123770   1.4604060  29.8500140
  21.8378460   2.6690880  29.0716910  13.7147120   2.6276820  30.6696500
  14.3957230   2.8915190  31.2883900  13.3995170   1.7877690  31.0034510
  17.9071690   3.6744180  29.7569090  18.4149910   4.1725150  30.3974110
  18.4384930   2.8979380  29.5808450  30.0082620   1.8449370  33.4598440
  29.3034790   2.2331080  32.9413550  30.2740540   2.5399660  34.0619370
  22.5778880   8.4262050  25.5222410  21.9596150   8.8911500  24.9585130
  23.0902130   9.1189530  25.9391920  17.4410640   7.9537920  32.2006010
  17.1080020   8.5806840  32.8427080  17.6177320   8.4799800  31.4207680
  25.9544550   1.7683000  29.6682350  25.2500120   2.0567890  30.2485460
  26.3156710   2.5783110  29.3081910  16.6529740   9.9218720  34.0155190
  17.2703740  10.5969800  33.7339640  15.7922860  10.3306700  33.9242690
  11.9462080   9.1118580  22.8962040  11.5690060   9.6005680  22.1646940
  12.2035150   9.7843860  23.5268570  27.5707330  11.3858130  31.9309830
  26.8870850  12.0557240  31.9226500  28.1101620  11.5838780  31.1654690
  25.1066070  13.2302260  30.6455010  25.1193230  12.8264550  29.7777270
  24.5541290  14.0049550  30.5416440  26.4011490   9.9518480  25.7345180
  26.2907820   9.0092810  25.8594600  26.3979740  10.3134120  26.6207940
  24.5051510   8.1332100  31.9737620  24.9220300   7.9192210  31.1391080
  25.2291330   8.3904890  32.5446240  21.9431770   5.5783800  25.0907670
  21.0161050   5.5121180  25.3196140  22.0956590   6.5163930  24.9762910
  21.9300850   1.8500800  22.0874830  20.9904520   2.0114760  22.1727290
  22.2484110   2.5686480  21.5410820  28.4513610   6.5319320  32.0653860
  27.6232240   6.6012410  31.5903990  29.0464090   7.1173630  31.5969690
  25.9729060   7.1404100  25.5942920  25.3541480   6.8023650  24.9469220
  25.9553510   6.4963860  26.3022110  25.4155620   3.3188640  33.0108730
  25.0026800   4.1442350  33.2648720  24.6831570   2.7333680  32.8185090
  17.5488410   6.1048540  27.8727400  17.1445410   5.3925790  27.3773300
  17.6351530   5.7601780  28.7615440  18.0170110   9.7916100  30.0366610
  17.7198400   9.1861570  29.3574390  18.9669930   9.8293410  29.9255970
  16.2617030   2.8791750  31.6526440  16.8131620   2.9887090  30.8779690
  16.7760540   3.2529350  32.3681670  26.1055720  13.3647970  33.6989710
  25.6286280  14.1720160  33.5062320  25.4217510  12.7126300  33.8515920
  17.1088540   9.5297790  36.6874410  16.2117070   9.7537760  36.9347810
  17.1341410   9.6532730  35.7385810  24.1493760   6.3790910  22.6015670
  24.5887040   5.5413340  22.4553490  24.8622180   7.0120310  22.6879810
  15.9359760   6.4011110  35.2631780  15.7967530   7.2733910  35.6319180
  15.0541120   6.0583920  35.1179720  22.2589140  11.3186980  26.5696910
  22.6985050  12.0611310  26.1552300  22.1976030  11.5613550  27.4935870
  17.7340110  12.3432810  37.4716930  17.7055540  12.7475760  36.6045360
  17.5705080  11.4143170  37.3088530  14.2493040   4.9993520  25.3734050
  14.1290640   5.7255610  24.7615320  13.9393930   4.2296430  24.8961960
  29.6854930  13.1259910  38.7681100  30.1614650  13.6042800  39.4470180
  30.3062090  13.0577400  38.0426600  11.8878410   8.1708660  31.1802690
  11.9658830   8.3057430  30.2358410  12.5020090   7.4624550  31.3730810
  13.1326040   9.8708850  27.5908870  12.7254120  10.0123440  26.7362470
  14.0239050   9.5869010  27.3880080  29.0888180  10.3172760  35.9281110
  29.2151240  10.0784640  35.0098290  29.1309560   9.4857300  36.4003190
  22.9504920  14.0200760  34.4975920  23.4649590  13.9308770  35.2998350
  22.1074000  14.3660460  34.7903830  24.9259320  14.3056100  23.9259920
  24.7660460  14.0159040  24.8241750  24.7606030  13.5296230  23.3905150
  17.4047700  14.0854630  25.7031540  17.2290180  13.1690170  25.4899340
  16.5503440  14.4441920  25.9429340  24.6285450  11.8143660  22.4857920
  23.9350610  11.8120950  21.8260200  25.3708310  11.3902980  22.0552090
  24.1935380  13.4406370  26.5606410  24.6492330  12.6595750  26.8745030
  24.5327900  14.1513190  27.1047590  28.9412190   2.3705220  36.8930850
  28.3256460   2.8784890  36.3646310  28.6208610   1.4703550  36.8356790
  11.9437930   9.2122830  33.7197150  12.1068970   8.7428190  32.9016520
  12.4090380   8.7046390  34.3845990  26.0031020   2.4306060  35.4889700
  25.1524610   2.1311810  35.8098770  25.8432810   2.6748070  34.5773520
  23.0980730   3.9307810  37.5888490  23.4234140   3.0971560  37.2490720
  23.8861060   4.4536330  37.7366820  16.5070920   3.4662160  26.4838970
  16.2811840   3.2499330  27.3885590  15.7263450   3.8990620  26.1384940
  23.7368680   3.4725530  25.0829620  23.1377570   4.1961330  24.8993240
  24.2848290   3.4102310  24.3006070  18.9470130   4.3647740  37.1499240
  18.8513730   3.4242470  36.9999640  19.7902110   4.5862810  36.7547310
  11.5667950   2.6409990  20.5465820  11.4842620   3.5840750  20.6880810
  11.2151010   2.4984900  19.6678170  22.9288690   4.6994820  31.2083680
  22.1969810   5.2081630  31.5573780  22.5313030   3.8824800  30.9072460
  19.4286230   2.3761100  22.6042930  19.5499050   2.3347580  23.5528750
  19.0434740   3.2385250  22.4489660  18.4407730   4.6862240  22.0026230
  17.8724630   4.2380490  21.3762140  19.1496730   5.0455020  21.4691380
  13.5176910   8.5874260  35.8792960  13.1331700   7.9467930  36.4775920
  13.8289100   9.2910380  36.4487690  19.6674050   5.4350800  31.3601580
  20.0344180   4.9609370  32.1062920  19.4779110   6.3092370  31.7009920
  17.4573420   4.4759440  33.6785790  17.1530490   5.3551420  33.9036150
  18.4119880   4.5359230  33.7143230  15.9855210   8.6820430  24.2752640
  15.2117470   8.1418050  24.1151360  16.7149840   8.1627040  23.9370400
  26.7443190   7.6785790  30.0679030  27.4642310   8.1741080  29.6775140
  26.5425010   7.0003680  29.4232900  22.1261990   7.7494850  35.9548030
  22.0599300   6.8290520  35.7005620  21.4967130   7.8470290  36.6692670
  24.9201520   3.4443400  22.5070580  25.8081140   3.7560630  22.3321920
  24.8906610   2.5715650  22.1151160  16.0292610   8.3500810  27.9131450
  16.5471280   7.5469070  27.8588340  15.5776630   8.2879950  28.7548280
  20.9162110   9.6167090  23.1858750  21.2577810  10.3609320  22.6902070
  20.0874820   9.9298210  23.5483580  13.5137150   5.3162180  34.8257150
  13.1552090   5.9816030  35.4130490  13.2191710   4.4845730  35.1969770
  16.7150270   5.7746420  37.7096700  16.4150410   5.9203600  36.8124520
  17.4861510   5.2151710  37.6170090  22.0578720  10.5715420  35.7051830
  22.0723260   9.6396380  35.4870740  21.3503820  10.6575180  36.3441600
  27.1915790   4.7555240  21.9750440  27.1079510   5.1869460  21.1246880
  27.9109980   5.2153590  22.4077260  28.2689930   7.2122760  35.0520410
  27.5438120   7.8051540  34.8549800  28.7965390   7.2046300  34.2533780
  28.2203040  11.6097500  24.7032570  27.5779200  10.9553120  24.9776290
  27.8333700  12.0152590  23.9273240  23.7989520   8.9382930  28.5504260
  24.1513340   8.3411060  27.8905630  22.9151850   8.6127160  28.7212510
  19.8852800   9.6980620  25.9574670  20.5723930  10.2449830  26.3382260
  19.0985220  10.2421350  25.9924280  12.0245200   5.3153440  21.4491750
  12.8940050   5.5978240  21.7327670  11.5335520   6.1289310  21.3340560
  19.1880010   6.7026650  25.5700030  19.6442790   7.5131900  25.7960220
  18.8368220   6.3849790  26.4018520  21.4912620  12.2132990  32.7992330
  22.1354840  12.4192370  33.4765750  21.8542060  11.4521390  32.3463180
  22.7644700  10.2165340  31.5169780  23.4066930   9.5158500  31.6301950
  23.2894050  10.9963780  31.3366670  26.6100420  10.5013960  21.2408920
  26.3838000   9.7844400  21.8333560  26.2196620  10.2526400  20.4030670
  24.5382320  11.0160240  34.7205840  24.8738560  11.6026930  35.3983760
  23.6182660  10.8852950  34.9503630  12.3916450  14.5280820  22.0153380
  12.7514090  15.1270160  21.3610650  12.2508790  15.0740710  22.7888410
  26.1916670   8.4185900  22.9023080  25.9038370   8.8798590  23.6900960
  26.9868840   7.9583670  23.1707300  12.3758310  12.7935680  36.4895780
  12.4849430  11.8530420  36.3491170  11.7238870  13.0590430  35.8409510
  20.3670900  11.0651570  37.8893900  20.0467770  10.3460810  38.4339590
  19.6929260  11.7406640  37.9629960  18.4085070  11.9112020  22.8327050
  18.3995170  12.6441710  22.2171560  17.4883430  11.6643600  22.9254010
  14.0091710   7.1326910  23.5773810  13.4019660   7.8725810  23.5869110
  14.4841060   7.2226270  22.7512010  21.3944670  11.9740260  21.4952240
  21.4956650  11.7704250  20.5654220  20.4946410  11.7198540  21.7000020
  18.9170560   2.5320620  25.4776140  18.2086710   3.0006960  25.9189750
  19.2015040   1.8742630  26.1121330  20.5426490   3.9517320  33.4768670
  21.0411740   4.4263140  34.1420520  20.6849440   3.0280840  33.6838700
  20.0362780  14.4926580  26.1899910  20.2904280  14.4547970  25.2679280
  19.0875260  14.3659910  26.1828160  26.0415360   5.4118460  27.7658420
  25.1005500   5.4268690  27.9406110  26.3559430   4.6254420  28.2118720
  16.0197000   7.0938060  21.3262380  16.7860270   6.9819420  21.8887810
  16.0971690   6.3976030  20.6739150  14.7143760   4.5263130  22.0095270
  14.7947350   3.5790640  22.1212670  15.6063510   4.8570010  22.1155930
  28.0440940  12.5827310  29.4412680  28.1688360  13.4058480  29.9136490
  28.9106500  12.3718040  29.0936830  15.5158470  14.6758520  29.1129810
  16.2520950  14.1273980  29.3838380  15.8999390  15.5414530  28.9735800
  12.4003950  10.7432090  24.9871320  11.4743730  10.9853230  24.9776730
  12.8660380  11.5706350  24.8656070  14.5216750  13.8604590  38.3015390
  15.3229480  14.1816640  38.7150790  14.0068570  13.5000170  39.0235300
  18.6260780  13.8488830  20.9355380  19.4189390  14.1377660  20.4837170
  18.1065130  13.4181000  20.2567860  23.3581380   9.9684460  38.2490800
  22.7519540   9.9916060  37.5086550  23.0535490   9.2367500  38.7858050
  24.7881750  13.6964750  36.8600210  25.7403500  13.6122770  36.8100450
  24.6409970  14.3606460  37.5334000  27.6790950  13.0758960  22.3592120
  27.3932460  12.6624100  21.5446300  27.4810500  14.0046670  22.2392640
  12.2414560   6.3478050  37.2451440  12.7453580   5.7685330  37.8167670
  11.5021980   6.6318280  37.7827810  19.1438180   9.0692240  20.7997730
  19.0388820   8.4544590  21.5259110  18.9762400   8.5458130  20.0160740
  19.2952500   7.7549040  36.7786960  18.5298170   8.3234040  36.6941630
  19.4768460   7.4625250  35.8855190  22.3840910   8.1312270  21.4039720
  21.8351010   8.5781570  22.0482460  23.0060170   7.6261520  21.9277390
  26.4375850   9.4854370  37.3361980  27.1785320   9.8230130  36.8329440
  25.6748530   9.6546430  36.7831750  14.2737640   4.4907640  38.1401510
  14.3142980   4.1921510  39.0486740  15.1283140   4.8915250  37.9809030
  18.0516030   7.0903190  23.3005020  18.4732450   6.9243060  24.1436410
  18.1766870   6.2803420  22.8060160  16.2143450   3.0699740  36.1076000
  15.6839910   2.5790690  35.4799340  16.8831520   3.4983940  35.5733930
  20.5643670   6.1140800  20.5482120  21.0849330   5.3989820  20.1823270
  21.2112070   6.7526670  20.8482630  25.1121510   7.5369200  35.8717190
  25.5262530   7.6914280  36.7207610  24.1772510   7.6624420  36.0342970
  25.5843680   4.8765360  37.8756340  26.1664450   4.1217680  37.7876820
  25.7605450   5.4072800  37.0987820  19.8736740   7.4889680  33.8413120
  20.2924850   8.3322410  33.6689360  18.9545370   7.6261720  33.6119900
  22.2100640   5.2205860  35.2250960  22.3296850   4.6247000  35.9645800
  23.0694640   5.2575550  34.8052260  24.5488540   5.7743050  33.8013470
  24.0223760   6.2985670  33.1978610  24.8919880   6.4070440  34.4323200
  16.9474930   3.1636420  20.2463180  16.7463990   2.3003780  20.6076520
  16.7766980   3.0769780  19.3084780  17.7244160  13.7942690  34.9570850
  17.1865250  14.5188750  34.6379550  17.9778120  13.3173030  34.1668190
  20.5806370  15.0293900  35.2157500  20.5065070  15.9329040  35.5229870
  19.6785210  14.7105800  35.1879570  21.1291700  14.1952410  22.8383860
  22.0242490  14.5337380  22.8602620  21.1609330  13.4731820  22.2108140
  14.7687860   9.5679460  21.0670860  15.2062730  10.1109130  21.7228440
  15.2535590   8.7426410  21.0767200  11.9833660  12.3568490  28.5191120
  12.3136670  11.4889550  28.2869760  12.4124660  12.5627010  29.3496080
  16.5795580  10.6877500  26.1793090  16.2791120  10.5642470  27.0797000
  16.4733070   9.8286090  25.7708820  12.4723870  13.2239080  31.2572750
  12.0354860  13.4039880  32.0896900  13.0401550  13.9813700  31.1154470
  28.1086050  12.7256080  35.5450060  27.5088040  12.7848640  34.8013980
  28.2379950  11.7861060  35.6746910  29.3487500  10.4673900  20.8819770
  28.5180460  10.5350550  21.3527000  29.5259330  11.3578020  20.5786630
  28.8043960   7.2121380  23.3853970  29.5662870   7.7818030  23.4913660
  28.8198330   6.6448580  24.1562280  12.3048300   5.7359310  27.6161630
  11.6497140   5.4670950  26.9721330  13.1426250   5.6263790  27.1663610
  29.8103930   8.0671480  28.2295900  30.1812760   7.2838800  27.8231870
  30.4505860   8.7560580  28.0513200  26.7937690   9.4508060  33.6426220
  25.9797530   9.8805220  33.9052010  27.2011890  10.0626470  33.0295270
  28.8563130   7.5055750  20.5426490  29.1311970   8.4134630  20.4145710
  28.6673870   7.4418280  21.4788480  28.7528470   5.4424740  25.5355920
  28.3772070   4.6752670  25.1037210  28.0231590   5.8247440  26.0230850
  13.3424230   6.1211880  32.1564970  13.7097270   6.0339280  33.0360990
  12.7735050   5.3578430  32.0571830  28.1428090   4.5896260  35.1695440
  27.9114180   4.3609010  34.2693390  28.4032640   5.5095810  35.1240330
  12.8940230   3.0320970  36.0623390  11.9996280   2.9987730  36.4017100
  13.4337780   3.2307760  36.8274640  11.5186380   2.9458240  23.5586960
  10.6150460   3.2088440  23.3838620  12.0027000   3.2169410  22.7786920
  28.0279430   3.6682230  28.8363160  28.5516910   3.1744880  28.2053330
  28.6138850   3.8032590  29.5810730  28.2069150   3.7522100  32.3582710
  27.2571860   3.7185640  32.4727700  28.3882160   4.6622210  32.1232480
  14.0613590   2.0023780  21.4681340  14.7705290   1.5807000  20.9828620
  13.3453530   2.0699010  20.8364690  27.5179400   2.9255580  24.7755570
  28.0138520   2.6926450  25.5604450  27.3195470   2.0867420  24.3593210
  26.8513740  14.2026660  27.1694490  27.4472810  13.8811230  26.4928910
  27.1091890  13.7298480  27.9607760  14.7576310  10.6344570  37.3185120
  14.7145940  10.2637480  38.1999580  14.8887320  11.5722140  37.4586940
  18.4582340  12.1904160  32.9194840  18.2173700  12.4578720  32.0325360
  19.3984980  12.3609890  32.9745700  29.7186500  14.2098540  33.7205480
  29.2244780  14.6067410  33.0032610  29.1099790  13.5847750  34.1142760
  14.5964340  13.5806820  34.4382900  14.0024660  13.4491520  35.1772940
  14.5888180  12.7444960  33.9725000  27.4025950  14.8521960  30.9992220
  26.9428920  15.6037770  30.6250240  26.7738410  14.1328430  30.9407020
  14.2276570  10.9465200  33.3890940  13.5010630  10.3270490  33.3216890
  14.2885720  11.3405810  32.5189020  17.8321670  13.1610200  30.1740350
  18.3486690  12.5497560  29.6488610  18.4819050  13.6638980  30.6651360
  20.5717170  14.0518690  31.0009330  20.8594980  13.7972990  30.1242340
  21.0840390  13.4996050  31.5914900  12.5106570  14.2639590  26.5987700
  12.3428610  13.6310270  27.2969590  11.6441080  14.4698990  26.2481890
  14.1169270  12.9572820  24.0437840  13.5916890  13.3380850  23.3399800
  14.0413850  13.5823590  24.7647550  20.6389530  14.9734790  38.3677530
  21.5656840  14.7379060  38.4113490  20.6239960  15.8006790  37.8863560
  28.8734590  14.5160360  25.3651780  29.0486780  13.8298100  24.7212700
  28.1756160  15.0407410  24.9728450  16.7162240  14.9055200  22.9187090
  17.4481060  14.6214480  22.3710980  16.9755910  14.6668480  23.8086470
  15.8777030  11.0219930  22.9233420  15.2485910  11.4905030  23.4719250
  15.9924860  10.1769150  23.3579610  27.2067090  14.2004650  38.1918570
  27.9992410  13.7053880  37.9844530  27.5000240  14.8794790  38.7994180
  23.3326750   5.0725590   9.0734620  23.2520800   4.1580200   8.8026330
  22.9191170   5.5692660   8.3674330  21.4644790   6.8504610  10.9543890
  20.6886890   6.3705050  11.2442460  22.1157720   6.1710260  10.7800050
  15.4810620   7.1624420  11.8319650  14.6495500   6.9073130  12.2316160
  16.0891600   7.2335190  12.5677570  25.4852220  11.2564800   9.7343020
  25.0233750  10.4852040  10.0630190  26.2977770  11.2830870  10.2395470
  15.4611880  11.1964510  12.0277670  15.7639920  10.3062250  11.8487890
  16.2055470  11.7534730  11.7999920  13.8902570   2.1226310   5.6162040
  13.0019270   2.4642280   5.5141920  14.1743760   1.9226630   4.7242870
  11.8535580   4.7231960  11.5001740  12.4251690   3.9554160  11.5005380
  11.8537120   5.0220720  10.5908350  21.7115530  13.5422810   9.3547010
  21.0926970  13.9980310   8.7841450  22.5667310  13.6974270   8.9536710
  20.9053780   9.5261800  10.9614050  20.8362060   8.5851740  10.8003180
  21.6673640   9.6163210  11.5336620  21.9358950   2.3332180  11.1882980
  22.3123770   1.4604060  11.0756650  21.8378460   2.6690880  10.2973420
  13.7147120   2.6276820  11.8953010  14.3957230   2.8915190  12.5140410
  13.3995170   1.7877690  12.2291020  17.9071690   3.6744180  10.9825600
  18.4149910   4.1725150  11.6230620  18.4384930   2.8979380  10.8064960
  30.0082620   1.8449370  14.6854950  29.3034790   2.2331080  14.1670060
  30.2740540   2.5399660  15.2875880  22.5778880   8.4262050   6.7478920
  21.9596150   8.8911500   6.1841640  23.0902130   9.1189530   7.1648430
  17.4410640   7.9537920  13.4262520  17.1080020   8.5806840  14.0683590
  17.6177320   8.4799800  12.6464190  25.9544550   1.7683000  10.8938860
  25.2500120   2.0567890  11.4741970  26.3156710   2.5783110  10.5338420
  16.6529740   9.9218720  15.2411700  17.2703740  10.5969800  14.9596150
  15.7922860  10.3306700  15.1499200  11.9462080   9.1118580   4.1218550
  11.5690060   9.6005680   3.3903450  12.2035150   9.7843860   4.7525080
  27.5707330  11.3858130  13.1566340  26.8870850  12.0557240  13.1483010
  28.1101620  11.5838780  12.3911200  25.1066070  13.2302260  11.8711520
  25.1193230  12.8264550  11.0033780  24.5541290  14.0049550  11.7672950
  26.4011490   9.9518480   6.9601690  26.2907820   9.0092810   7.0851110
  26.3979740  10.3134120   7.8464450  24.5051510   8.1332100  13.1994130
  24.9220300   7.9192210  12.3647590  25.2291330   8.3904890  13.7702750
  21.9431770   5.5783800   6.3164180  21.0161050   5.5121180   6.5452650
  22.0956590   6.5163930   6.2019420  21.9300850   1.8500800   3.3131340
  20.9904520   2.0114760   3.3983800  22.2484110   2.5686480   2.7667330
  28.4513610   6.5319320  13.2910370  27.6232240   6.6012410  12.8160500
  29.0464090   7.1173630  12.8226200  25.9729060   7.1404100   6.8199430
  25.3541480   6.8023650   6.1725730  25.9553510   6.4963860   7.5278620
  25.4155620   3.3188640  14.2365240  25.0026800   4.1442350  14.4905230
  24.6831570   2.7333680  14.0441600  17.5488410   6.1048540   9.0983910
  17.1445410   5.3925790   8.6029810  17.6351530   5.7601780   9.9871950
  18.0170110   9.7916100  11.2623120  17.7198400   9.1861570  10.5830900
  18.9669930   9.8293410  11.1512480  16.2617030   2.8791750  12.8782950
  16.8131620   2.9887090  12.1036200  16.7760540   3.2529350  13.5938180
  26.1055720  13.3647970  14.9246220  25.6286280  14.1720160  14.7318830
  25.4217510  12.7126300  15.0772430  17.1088540   9.5297790  17.9130920
  16.2117070   9.7537760  18.1604320  17.1341410   9.6532730  16.9642320
  24.1493760   6.3790910   3.8272180  24.5887040   5.5413340   3.6810000
  24.8622180   7.0120310   3.9136320  15.9359760   6.4011110  16.4888290
  15.7967530   7.2733910  16.8575690  15.0541120   6.0583920  16.3436230
  22.2589140  11.3186980   7.7953420  22.6985050  12.0611310   7.3808810
  22.1976030  11.5613550   8.7192380  17.7340110  12.3432810  18.6973440
  17.7055540  12.7475760  17.8301870  17.5705080  11.4143170  18.5345040
  14.2493040   4.9993520   6.5990560  14.1290640   5.7255610   5.9871830
  13.9393930   4.2296430   6.1218470  29.6854930  13.1259910  19.9937610
  30.1614650  13.6042800  20.6726690  30.3062090  13.0577400  19.2683110
  11.8878410   8.1708660  12.4059200  11.9658830   8.3057430  11.4614920
  12.5020090   7.4624550  12.5987320  13.1326040   9.8708850   8.8165380
  12.7254120  10.0123440   7.9618980  14.0239050   9.5869010   8.6136590
  29.0888180  10.3172760  17.1537620  29.2151240  10.0784640  16.2354800
  29.1309560   9.4857300  17.6259700  22.9504920  14.0200760  15.7232430
  23.4649590  13.9308770  16.5254860  22.1074000  14.3660460  16.0160340
  24.9259320  14.3056100   5.1516430  24.7660460  14.0159040   6.0498260
  24.7606030  13.5296230   4.6161660  17.4047700  14.0854630   6.9288050
  17.2290180  13.1690170   6.7155850  16.5503440  14.4441920   7.1685850
  24.6285450  11.8143660   3.7114430  23.9350610  11.8120950   3.0516710
  25.3708310  11.3902980   3.2808600  24.1935380  13.4406370   7.7862920
  24.6492330  12.6595750   8.1001540  24.5327900  14.1513190   8.3304100
  28.9412190   2.3705220  18.1187360  28.3256460   2.8784890  17.5902820
  28.6208610   1.4703550  18.0613300  11.9437930   9.2122830  14.9453660
  12.1068970   8.7428190  14.1273030  12.4090380   8.7046390  15.6102500
  26.0031020   2.4306060  16.7146210  25.1524610   2.1311810  17.0355280
  25.8432810   2.6748070  15.8030030  23.0980730   3.9307810  18.8145000
  23.4234140   3.0971560  18.4747230  23.8861060   4.4536330  18.9623330
  16.5070920   3.4662160   7.7095480  16.2811840   3.2499330   8.6142100
  15.7263450   3.8990620   7.3641450  23.7368680   3.4725530   6.3086130
  23.1377570   4.1961330   6.1249750  24.2848290   3.4102310   5.5262580
  18.9470130   4.3647740  18.3755750  18.8513730   3.4242470  18.2256150
  19.7902110   4.5862810  17.9803820  22.9288690   4.6994820  12.4340190
  22.1969810   5.2081630  12.7830290  22.5313030   3.8824800  12.1328970
  19.4286230   2.3761100   3.8299440  19.5499050   2.3347580   4.7785260
  19.0434740   3.2385250   3.6746170  18.4407730   4.6862240   3.2282740
  17.8724630   4.2380490   2.6018650  19.1496730   5.0455020   2.6947890
  13.5176910   8.5874260  17.1049470  13.1331700   7.9467930  17.7032430
  13.8289100   9.2910380  17.6744200  19.6674050   5.4350800  12.5858090
  20.0344180   4.9609370  13.3319430  19.4779110   6.3092370  12.9266430
  17.4573420   4.4759440  14.9042300  17.1530490   5.3551420  15.1292660
  18.4119880   4.5359230  14.9399740  15.9855210   8.6820430   5.5009150
  15.2117470   8.1418050   5.3407870  16.7149840   8.1627040   5.1626910
  26.7443190   7.6785790  11.2935540  27.4642310   8.1741080  10.9031650
  26.5425010   7.0003680  10.6489410  22.1261990   7.7494850  17.1804540
  22.0599300   6.8290520  16.9262130  21.4967130   7.8470290  17.8949180
  24.9201520   3.4443400   3.7327090  25.8081140   3.7560630   3.5578430
  24.8906610   2.5715650   3.3407670  16.0292610   8.3500810   9.1387960
  16.5471280   7.5469070   9.0844850  15.5776630   8.2879950   9.9804790
  20.9162110   9.6167090   4.4115260  21.2577810  10.3609320   3.9158580
  20.0874820   9.9298210   4.7740090  13.5137150   5.3162180  16.0513660
  13.1552090   5.9816030  16.6387000  13.2191710   4.4845730  16.4226280
  16.7150270   5.7746420  18.9353210  16.4150410   5.9203600  18.0381030
  17.4861510   5.2151710  18.8426600  22.0578720  10.5715420  16.9308340
  22.0723260   9.6396380  16.7127250  21.3503820  10.6575180  17.5698110
  27.1915790   4.7555240   3.2006950  27.1079510   5.1869460   2.3503390
  27.9109980   5.2153590   3.6333770  28.2689930   7.2122760  16.2776920
  27.5438120   7.8051540  16.0806310  28.7965390   7.2046300  15.4790290
  28.2203040  11.6097500   5.9289080  27.5779200  10.9553120   6.2032800
  27.8333700  12.0152590   5.1529750  23.7989520   8.9382930   9.7760770
  24.1513340   8.3411060   9.1162140  22.9151850   8.6127160   9.9469020
  19.8852800   9.6980620   7.1831180  20.5723930  10.2449830   7.5638770
  19.0985220  10.2421350   7.2180790  12.0245200   5.3153440   2.6748260
  12.8940050   5.5978240   2.9584180  11.5335520   6.1289310   2.5597070
  19.1880010   6.7026650   6.7956540  19.6442790   7.5131900   7.0216730
  18.8368220   6.3849790   7.6275030  21.4912620  12.2132990  14.0248840
  22.1354840  12.4192370  14.7022260  21.8542060  11.4521390  13.5719690
  22.7644700  10.2165340  12.7426290  23.4066930   9.5158500  12.8558460
  23.2894050  10.9963780  12.5623180  24.5382320  11.0160240  15.9462350
  24.8738560  11.6026930  16.6240270  23.6182660  10.8852950  16.1760140
  12.3916450  14.5280820   3.2409890  12.7514090  15.1270160   2.5867160
  12.2508790  15.0740710   4.0144920  26.1916670   8.4185900   4.1279590
  25.9038370   8.8798590   4.9157470  26.9868840   7.9583670   4.3963810
  12.3758310  12.7935680  17.7152290  12.4849430  11.8530420  17.5747680
  11.7238870  13.0590430  17.0666020  20.3670900  11.0651570  19.1150410
  20.0467770  10.3460810  19.6596100  19.6929260  11.7406640  19.1886470
  18.4085070  11.9112020   4.0583560  18.3995170  12.6441710   3.4428070
  17.4883430  11.6643600   4.1510520  14.0091710   7.1326910   4.8030320
  13.4019660   7.8725810   4.8125620  14.4841060   7.2226270   3.9768520
  21.3944670  11.9740260   2.7208750  21.4956650  11.7704250   1.7910730
  20.4946410  11.7198540   2.9256530  18.9170560   2.5320620   6.7032650
  18.2086710   3.0006960   7.1446260  19.2015040   1.8742630   7.3377840
  20.5426490   3.9517320  14.7025180  21.0411740   4.4263140  15.3677030
  20.6849440   3.0280840  14.9095210  20.0362780  14.4926580   7.4156420
  20.2904280  14.4547970   6.4935790  19.0875260  14.3659910   7.4084670
  26.0415360   5.4118460   8.9914930  25.1005500   5.4268690   9.1662620
  26.3559430   4.6254420   9.4375230  16.0197000   7.0938060   2.5518890
  16.7860270   6.9819420   3.1144320  16.0971690   6.3976030   1.8995660
  14.7143760   4.5263130   3.2351780  14.7947350   3.5790640   3.3469180
  15.6063510   4.8570010   3.3412440  28.0440940  12.5827310  10.6669190
  28.1688360  13.4058480  11.1393000  28.9106500  12.3718040  10.3193340
  15.5158470  14.6758520  10.3386320  16.2520950  14.1273980  10.6094890
  15.8999390  15.5414530  10.1992310  12.4003950  10.7432090   6.2127830
  11.4743730  10.9853230   6.2033240  12.8660380  11.5706350   6.0912580
  14.5216750  13.8604590  19.5271900  15.3229480  14.1816640  19.9407300
  14.0068570  13.5000170  20.2491810  23.3581380   9.9684460  19.4747310
  22.7519540   9.9916060  18.7343060  23.0535490   9.2367500  20.0114560
  24.7881750  13.6964750  18.0856720  25.7403500  13.6122770  18.0356960
  24.6409970  14.3606460  18.7590510  27.6790950  13.0758960   3.5848630
  27.3932460  12.6624100   2.7702810  27.4810500  14.0046670   3.4649150
  12.2414560   6.3478050  18.4707950  12.7453580   5.7685330  19.0424180
  11.5021980   6.6318280  19.0084320  19.2952500   7.7549040  18.0043470
  18.5298170   8.3234040  17.9198140  19.4768460   7.4625250  17.1111700
  22.3840910   8.1312270   2.6296230  21.8351010   8.5781570   3.2738970
  23.0060170   7.6261520   3.1533900  26.4375850   9.4854370  18.5618490
  27.1785320   9.8230130  18.0585950  25.6748530   9.6546430  18.0088260
  14.2737640   4.4907640  19.3658020  14.3142980   4.1921510  20.2743250
  15.1283140   4.8915250  19.2065540  18.0516030   7.0903190   4.5261530
  18.4732450   6.9243060   5.3692920  18.1766870   6.2803420   4.0316670
  16.2143450   3.0699740  17.3332510  15.6839910   2.5790690  16.7055850
  16.8831520   3.4983940  16.7990440  25.1121510   7.5369200  17.0973700
  25.5262530   7.6914280  17.9464120  24.1772510   7.6624420  17.2599480
  25.5843680   4.8765360  19.1012850  26.1664450   4.1217680  19.0133330
  25.7605450   5.4072800  18.3244330  19.8736740   7.4889680  15.0669630
  20.2924850   8.3322410  14.8945870  18.9545370   7.6261720  14.8376410
  22.2100640   5.2205860  16.4507470  22.3296850   4.6247000  17.1902310
  23.0694640   5.2575550  16.0308770  24.5488540   5.7743050  15.0269980
  24.0223760   6.2985670  14.4235120  24.8919880   6.4070440  15.6579710
  17.7244160  13.7942690  16.1827360  17.1865250  14.5188750  15.8636060
  17.9778120  13.3173030  15.3924700  20.5806370  15.0293900  16.4414010
  20.5065070  15.9329040  16.7486380  19.6785210  14.7105800  16.4136080
  21.1291700  14.1952410   4.0640370  22.0242490  14.5337380   4.0859130
  21.1609330  13.4731820   3.4364650  14.7687860   9.5679460   2.2927370
  15.2062730  10.1109130   2.9484950  15.2535590   8.7426410   2.3023710
  11.9833660  12.3568490   9.7447630  12.3136670  11.4889550   9.5126270
  12.4124660  12.5627010  10.5752590  16.5795580  10.6877500   7.4049600
  16.2791120  10.5642470   8.3053510  16.4733070   9.8286090   6.9965330
  12.4723870  13.2239080  12.4829260  12.0354860  13.4039880  13.3153410
  13.0401550  13.9813700  12.3410980  28.1086050  12.7256080  16.7706570
  27.5088040  12.7848640  16.0270490  28.2379950  11.7861060  16.9003420
  29.3487500  10.4673900   2.1076280  28.5180460  10.5350550   2.5783510
  29.5259330  11.3578020   1.8043140  28.8043960   7.2121380   4.6110480
  29.5662870   7.7818030   4.7170170  28.8198330   6.6448580   5.3818790
  12.3048300   5.7359310   8.8418140  11.6497140   5.4670950   8.1977840
  13.1426250   5.6263790   8.3920120  29.8103930   8.0671480   9.4552410
  30.1812760   7.2838800   9.0488380  30.4505860   8.7560580   9.2769710
  26.7937690   9.4508060  14.8682730  25.9797530   9.8805220  15.1308520
  27.2011890  10.0626470  14.2551780  28.8563130   7.5055750   1.7683000
  29.1311970   8.4134630   1.6402220  28.6673870   7.4418280   2.7044990
  28.7528470   5.4424740   6.7612430  28.3772070   4.6752670   6.3293720
  28.0231590   5.8247440   7.2487360  13.3424230   6.1211880  13.3821480
  13.7097270   6.0339280  14.2617500  12.7735050   5.3578430  13.2828340
  28.1428090   4.5896260  16.3951950  27.9114180   4.3609010  15.4949900
  28.4032640   5.5095810  16.3496840  12.8940230   3.0320970  17.2879900
  11.9996280   2.9987730  17.6273610  13.4337780   3.2307760  18.0531150
  11.5186380   2.9458240   4.7843470  10.6150460   3.2088440   4.6095130
  12.0027000   3.2169410   4.0043430  28.0279430   3.6682230  10.0619670
  28.5516910   3.1744880   9.4309840  28.6138850   3.8032590  10.8067240
  28.2069150   3.7522100  13.5839220  27.2571860   3.7185640  13.6984210
  28.3882160   4.6622210  13.3488990  14.0613590   2.0023780   2.6937850
  14.7705290   1.5807000   2.2085130  13.3453530   2.0699010   2.0621200
  27.5179400   2.9255580   6.0012080  28.0138520   2.6926450   6.7860960
  27.3195470   2.0867420   5.5849720  26.8513740  14.2026660   8.3951000
  27.4472810  13.8811230   7.7185420  27.1091890  13.7298480   9.1864270
  14.7576310  10.6344570  18.5441630  14.7145940  10.2637480  19.4256090
  14.8887320  11.5722140  18.6843450  18.4582340  12.1904160  14.1451350
  18.2173700  12.4578720  13.2581870  19.3984980  12.3609890  14.2002210
  29.7186500  14.2098540  14.9461990  29.2244780  14.6067410  14.2289120
  29.1099790  13.5847750  15.3399270  14.5964340  13.5806820  15.6639410
  14.0024660  13.4491520  16.4029450  14.5888180  12.7444960  15.1981510
  27.4025950  14.8521960  12.2248730  26.9428920  15.6037770  11.8506750
  26.7738410  14.1328430  12.1663530  14.2276570  10.9465200  14.6147450
  13.5010630  10.3270490  14.5473400  14.2885720  11.3405810  13.7445530
  17.8321670  13.1610200  11.3996860  18.3486690  12.5497560  10.8745120
  18.4819050  13.6638980  11.8907870  20.5717170  14.0518690  12.2265840
  20.8594980  13.7972990  11.3498850  21.0840390  13.4996050  12.8171410
  12.5106570  14.2639590   7.8244210  12.3428610  13.6310270   8.5226100
  11.6441080  14.4698990   7.4738400  14.1169270  12.9572820   5.2694350
  13.5916890  13.3380850   4.5656310  14.0413850  13.5823590   5.9904060
  20.6389530  14.9734790  19.5934040  21.5656840  14.7379060  19.6370000
  20.6239960  15.8006790  19.1120070  28.8734590  14.5160360   6.5908290
  29.0486780  13.8298100   5.9469210  28.1756160  15.0407410   6.1984960
  16.7162240  14.9055200   4.1443600  17.4481060  14.6214480   3.5967490
  16.9755910  14.6668480   5.0342980  15.8777030  11.0219930   4.1489930
  15.2485910  11.4905030   4.6975760  15.9924860  10.1769150   4.5836120
  27.2067090  14.2004650  19.4175080  27.9992410  13.7053880  19.2101040
  27.5000240  14.8794790  20.0250690   4.5583260  61.3956060  46.6221600
   4.4777310  60.4810670  46.3513310   4.1447680  61.8923130  45.9161310
   2.6901300  63.1735080  48.5030870   1.9143400  62.6935520  48.7929440
   3.3414230  62.4940730  48.3287030   2.1310290  65.8492270  48.5101030
   2.0618570  64.9082210  48.3490160   2.8930150  65.9393680  49.0823600
   3.1615460  58.6562650  48.7369960   3.5380280  57.7834530  48.6243630
   3.0634970  58.9921350  47.8460400   6.9439580  56.1513090  45.6698300
   7.7649200  55.6609660  45.7123780   6.9773660  56.7410750  46.4230140
  11.2339130  58.1679840  52.2341930  10.5291300  58.5561550  51.7157040
  11.4997050  58.8630130  52.8362860   3.8035390  64.7492520  44.2965900
   3.1852660  65.2141970  43.7328620   4.3158640  65.4420000  44.7135410
   7.1801060  58.0913470  48.4425840   6.4756630  58.3798360  49.0228950
   7.5413220  58.9013580  48.0825400  10.2487980  57.5368260  48.8335050
   9.3012890  57.5707240  48.9650480  10.5737970  58.3507210  49.2184410
   7.6268000  66.2748950  44.5088670   7.5164330  65.3323280  44.6338090
   7.6236250  66.6364590  45.3951430   5.7308020  64.4562570  50.7481110
   6.1476810  64.2422680  49.9134570   6.4547840  64.7135360  51.3189730
   3.1688280  61.9014270  43.8651160   2.2417560  61.8351650  44.0939630
   3.3213100  62.8394400  43.7506400   3.1557360  58.1731270  40.8618320
   2.2161030  58.3345230  40.9470780   3.4740620  58.8916950  40.3154310
   9.6770120  62.8549790  50.8397350   8.8488750  62.9242880  50.3647480
  10.2720600  63.4404100  50.3713180   7.1985570  63.4634570  44.3686410
   6.5797990  63.1254120  43.7212710   7.1810020  62.8194330  45.0765600
   6.6412130  59.6419110  51.7852220   6.2283310  60.4672820  52.0392210
   5.9088080  59.0564150  51.5928580   5.3750270  62.7021380  41.3759160
   5.8143550  61.8643810  41.2296980   6.0878690  63.3350780  41.4623300
   8.9567410  53.9564190  39.6900200   8.6440070  54.0491020  40.5899270
   9.7179880  54.5345220  39.6397630  10.3144690  66.6403230  54.7024600
  10.4407750  66.4015110  53.7841780  10.3566070  65.8087770  55.1746680
  10.1668700  58.6935690  55.6674340   9.5512970  59.2015360  55.1389800
   9.8465120  57.7934020  55.6100280   2.2283020  57.5327580  53.1336530
   1.7662390  57.7410600  53.9456470   1.8261130  56.7186930  52.8307200
   7.2287530  58.7536530  54.2633190   6.3781120  58.4542280  54.5842260
   7.0689320  58.9978540  53.3517010   4.3237240  60.2538280  56.3631980
   4.6490650  59.4202030  56.0234210   5.1117570  60.7766800  56.5110310
   4.9625190  59.7956000  43.8573110   4.3634080  60.5191800  43.6736730
   5.5104800  59.7332780  43.0749560   3.5690060  58.4319540  45.8876390
   3.9619630  58.7491740  45.0745080   3.9306910  57.5531420  46.0020910
   4.1545200  61.0225290  49.9827170   3.4226320  61.5312100  50.3317270
   3.7569540  60.2055270  49.6815950   4.6171110  56.4758970  49.3950110
   4.6343850  56.9267620  50.2391960   4.3686690  55.5764610  49.6083550
   8.0441860  53.8891150  55.2336490   8.3687630  53.1580810  55.7594470
   8.0798370  53.5704790  54.3317480   7.9699700  64.0016260  48.8422520
   8.6898820  64.4971550  48.4518630   7.7681520  63.3234150  48.1976390
   3.4309640  55.3954220  42.9851910   2.6174250  54.8967390  42.9097220
   3.2371590  56.2352470  42.5688260   3.3518500  64.0725320  54.7291520
   3.2855810  63.1520990  54.4749110   2.7223640  64.1700760  55.4436160
   6.1458030  59.7673870  41.2814070   7.0337650  60.0791100  41.1065410
   6.1163120  58.8946120  40.8894650   8.4172300  61.0785710  40.7493930
   8.3336020  61.5099930  39.8990370   9.1366490  61.5384060  41.1820750
   9.4946440  63.5353230  53.8263900   8.7694630  64.1282010  53.6293290
  10.0221900  63.5276770  53.0277270   5.0246030  65.2613400  47.3247750
   5.3769850  64.6641530  46.6649120   4.1408360  64.9357630  47.4956000
   7.4173180  64.7416370  41.6766570   7.1294880  65.2029060  42.4644450
   8.2125350  64.2814140  41.9450790   4.8081010  57.6208200  52.0274190
   5.1761830  56.8003410  52.3553760   3.9479210  57.6810090  52.4429840
   8.1743040  56.5765140  42.8361750   7.5456200  56.6810810  42.1219980
   7.6794960  56.7961920  43.6255630   1.7683000  60.2747790  52.2512160
   2.2668250  60.7493610  52.9164010   1.9105950  59.3511310  52.4582190
   4.1742500  55.5801750  45.6915420   4.0510280  55.5987880  44.7424930
   5.1227060  55.6280690  45.8113820   8.9749860  56.4915750  53.0940550
   8.4723460  57.2321150  53.4334360   9.7906520  56.8799750  52.7777340
   7.2671870  61.7348930  46.5401910   6.3262010  61.7499160  46.7149600
   7.5815940  60.9484890  46.9862210   3.6097420  64.4542740  40.1783210
   3.0607520  64.9012040  40.8225950   4.2316680  63.9491990  40.7020880
   7.6632360  65.8084840  56.1105470   8.4041830  66.1460600  55.6072930
   6.9005040  65.9776900  55.5575240   1.7900180  62.4371270  39.3225610
   2.3105840  61.7220290  38.9566760   2.4368580  63.0757140  39.6226120
   6.3378020  63.8599670  54.6460680   6.7519040  64.0144750  55.4951100
   5.4029020  63.9854890  54.8086460   6.8100190  61.1995830  56.6499830
   7.3920960  60.4448150  56.5620310   6.9861960  61.7303270  55.8731310
   3.4357150  61.5436330  53.9994450   3.5553360  60.9477470  54.7389290
   4.2951150  61.5806020  53.5795750   5.7745050  62.0973520  52.5756960
   5.2480270  62.6216140  51.9722100   6.1176390  62.7300910  53.2066690
   5.0219350  57.7023490  55.4903290   4.3334870  57.0405030  55.4253280
   5.7425370  57.2561760  55.9351750   5.6519750  54.2975120  41.5493550
   5.9322040  53.4543020  41.9052970   4.8785480  54.5298230  42.0632300
  10.0300470  63.5351850  42.1597460  10.7919380  64.1048500  42.2657150
  10.0454840  62.9679050  42.9305770  11.0360440  64.3901950  47.0039390
  11.4069270  63.6069270  46.5975360  11.6762370  65.0791050  46.8256690
   8.0194200  65.7738530  52.4169710   7.2054040  66.2035690  52.6795500
   8.4268400  66.3856940  51.8038760  10.0819640  63.8286220  39.3169980
  10.3568480  64.7365100  39.1889200   9.8930380  63.7648750  40.2531970
   6.4795250  56.8531070  40.6123610   6.8980130  56.6662050  39.7720270
   6.1731310  56.0010120  40.9226540   9.9784980  61.7655210  44.3099410
   9.6028580  60.9983140  43.8780700   9.2488100  62.1477910  44.7974340
   9.3684600  60.9126730  53.9438930   9.1370690  60.6839480  53.0436880
   9.6289150  61.8326280  53.8983820   7.8072670  56.1383160  56.7218630
   8.6842850  56.1466560  57.1052630   7.8193510  55.4014000  56.1110980
   9.2535940  59.9912700  47.6106650   9.7773420  59.4975350  46.9796820
   9.8395360  60.1263060  48.3554220   9.4325660  60.0752570  51.1326200
   8.4828370  60.0416110  51.2471190   9.6138670  60.9852680  50.8975970
   8.7435910  59.2486050  43.5499060   9.2395030  59.0156920  44.3347940
   8.5451980  58.4097890  43.1336700  10.1723070  57.8847000  46.0836740
  10.0622350  57.7303040  47.0219010  10.9330660  57.3567940  45.8412150
   8.5188790  53.8241130  52.5419740   9.1561010  54.4375270  52.9078930
   8.6663680  53.8601790  51.5968970  11.0613340  55.7154920  39.3242880
  11.9862650  55.5836100  39.1161170  11.0389130  55.7947740  40.2779330
  11.1351830  56.4865580  41.9499590  10.3403330  56.4210700  42.4792500
  11.3395110  57.4216220  41.9384940   1.8893270  54.9767320  55.4494840
   1.8282160  55.5689150  56.1990250   2.8293650  54.8693280  55.3045100
   4.5267830  54.6337380  55.0887130   5.1408240  54.9516670  54.4268210
   5.0717390  54.1485970  55.7082990   5.2675870  53.1969520  51.4156420
   4.3935710  53.5304630  51.2129350   5.1586620  52.7242700  52.2408290
   6.1747850  55.4040390  52.7998140   5.8461210  54.5892150  52.4199870
   7.1230150  55.3610200  52.6763830   3.0150690  54.1139360  50.3549330
   2.2322480  54.5884860  50.6346090   2.7213620  53.2094190  50.2462510
   7.5671760  54.8162460  48.3998420   8.0079850  54.7607560  47.5520020
   7.2979350  55.7320470  48.4708600   9.4310330  54.4477700  46.4107240
   9.3698730  53.5038920  46.2638260  10.2102360  54.5557790  46.9560700
   5.4029890  53.1968560  47.1048430   6.0059260  53.7688770  47.5796950
   4.6622880  53.7608000  46.8822330   8.5464490  53.5990120  42.3788710
   8.7415120  54.4973570  42.6456140   7.7594360  53.3677200  42.8721660
   4.5583260  61.3956060  27.8478110   4.4777310  60.4810670  27.5769820
   4.1447680  61.8923130  27.1417820   2.6901300  63.1735080  29.7287380
   1.9143400  62.6935520  30.0185950   3.3414230  62.4940730  29.5543540
   2.1310290  65.8492270  29.7357540   2.0618570  64.9082210  29.5746670
   2.8930150  65.9393680  30.3080110   3.1615460  58.6562650  29.9626470
   3.5380280  57.7834530  29.8500140   3.0634970  58.9921350  29.0716910
   6.9439580  56.1513090  26.8954810   7.7649200  55.6609660  26.9380290
   6.9773660  56.7410750  27.6486650  11.2339130  58.1679840  33.4598440
  10.5291300  58.5561550  32.9413550  11.4997050  58.8630130  34.0619370
   3.8035390  64.7492520  25.5222410   3.1852660  65.2141970  24.9585130
   4.3158640  65.4420000  25.9391920   7.1801060  58.0913470  29.6682350
   6.4756630  58.3798360  30.2485460   7.5413220  58.9013580  29.3081910
  10.2487980  57.5368260  30.0591560   9.3012890  57.5707240  30.1906990
  10.5737970  58.3507210  30.4440920   7.6268000  66.2748950  25.7345180
   7.5164330  65.3323280  25.8594600   7.6236250  66.6364590  26.6207940
   5.7308020  64.4562570  31.9737620   6.1476810  64.2422680  31.1391080
   6.4547840  64.7135360  32.5446240   3.1688280  61.9014270  25.0907670
   2.2417560  61.8351650  25.3196140   3.3213100  62.8394400  24.9762910
   3.1557360  58.1731270  22.0874830   2.2161030  58.3345230  22.1727290
   3.4740620  58.8916950  21.5410820   9.6770120  62.8549790  32.0653860
   8.8488750  62.9242880  31.5903990  10.2720600  63.4404100  31.5969690
   7.1985570  63.4634570  25.5942920   6.5797990  63.1254120  24.9469220
   7.1810020  62.8194330  26.3022110   6.6412130  59.6419110  33.0108730
   6.2283310  60.4672820  33.2648720   5.9088080  59.0564150  32.8185090
   5.3750270  62.7021380  22.6015670   5.8143550  61.8643810  22.4553490
   6.0878690  63.3350780  22.6879810   8.9567410  53.9564190  20.9156710
   8.6440070  54.0491020  21.8155780   9.7179880  54.5345220  20.8654140
  10.3144690  66.6403230  35.9281110  10.4407750  66.4015110  35.0098290
  10.3566070  65.8087770  36.4003190  10.1668700  58.6935690  36.8930850
   9.5512970  59.2015360  36.3646310   9.8465120  57.7934020  36.8356790
   2.2283020  57.5327580  34.3593040   1.7662390  57.7410600  35.1712980
   1.8261130  56.7186930  34.0563710   7.2287530  58.7536530  35.4889700
   6.3781120  58.4542280  35.8098770   7.0689320  58.9978540  34.5773520
   4.3237240  60.2538280  37.5888490   4.6490650  59.4202030  37.2490720
   5.1117570  60.7766800  37.7366820   4.9625190  59.7956000  25.0829620
   4.3634080  60.5191800  24.8993240   5.5104800  59.7332780  24.3006070
   3.5690060  58.4319540  27.1132900   3.9619630  58.7491740  26.3001590
   3.9306910  57.5531420  27.2277420   4.1545200  61.0225290  31.2083680
   3.4226320  61.5312100  31.5573780   3.7569540  60.2055270  30.9072460
   4.6171110  56.4758970  30.6206620   4.6343850  56.9267620  31.4648470
   4.3686690  55.5764610  30.8340060   8.0441860  53.8891150  36.4593000
   8.3687630  53.1580810  36.9850980   8.0798370  53.5704790  35.5573990
   7.9699700  64.0016260  30.0679030   8.6898820  64.4971550  29.6775140
   7.7681520  63.3234150  29.4232900   3.4309640  55.3954220  24.2108420
   2.6174250  54.8967390  24.1353730   3.2371590  56.2352470  23.7944770
   3.3518500  64.0725320  35.9548030   3.2855810  63.1520990  35.7005620
   2.7223640  64.1700760  36.6692670   6.1458030  59.7673870  22.5070580
   7.0337650  60.0791100  22.3321920   6.1163120  58.8946120  22.1151160
   8.4172300  61.0785710  21.9750440   8.3336020  61.5099930  21.1246880
   9.1366490  61.5384060  22.4077260   9.4946440  63.5353230  35.0520410
   8.7694630  64.1282010  34.8549800  10.0221900  63.5276770  34.2533780
   5.0246030  65.2613400  28.5504260   5.3769850  64.6641530  27.8905630
   4.1408360  64.9357630  28.7212510   7.4173180  64.7416370  22.9023080
   7.1294880  65.2029060  23.6900960   8.2125350  64.2814140  23.1707300
   4.8081010  57.6208200  33.2530700   5.1761830  56.8003410  33.5810270
   3.9479210  57.6810090  33.6686350   8.1743040  56.5765140  24.0618260
   7.5456200  56.6810810  23.3476490   7.6794960  56.7961920  24.8512140
   1.7683000  60.2747790  33.4768670   2.2668250  60.7493610  34.1420520
   1.9105950  59.3511310  33.6838700   4.1742500  55.5801750  26.9171930
   4.0510280  55.5987880  25.9681440   5.1227060  55.6280690  27.0370330
   8.9749860  56.4915750  34.3197060   8.4723460  57.2321150  34.6590870
   9.7906520  56.8799750  34.0033850   7.2671870  61.7348930  27.7658420
   6.3262010  61.7499160  27.9406110   7.5815940  60.9484890  28.2118720
   4.5837890  66.2914930  38.2490800   3.9776050  66.3146530  37.5086550
   4.2792000  65.5597970  38.7858050   3.6097420  64.4542740  21.4039720
   3.0607520  64.9012040  22.0482460   4.2316680  63.9491990  21.9277390
   7.6632360  65.8084840  37.3361980   8.4041830  66.1460600  36.8329440
   6.9005040  65.9776900  36.7831750   1.7900180  62.4371270  20.5482120
   2.3105840  61.7220290  20.1823270   2.4368580  63.0757140  20.8482630
   6.3378020  63.8599670  35.8717190   6.7519040  64.0144750  36.7207610
   5.4029020  63.9854890  36.0342970   6.8100190  61.1995830  37.8756340
   7.3920960  60.4448150  37.7876820   6.9861960  61.7303270  37.0987820
   3.4357150  61.5436330  35.2250960   3.5553360  60.9477470  35.9645800
   4.2951150  61.5806020  34.8052260   5.7745050  62.0973520  33.8013470
   5.2480270  62.6216140  33.1978610   6.1176390  62.7300910  34.4323200
   5.0219350  57.7023490  36.7159800   4.3334870  57.0405030  36.6509790
   5.7425370  57.2561760  37.1608260   5.6519750  54.2975120  22.7750060
   5.9322040  53.4543020  23.1309480   4.8785480  54.5298230  23.2888810
  10.0300470  63.5351850  23.3853970  10.7919380  64.1048500  23.4913660
  10.0454840  62.9679050  24.1562280  11.0360440  64.3901950  28.2295900
  11.4069270  63.6069270  27.8231870  11.6762370  65.0791050  28.0513200
   8.0194200  65.7738530  33.6426220   7.2054040  66.2035690  33.9052010
   8.4268400  66.3856940  33.0295270  10.0819640  63.8286220  20.5426490
  10.3568480  64.7365100  20.4145710   9.8930380  63.7648750  21.4788480
   6.4795250  56.8531070  21.8380120   6.8980130  56.6662050  20.9976780
   6.1731310  56.0010120  22.1483050   9.9784980  61.7655210  25.5355920
   9.6028580  60.9983140  25.1037210   9.2488100  62.1477910  26.0230850
   9.3684600  60.9126730  35.1695440   9.1370690  60.6839480  34.2693390
   9.6289150  61.8326280  35.1240330   7.8072670  56.1383160  37.9475140
   8.6842850  56.1466560  38.3309140   7.8193510  55.4014000  37.3367490
   9.2535940  59.9912700  28.8363160   9.7773420  59.4975350  28.2053330
   9.8395360  60.1263060  29.5810730   9.4325660  60.0752570  32.3582710
   8.4828370  60.0416110  32.4727700   9.6138670  60.9852680  32.1232480
   8.7435910  59.2486050  24.7755570   9.2395030  59.0156920  25.5604450
   8.5451980  58.4097890  24.3593210  10.1723070  57.8847000  27.3093250
  10.0622350  57.7303040  28.2475520  10.9330660  57.3567940  27.0668660
   8.5188790  53.8241130  33.7676250   9.1561010  54.4375270  34.1335440
   8.6663680  53.8601790  32.8225480  11.0613340  55.7154920  20.5499390
  11.9862650  55.5836100  20.3417680  11.0389130  55.7947740  21.5035840
  11.1351830  56.4865580  23.1756100  10.3403330  56.4210700  23.7049010
  11.3395110  57.4216220  23.1641450   1.8893270  54.9767320  36.6751350
   1.8282160  55.5689150  37.4246760   2.8293650  54.8693280  36.5301610
   4.5267830  54.6337380  36.3143640   5.1408240  54.9516670  35.6524720
   5.0717390  54.1485970  36.9339500   5.2675870  53.1969520  32.6412930
   4.3935710  53.5304630  32.4385860   5.1586620  52.7242700  33.4664800
   6.1747850  55.4040390  34.0254650   5.8461210  54.5892150  33.6456380
   7.1230150  55.3610200  33.9020340   3.0150690  54.1139360  31.5805840
   2.2322480  54.5884860  31.8602600   2.7213620  53.2094190  31.4719020
   7.5671760  54.8162460  29.6254930   8.0079850  54.7607560  28.7776530
   7.2979350  55.7320470  29.6965110   9.4310330  54.4477700  27.6363750
   9.3698730  53.5038920  27.4894770  10.2102360  54.5557790  28.1817210
   5.4029890  53.1968560  28.3304940   6.0059260  53.7688770  28.8053460
   4.6622880  53.7608000  28.1078840   8.5464490  53.5990120  23.6045220
   8.7415120  54.4973570  23.8712650   7.7594360  53.3677200  24.0978170
   5.6525110  53.3763590  38.7099880   5.5390560  53.6958200  39.6051400
   6.4694850  53.7776100  38.4137160   4.5583260  61.3956060   9.0734620
   4.4777310  60.4810670   8.8026330   4.1447680  61.8923130   8.3674330
   2.6901300  63.1735080  10.9543890   1.9143400  62.6935520  11.2442460
   3.3414230  62.4940730  10.7800050   2.1310290  65.8492270  10.9614050
   2.0618570  64.9082210  10.8003180   2.8930150  65.9393680  11.5336620
   3.1615460  58.6562650  11.1882980   3.5380280  57.7834530  11.0756650
   3.0634970  58.9921350  10.2973420   6.9439580  56.1513090   8.1211320
   7.7649200  55.6609660   8.1636800   6.9773660  56.7410750   8.8743160
  11.2339130  58.1679840  14.6854950  10.5291300  58.5561550  14.1670060
  11.4997050  58.8630130  15.2875880   3.8035390  64.7492520   6.7478920
   3.1852660  65.2141970   6.1841640   4.3158640  65.4420000   7.1648430
   7.1801060  58.0913470  10.8938860   6.4756630  58.3798360  11.4741970
   7.5413220  58.9013580  10.5338420  10.2487980  57.5368260  11.2848070
   9.3012890  57.5707240  11.4163500  10.5737970  58.3507210  11.6697430
   7.6268000  66.2748950   6.9601690   7.5164330  65.3323280   7.0851110
   7.6236250  66.6364590   7.8464450   5.7308020  64.4562570  13.1994130
   6.1476810  64.2422680  12.3647590   6.4547840  64.7135360  13.7702750
   3.1688280  61.9014270   6.3164180   2.2417560  61.8351650   6.5452650
   3.3213100  62.8394400   6.2019420   3.1557360  58.1731270   3.3131340
   2.2161030  58.3345230   3.3983800   3.4740620  58.8916950   2.7667330
   9.6770120  62.8549790  13.2910370   8.8488750  62.9242880  12.8160500
  10.2720600  63.4404100  12.8226200   7.1985570  63.4634570   6.8199430
   6.5797990  63.1254120   6.1725730   7.1810020  62.8194330   7.5278620
   6.6412130  59.6419110  14.2365240   6.2283310  60.4672820  14.4905230
   5.9088080  59.0564150  14.0441600   5.3750270  62.7021380   3.8272180
   5.8143550  61.8643810   3.6810000   6.0878690  63.3350780   3.9136320
   8.9567410  53.9564190   2.1413220   8.6440070  54.0491020   3.0412290
   9.7179880  54.5345220   2.0910650  10.3144690  66.6403230  17.1537620
  10.4407750  66.4015110  16.2354800  10.3566070  65.8087770  17.6259700
  10.1668700  58.6935690  18.1187360   9.5512970  59.2015360  17.5902820
   9.8465120  57.7934020  18.0613300   2.2283020  57.5327580  15.5849550
   1.7662390  57.7410600  16.3969490   1.8261130  56.7186930  15.2820220
   7.2287530  58.7536530  16.7146210   6.3781120  58.4542280  17.0355280
   7.0689320  58.9978540  15.8030030   4.3237240  60.2538280  18.8145000
   4.6490650  59.4202030  18.4747230   5.1117570  60.7766800  18.9623330
   4.9625190  59.7956000   6.3086130   4.3634080  60.5191800   6.1249750
   5.5104800  59.7332780   5.5262580   3.5690060  58.4319540   8.3389410
   3.9619630  58.7491740   7.5258100   3.9306910  57.5531420   8.4533930
   4.1545200  61.0225290  12.4340190   3.4226320  61.5312100  12.7830290
   3.7569540  60.2055270  12.1328970   4.6171110  56.4758970  11.8463130
   4.6343850  56.9267620  12.6904980   4.3686690  55.5764610  12.0596570
   8.0441860  53.8891150  17.6849510   8.3687630  53.1580810  18.2107490
   8.0798370  53.5704790  16.7830500   7.9699700  64.0016260  11.2935540
   8.6898820  64.4971550  10.9031650   7.7681520  63.3234150  10.6489410
   3.4309640  55.3954220   5.4364930   2.6174250  54.8967390   5.3610240
   3.2371590  56.2352470   5.0201280   3.3518500  64.0725320  17.1804540
   3.2855810  63.1520990  16.9262130   2.7223640  64.1700760  17.8949180
   6.1458030  59.7673870   3.7327090   7.0337650  60.0791100   3.5578430
   6.1163120  58.8946120   3.3407670   8.4172300  61.0785710   3.2006950
   8.3336020  61.5099930   2.3503390   9.1366490  61.5384060   3.6333770
   9.4946440  63.5353230  16.2776920   8.7694630  64.1282010  16.0806310
  10.0221900  63.5276770  15.4790290   5.0246030  65.2613400   9.7760770
   5.3769850  64.6641530   9.1162140   4.1408360  64.9357630   9.9469020
   7.4173180  64.7416370   4.1279590   7.1294880  65.2029060   4.9157470
   8.2125350  64.2814140   4.3963810   4.8081010  57.6208200  14.4787210
   5.1761830  56.8003410  14.8066780   3.9479210  57.6810090  14.8942860
   8.1743040  56.5765140   5.2874770   7.5456200  56.6810810   4.5733000
   7.6794960  56.7961920   6.0768650   1.7683000  60.2747790  14.7025180
   2.2668250  60.7493610  15.3677030   1.9105950  59.3511310  14.9095210
   4.1742500  55.5801750   8.1428440   4.0510280  55.5987880   7.1937950
   5.1227060  55.6280690   8.2626840   8.9749860  56.4915750  15.5453570
   8.4723460  57.2321150  15.8847380   9.7906520  56.8799750  15.2290360
   7.2671870  61.7348930   8.9914930   6.3262010  61.7499160   9.1662620
   7.5815940  60.9484890   9.4375230   4.5837890  66.2914930  19.4747310
   3.9776050  66.3146530  18.7343060   4.2792000  65.5597970  20.0114560
   3.6097420  64.4542740   2.6296230   3.0607520  64.9012040   3.2738970
   4.2316680  63.9491990   3.1533900   7.6632360  65.8084840  18.5618490
   8.4041830  66.1460600  18.0585950   6.9005040  65.9776900  18.0088260
   6.3378020  63.8599670  17.0973700   6.7519040  64.0144750  17.9464120
   5.4029020  63.9854890  17.2599480   6.8100190  61.1995830  19.1012850
   7.3920960  60.4448150  19.0133330   6.9861960  61.7303270  18.3244330
   3.4357150  61.5436330  16.4507470   3.5553360  60.9477470  17.1902310
   4.2951150  61.5806020  16.0308770   5.7745050  62.0973520  15.0269980
   5.2480270  62.6216140  14.4235120   6.1176390  62.7300910  15.6579710
   5.0219350  57.7023490  17.9416310   4.3334870  57.0405030  17.8766300
   5.7425370  57.2561760  18.3864770   5.6519750  54.2975120   4.0006570
   5.9322040  53.4543020   4.3565990   4.8785480  54.5298230   4.5145320
  10.0300470  63.5351850   4.6110480  10.7919380  64.1048500   4.7170170
  10.0454840  62.9679050   5.3818790  11.0360440  64.3901950   9.4552410
  11.4069270  63.6069270   9.0488380  11.6762370  65.0791050   9.2769710
   8.0194200  65.7738530  14.8682730   7.2054040  66.2035690  15.1308520
   8.4268400  66.3856940  14.2551780  10.0819640  63.8286220   1.7683000
  10.3568480  64.7365100   1.6402220   9.8930380  63.7648750   2.7044990
   6.4795250  56.8531070   3.0636630   6.8980130  56.6662050   2.2233290
   6.1731310  56.0010120   3.3739560   9.9784980  61.7655210   6.7612430
   9.6028580  60.9983140   6.3293720   9.2488100  62.1477910   7.2487360
   9.3684600  60.9126730  16.3951950   9.1370690  60.6839480  15.4949900
   9.6289150  61.8326280  16.3496840   7.8072670  56.1383160  19.1731650
   8.6842850  56.1466560  19.5565650   7.8193510  55.4014000  18.5624000
   9.2535940  59.9912700  10.0619670   9.7773420  59.4975350   9.4309840
   9.8395360  60.1263060  10.8067240   9.4325660  60.0752570  13.5839220
   8.4828370  60.0416110  13.6984210   9.6138670  60.9852680  13.3488990
   8.7435910  59.2486050   6.0012080   9.2395030  59.0156920   6.7860960
   8.5451980  58.4097890   5.5849720  10.1723070  57.8847000   8.5349760
  10.0622350  57.7303040   9.4732030  10.9330660  57.3567940   8.2925170
   8.5188790  53.8241130  14.9932760   9.1561010  54.4375270  15.3591950
   8.6663680  53.8601790  14.0481990  11.1351830  56.4865580   4.4012610
  10.3403330  56.4210700   4.9305520  11.3395110  57.4216220   4.3897960
   1.8893270  54.9767320  17.9007860   1.8282160  55.5689150  18.6503270
   2.8293650  54.8693280  17.7558120   4.5267830  54.6337380  17.5400150
   5.1408240  54.9516670  16.8781230   5.0717390  54.1485970  18.1596010
   5.2675870  53.1969520  13.8669440   4.3935710  53.5304630  13.6642370
   5.1586620  52.7242700  14.6921310   6.1747850  55.4040390  15.2511160
   5.8461210  54.5892150  14.8712890   7.1230150  55.3610200  15.1276850
   3.0150690  54.1139360  12.8062350   2.2322480  54.5884860  13.0859110
   2.7213620  53.2094190  12.6975530   7.5671760  54.8162460  10.8511440
   8.0079850  54.7607560  10.0033040   7.2979350  55.7320470  10.9221620
   9.4310330  54.4477700   8.8620260   9.3698730  53.5038920   8.7151280
  10.2102360  54.5557790   9.4073720   5.4029890  53.1968560   9.5561450
   6.0059260  53.7688770  10.0309970   4.6622880  53.7608000   9.3335350
   8.5464490  53.5990120   4.8301730   8.7415120  54.4973570   5.0969160
   7.7594360  53.3677200   5.3234680   5.6525110  53.3763590  19.9356390
   5.5390560  53.6958200  20.8307910   6.4694850  53.7776100  19.6393670
   4.5583260  42.6212570  46.6221600   4.4777310  41.7067180  46.3513310
   4.1447680  43.1179640  45.9161310   2.6901300  44.3991590  48.5030870
   1.9143400  43.9192030  48.7929440   3.3414230  43.7197240  48.3287030
   6.7108730  48.8051780  47.2830000   6.2490260  48.0339020  47.6117170
   7.5234280  48.8317850  47.7882450   2.9372040  51.0909790  46.9033990
   2.3183480  51.5467290  46.3328430   3.7923820  51.2461250  46.5023690
   2.1310290  47.0748780  48.5101030   2.0618570  46.1338720  48.3490160
   2.8930150  47.1650190  49.0823600   3.1615460  39.8819160  48.7369960
   3.5380280  39.0091040  48.6243630   3.0634970  40.2177860  47.8460400
   6.9439580  37.3769600  45.6698300   7.7649200  36.8866170  45.7123780
   6.9773660  37.9667260  46.4230140  11.2339130  39.3936350  52.2341930
  10.5291300  39.7818060  51.7157040  11.4997050  40.0886640  52.8362860
   3.8035390  45.9749030  44.2965900   3.1852660  46.4398480  43.7328620
   4.3158640  46.6676510  44.7135410   7.1801060  39.3169980  48.4425840
   6.4756630  39.6054870  49.0228950   7.5413220  40.1270090  48.0825400
   8.7963840  48.9345110  50.7053320   8.1127360  49.6044220  50.6969990
   9.3358130  49.1325760  49.9398180  10.2487980  38.7624770  48.8335050
   9.3012890  38.7963750  48.9650480  10.5737970  39.5763720  49.2184410
   6.3322580  50.7789240  49.4198500   6.3449740  50.3751530  48.5520760
   5.7797800  51.5536530  49.3159930   7.6268000  47.5005460  44.5088670
   7.5164330  46.5579790  44.6338090   7.6236250  47.8621100  45.3951430
   5.7308020  45.6819080  50.7481110   6.1476810  45.4679190  49.9134570
   6.4547840  45.9391870  51.3189730   3.1688280  43.1270780  43.8651160
   2.2417560  43.0608160  44.0939630   3.3213100  44.0650910  43.7506400
   3.1557360  39.3987780  40.8618320   2.2161030  39.5601740  40.9470780
   3.4740620  40.1173460  40.3154310   9.6770120  44.0806300  50.8397350
   8.8488750  44.1499390  50.3647480  10.2720600  44.6660610  50.3713180
   7.1985570  44.6891080  44.3686410   6.5797990  44.3510630  43.7212710
   7.1810020  44.0450840  45.0765600   6.6412130  40.8675620  51.7852220
   6.2283310  41.6929330  52.0392210   5.9088080  40.2820660  51.5928580
   7.3312230  50.9134950  52.4733200   6.8542790  51.7207140  52.2805810
   6.6474020  50.2613280  52.6259410   5.3750270  43.9277890  41.3759160
   5.8143550  43.0900320  41.2296980   6.0878690  44.5607290  41.4623300
   3.4845650  48.8673960  45.3440400   3.9241560  49.6098290  44.9295790
   3.4232540  49.1100530  46.2679360   8.9567410  35.1820700  39.6900200
   8.6440070  35.2747530  40.5899270   9.7179880  35.7601730  39.6397630
  10.3144690  47.8659740  54.7024600  10.4407750  47.6271620  53.7841780
  10.3566070  47.0344280  55.1746680   4.1761430  51.5687740  53.2719410
   4.6906100  51.4795750  54.0741840   3.3330510  51.9147440  53.5647320
   6.1515830  51.8543080  42.7003410   5.9916970  51.5646020  43.5985240
   5.9862540  51.0783210  42.1648640   5.8541960  49.3630640  41.2601410
   5.1607120  49.3607930  40.6003690   6.5964820  48.9389960  40.8295580
   5.4191890  50.9893350  45.3349900   5.8748840  50.2082730  45.6488520
   5.7584410  51.7000170  45.8791080  10.1668700  39.9192200  55.6674340
   9.5512970  40.4271870  55.1389800   9.8465120  39.0190530  55.6100280
   2.2283020  38.7584090  53.1336530   1.7662390  38.9667110  53.9456470
   1.8261130  37.9443440  52.8307200   7.2287530  39.9793040  54.2633190
   6.3781120  39.6798790  54.5842260   7.0689320  40.2235050  53.3517010
   4.3237240  41.4794790  56.3631980   4.6490650  40.6458540  56.0234210
   5.1117570  42.0023310  56.5110310   4.9625190  41.0212510  43.8573110
   4.3634080  41.7448310  43.6736730   5.5104800  40.9589290  43.0749560
   3.5690060  39.6576050  45.8876390   3.9619630  39.9748250  45.0745080
   3.9306910  38.7787930  46.0020910   4.1545200  42.2481800  49.9827170
   3.4226320  42.7568610  50.3317270   3.7569540  41.4311780  49.6815950
   4.6171110  37.7015480  49.3950110   4.6343850  38.1524130  50.2391960
   4.3686690  36.8021120  49.6083550   8.0441860  35.1147660  55.2336490
   8.3687630  34.3837320  55.7594470   8.0798370  34.7961300  54.3317480
   7.9699700  45.2272770  48.8422520   8.6898820  45.7228060  48.4518630
   7.7681520  44.5490660  48.1976390   3.4309640  36.6210730  42.9851910
   2.6174250  36.1223900  42.9097220   3.2371590  37.4608980  42.5688260
   3.3518500  45.2981830  54.7291520   3.2855810  44.3777500  54.4749110
   2.7223640  45.3957270  55.4436160   6.1458030  40.9930380  41.2814070
   7.0337650  41.3047610  41.1065410   6.1163120  40.1202630  40.8894650
   3.2835230  48.1202400  54.4795320   3.2979770  47.1883360  54.2614230
   2.5760330  48.2062160  55.1185090   8.4172300  42.3042220  40.7493930
   8.3336020  42.7356440  39.8990370   9.1366490  42.7640570  41.1820750
   9.4946440  44.7609740  53.8263900   8.7694630  45.3538520  53.6293290
  10.0221900  44.7533280  53.0277270   9.4459550  49.1584480  43.4776060
   8.8035710  48.5040100  43.7519780   9.0590210  49.5639570  42.7016730
   5.0246030  46.4869910  47.3247750   5.3769850  45.8898040  46.6649120
   4.1408360  46.1614140  47.4956000   2.7169130  49.7619970  51.5735820
   3.3611350  49.9679350  52.2509240   3.0798570  49.0008370  51.1206670
   3.9901210  47.7652320  50.2913270   4.6323440  47.0645480  50.4045440
   4.5150560  48.5450760  50.1110160   7.8356930  48.0500940  40.0152410
   7.6094510  47.3331380  40.6077050   7.4453130  47.8013380  39.1774160
   5.7638830  48.5647220  53.4949330   6.0995070  49.1513910  54.1727250
   4.8439170  48.4339930  53.7247120   7.4173180  45.9672880  41.6766570
   7.1294880  46.4285570  42.4644450   8.2125350  45.5070650  41.9450790
   4.8081010  38.8464710  52.0274190   5.1761830  38.0259920  52.3553760
   3.9479210  38.9066600  52.4429840   8.1743040  37.8021650  42.8361750
   7.5456200  37.9067320  42.1219980   7.6794960  38.0218430  43.6255630
   2.6201180  49.5227240  40.2695730   2.7213160  49.3191230  39.3397710
   1.7202920  49.2685520  40.4743510   1.7683000  41.5004300  52.2512160
   2.2668250  41.9750120  52.9164010   1.9105950  40.5767820  52.4582190
   4.1742500  36.8058260  45.6915420   4.0510280  36.8244390  44.7424930
   5.1227060  36.8537200  45.8113820   8.9749860  37.7172260  53.0940550
   8.4723460  38.4577660  53.4334360   9.7906520  38.1056260  52.7777340
   7.2671870  42.9605440  46.5401910   6.3262010  42.9755670  46.7149600
   7.5815940  42.1741400  46.9862210   9.2697450  50.1314290  48.2156170
   9.3944870  50.9545460  48.6879980  10.1363010  49.9205020  47.8680320
   6.0138260  51.2451730  55.6343700   6.9660010  51.1609750  55.5843940
   5.8666480  51.9093440  56.3077490   8.9047460  50.6245940  41.1335610
   8.6188970  50.2111080  40.3189790   8.7067010  51.5533650  41.0136130
   3.6097420  45.6799250  40.1783210   3.0607520  46.1268550  40.8225950
   4.2316680  45.1748500  40.7020880   7.6632360  47.0341350  56.1105470
   8.4041830  47.3717110  55.6072930   6.9005040  47.2033410  55.5575240
   1.7900180  43.6627780  39.3225610   2.3105840  42.9476800  38.9566760
   2.4368580  44.3013650  39.6226120   6.3378020  45.0856180  54.6460680
   6.7519040  45.2401260  55.4951100   5.4029020  45.2111400  54.8086460
   6.8100190  42.4252340  56.6499830   7.3920960  41.6704660  56.5620310
   6.9861960  42.9559780  55.8731310   3.4357150  42.7692840  53.9994450
   3.5553360  42.1733980  54.7389290   4.2951150  42.8062530  53.5795750
   5.7745050  43.3230030  52.5756960   5.2480270  43.8472650  51.9722100
   6.1176390  43.9557420  53.2066690   5.0219350  38.9280000  55.4903290
   4.3334870  38.2661540  55.4253280   5.7425370  38.4818270  55.9351750
   5.6519750  35.5231630  41.5493550   5.9322040  34.6799530  41.9052970
   4.8785480  35.7554740  42.0632300   2.3548210  51.7439390  41.6127350
   3.2499000  52.0824360  41.6346110   2.3865840  51.0218800  40.9851630
   9.3342560  50.2743060  54.3193550   8.7344550  50.3335620  53.5757470
   9.4636460  49.3348040  54.4490400  10.5744010  48.0160880  39.6563260
   9.7436970  48.0837530  40.1270490  10.7515840  48.9065000  39.3530120
  10.0300470  44.7608360  42.1597460  10.7919380  45.3305010  42.2657150
  10.0454840  44.1935560  42.9305770  11.0360440  45.6158460  47.0039390
  11.4069270  44.8325780  46.5975360  11.6762370  46.3047560  46.8256690
   8.0194200  46.9995040  52.4169710   7.2054040  47.4292200  52.6795500
   8.4268400  47.6113450  51.8038760  10.0819640  45.0542730  39.3169980
  10.3568480  45.9621610  39.1889200   9.8930380  44.9905260  40.2531970
   6.4795250  38.0787580  40.6123610   6.8980130  37.8918560  39.7720270
   6.1731310  37.2266630  40.9226540   9.9784980  42.9911720  44.3099410
   9.6028580  42.2239650  43.8780700   9.2488100  43.3734420  44.7974340
   9.3684600  42.1383240  53.9438930   9.1370690  41.9095990  53.0436880
   9.6289150  43.0582790  53.8983820   7.8072670  37.3639670  56.7218630
   8.6842850  37.3723070  57.1052630   7.8193510  36.6270510  56.1110980
   9.2535940  41.2169210  47.6106650   9.7773420  40.7231860  46.9796820
   9.8395360  41.3519570  48.3554220   9.4325660  41.3009080  51.1326200
   8.4828370  41.2672620  51.2471190   9.6138670  42.2109190  50.8975970
   8.7435910  40.4742560  43.5499060   9.2395030  40.2413430  44.3347940
   8.5451980  39.6354400  43.1336700  10.1723070  39.1103510  46.0836740
  10.0622350  38.9559550  47.0219010  10.9330660  38.5824450  45.8412150
   8.5188790  35.0497640  52.5419740   9.1561010  35.6631780  52.9078930
   8.6663680  35.0858300  51.5968970  11.0613340  36.9411430  39.3242880
  11.9862650  36.8092610  39.1161170  11.0389130  37.0204250  40.2779330
  11.1351830  37.7122090  41.9499590  10.3403330  37.6467210  42.4792500
  11.3395110  38.6472730  41.9384940   8.0770250  51.7513640  45.9437980
   8.6729320  51.4298210  45.2672400   8.3348400  51.2785460  46.7351250
   1.8893270  36.2023830  55.4494840   1.8282160  36.7945660  56.1990250
   2.8293650  36.0949790  55.3045100   4.5267830  35.8593890  55.0887130
   5.1408240  36.1773180  54.4268210   5.0717390  35.3742480  55.7082990
  10.9443010  51.7585520  52.4948970  10.4501290  52.1554390  51.7776100
  10.3356300  51.1334730  52.8886250   5.2675870  34.4226030  51.4156420
   4.3935710  34.7561140  51.2129350   5.1586620  33.9499210  52.2408290
   6.1747850  36.6296900  52.7998140   5.8461210  35.8148660  52.4199870
   7.1230150  36.5866710  52.6763830   8.6282460  52.4008940  49.7735710
   8.1685430  53.1524750  49.3993730   7.9994920  51.6815410  49.7150510
   1.7973680  51.6005670  49.7752820   2.0851490  51.3459970  48.8985830
   2.3096900  51.0483030  50.3658390   3.0150690  35.3395870  50.3549330
   2.2322480  35.8141370  50.6346090   2.7213620  34.4350700  50.2462510
   7.5671760  36.0418970  48.3998420   8.0079850  35.9864070  47.5520020
   7.2979350  36.9576980  48.4708600   9.4310330  35.6734210  46.4107240
   9.3698730  34.7295430  46.2638260  10.2102360  35.7814300  46.9560700
   5.4029890  34.4225070  47.1048430   6.0059260  34.9945280  47.5796950
   4.6622880  34.9864510  46.8822330   8.5464490  34.8246630  42.3788710
   8.7415120  35.7230080  42.6456140   7.7594360  34.5933710  42.8721660
   1.8646040  52.5221770  57.1421020   2.7913350  52.2866040  57.1856980
   1.8496470  53.3493770  56.6607050  10.0991100  52.0647340  44.1395270
  10.2743290  51.3785080  43.4956190   9.4012670  52.5894390  43.7471940
   4.5583260  42.6212570  27.8478110   4.4777310  41.7067180  27.5769820
   4.1447680  43.1179640  27.1417820   2.6901300  44.3991590  29.7287380
   1.9143400  43.9192030  30.0185950   3.3414230  43.7197240  29.5543540
   6.7108730  48.8051780  28.5086510   6.2490260  48.0339020  28.8373680
   7.5234280  48.8317850  29.0138960   2.9372040  51.0909790  28.1290500
   2.3183480  51.5467290  27.5584940   3.7923820  51.2461250  27.7280200
   2.1310290  47.0748780  29.7357540   2.0618570  46.1338720  29.5746670
   2.8930150  47.1650190  30.3080110   3.1615460  39.8819160  29.9626470
   3.5380280  39.0091040  29.8500140   3.0634970  40.2177860  29.0716910
   6.9439580  37.3769600  26.8954810   7.7649200  36.8866170  26.9380290
   6.9773660  37.9667260  27.6486650  11.2339130  39.3936350  33.4598440
  10.5291300  39.7818060  32.9413550  11.4997050  40.0886640  34.0619370
   3.8035390  45.9749030  25.5222410   3.1852660  46.4398480  24.9585130
   4.3158640  46.6676510  25.9391920   7.1801060  39.3169980  29.6682350
   6.4756630  39.6054870  30.2485460   7.5413220  40.1270090  29.3081910
   8.7963840  48.9345110  31.9309830   8.1127360  49.6044220  31.9226500
   9.3358130  49.1325760  31.1654690  10.2487980  38.7624770  30.0591560
   9.3012890  38.7963750  30.1906990  10.5737970  39.5763720  30.4440920
   6.3322580  50.7789240  30.6455010   6.3449740  50.3751530  29.7777270
   5.7797800  51.5536530  30.5416440   7.6268000  47.5005460  25.7345180
   7.5164330  46.5579790  25.8594600   7.6236250  47.8621100  26.6207940
   5.7308020  45.6819080  31.9737620   6.1476810  45.4679190  31.1391080
   6.4547840  45.9391870  32.5446240   3.1688280  43.1270780  25.0907670
   2.2417560  43.0608160  25.3196140   3.3213100  44.0650910  24.9762910
   3.1557360  39.3987780  22.0874830   2.2161030  39.5601740  22.1727290
   3.4740620  40.1173460  21.5410820   9.6770120  44.0806300  32.0653860
   8.8488750  44.1499390  31.5903990  10.2720600  44.6660610  31.5969690
   7.1985570  44.6891080  25.5942920   6.5797990  44.3510630  24.9469220
   7.1810020  44.0450840  26.3022110   6.6412130  40.8675620  33.0108730
   6.2283310  41.6929330  33.2648720   5.9088080  40.2820660  32.8185090
   7.3312230  50.9134950  33.6989710   6.8542790  51.7207140  33.5062320
   6.6474020  50.2613280  33.8515920   5.3750270  43.9277890  22.6015670
   5.8143550  43.0900320  22.4553490   6.0878690  44.5607290  22.6879810
   3.4845650  48.8673960  26.5696910   3.9241560  49.6098290  26.1552300
   3.4232540  49.1100530  27.4935870   8.9567410  35.1820700  20.9156710
   8.6440070  35.2747530  21.8155780   9.7179880  35.7601730  20.8654140
  10.9111440  50.6746890  38.7681100  11.3871160  51.1529780  39.4470180
  11.5318600  50.6064380  38.0426600  10.3144690  47.8659740  35.9281110
  10.4407750  47.6271620  35.0098290  10.3566070  47.0344280  36.4003190
   4.1761430  51.5687740  34.4975920   4.6906100  51.4795750  35.2998350
   3.3330510  51.9147440  34.7903830   6.1515830  51.8543080  23.9259920
   5.9916970  51.5646020  24.8241750   5.9862540  51.0783210  23.3905150
   5.8541960  49.3630640  22.4857920   5.1607120  49.3607930  21.8260200
   6.5964820  48.9389960  22.0552090   5.4191890  50.9893350  26.5606410
   5.8748840  50.2082730  26.8745030   5.7584410  51.7000170  27.1047590
  10.1668700  39.9192200  36.8930850   9.5512970  40.4271870  36.3646310
   9.8465120  39.0190530  36.8356790   2.2283020  38.7584090  34.3593040
   1.7662390  38.9667110  35.1712980   1.8261130  37.9443440  34.0563710
   7.2287530  39.9793040  35.4889700   6.3781120  39.6798790  35.8098770
   7.0689320  40.2235050  34.5773520   4.3237240  41.4794790  37.5888490
   4.6490650  40.6458540  37.2490720   5.1117570  42.0023310  37.7366820
   4.9625190  41.0212510  25.0829620   4.3634080  41.7448310  24.8993240
   5.5104800  40.9589290  24.3006070   3.5690060  39.6576050  27.1132900
   3.9619630  39.9748250  26.3001590   3.9306910  38.7787930  27.2277420
   4.1545200  42.2481800  31.2083680   3.4226320  42.7568610  31.5573780
   3.7569540  41.4311780  30.9072460   4.6171110  37.7015480  30.6206620
   4.6343850  38.1524130  31.4648470   4.3686690  36.8021120  30.8340060
   8.0441860  35.1147660  36.4593000   8.3687630  34.3837320  36.9850980
   8.0798370  34.7961300  35.5573990   7.9699700  45.2272770  30.0679030
   8.6898820  45.7228060  29.6775140   7.7681520  44.5490660  29.4232900
   3.4309640  36.6210730  24.2108420   2.6174250  36.1223900  24.1353730
   3.2371590  37.4608980  23.7944770   3.3518500  45.2981830  35.9548030
   3.2855810  44.3777500  35.7005620   2.7223640  45.3957270  36.6692670
   6.1458030  40.9930380  22.5070580   7.0337650  41.3047610  22.3321920
   6.1163120  40.1202630  22.1151160   3.2835230  48.1202400  35.7051830
   3.2979770  47.1883360  35.4870740   2.5760330  48.2062160  36.3441600
   8.4172300  42.3042220  21.9750440   8.3336020  42.7356440  21.1246880
   9.1366490  42.7640570  22.4077260   9.4946440  44.7609740  35.0520410
   8.7694630  45.3538520  34.8549800  10.0221900  44.7533280  34.2533780
   9.4459550  49.1584480  24.7032570   8.8035710  48.5040100  24.9776290
   9.0590210  49.5639570  23.9273240   5.0246030  46.4869910  28.5504260
   5.3769850  45.8898040  27.8905630   4.1408360  46.1614140  28.7212510
   2.7169130  49.7619970  32.7992330   3.3611350  49.9679350  33.4765750
   3.0798570  49.0008370  32.3463180   3.9901210  47.7652320  31.5169780
   4.6323440  47.0645480  31.6301950   4.5150560  48.5450760  31.3366670
   7.8356930  48.0500940  21.2408920   7.6094510  47.3331380  21.8333560
   7.4453130  47.8013380  20.4030670   5.7638830  48.5647220  34.7205840
   6.0995070  49.1513910  35.3983760   4.8439170  48.4339930  34.9503630
   7.4173180  45.9672880  22.9023080   7.1294880  46.4285570  23.6900960
   8.2125350  45.5070650  23.1707300   4.8081010  38.8464710  33.2530700
   5.1761830  38.0259920  33.5810270   3.9479210  38.9066600  33.6686350
   8.1743040  37.8021650  24.0618260   7.5456200  37.9067320  23.3476490
   7.6794960  38.0218430  24.8512140   2.6201180  49.5227240  21.4952240
   2.7213160  49.3191230  20.5654220   1.7202920  49.2685520  21.7000020
   1.7683000  41.5004300  33.4768670   2.2668250  41.9750120  34.1420520
   1.9105950  40.5767820  33.6838700   4.1742500  36.8058260  26.9171930
   4.0510280  36.8244390  25.9681440   5.1227060  36.8537200  27.0370330
   8.9749860  37.7172260  34.3197060   8.4723460  38.4577660  34.6590870
   9.7906520  38.1056260  34.0033850   7.2671870  42.9605440  27.7658420
   6.3262010  42.9755670  27.9406110   7.5815940  42.1741400  28.2118720
   9.2697450  50.1314290  29.4412680   9.3944870  50.9545460  29.9136490
  10.1363010  49.9205020  29.0936830   4.5837890  47.5171440  38.2490800
   3.9776050  47.5403040  37.5086550   4.2792000  46.7854480  38.7858050
   6.0138260  51.2451730  36.8600210   6.9660010  51.1609750  36.8100450
   5.8666480  51.9093440  37.5334000   8.9047460  50.6245940  22.3592120
   8.6188970  50.2111080  21.5446300   8.7067010  51.5533650  22.2392640
   3.6097420  45.6799250  21.4039720   3.0607520  46.1268550  22.0482460
   4.2316680  45.1748500  21.9277390   7.6632360  47.0341350  37.3361980
   8.4041830  47.3717110  36.8329440   6.9005040  47.2033410  36.7831750
   1.7900180  43.6627780  20.5482120   2.3105840  42.9476800  20.1823270
   2.4368580  44.3013650  20.8482630   6.3378020  45.0856180  35.8717190
   6.7519040  45.2401260  36.7207610   5.4029020  45.2111400  36.0342970
   6.8100190  42.4252340  37.8756340   7.3920960  41.6704660  37.7876820
   6.9861960  42.9559780  37.0987820   3.4357150  42.7692840  35.2250960
   3.5553360  42.1733980  35.9645800   4.2951150  42.8062530  34.8052260
   5.7745050  43.3230030  33.8013470   5.2480270  43.8472650  33.1978610
   6.1176390  43.9557420  34.4323200   5.0219350  38.9280000  36.7159800
   4.3334870  38.2661540  36.6509790   5.7425370  38.4818270  37.1608260
   5.6519750  35.5231630  22.7750060   5.9322040  34.6799530  23.1309480
   4.8785480  35.7554740  23.2888810   2.3548210  51.7439390  22.8383860
   3.2499000  52.0824360  22.8602620   2.3865840  51.0218800  22.2108140
   9.3342560  50.2743060  35.5450060   8.7344550  50.3335620  34.8013980
   9.4636460  49.3348040  35.6746910  10.5744010  48.0160880  20.8819770
   9.7436970  48.0837530  21.3527000  10.7515840  48.9065000  20.5786630
  10.0300470  44.7608360  23.3853970  10.7919380  45.3305010  23.4913660
  10.0454840  44.1935560  24.1562280  11.0360440  45.6158460  28.2295900
  11.4069270  44.8325780  27.8231870  11.6762370  46.3047560  28.0513200
   8.0194200  46.9995040  33.6426220   7.2054040  47.4292200  33.9052010
   8.4268400  47.6113450  33.0295270  10.0819640  45.0542730  20.5426490
  10.3568480  45.9621610  20.4145710   9.8930380  44.9905260  21.4788480
   6.4795250  38.0787580  21.8380120   6.8980130  37.8918560  20.9976780
   6.1731310  37.2266630  22.1483050   9.9784980  42.9911720  25.5355920
   9.6028580  42.2239650  25.1037210   9.2488100  43.3734420  26.0230850
   9.3684600  42.1383240  35.1695440   9.1370690  41.9095990  34.2693390
   9.6289150  43.0582790  35.1240330   7.8072670  37.3639670  37.9475140
   8.6842850  37.3723070  38.3309140   7.8193510  36.6270510  37.3367490
   9.2535940  41.2169210  28.8363160   9.7773420  40.7231860  28.2053330
   9.8395360  41.3519570  29.5810730   9.4325660  41.3009080  32.3582710
   8.4828370  41.2672620  32.4727700   9.6138670  42.2109190  32.1232480
   8.7435910  40.4742560  24.7755570   9.2395030  40.2413430  25.5604450
   8.5451980  39.6354400  24.3593210  10.1723070  39.1103510  27.3093250
  10.0622350  38.9559550  28.2475520  10.9330660  38.5824450  27.0668660
   8.5188790  35.0497640  33.7676250   9.1561010  35.6631780  34.1335440
   8.6663680  35.0858300  32.8225480  11.0613340  36.9411430  20.5499390
  11.9862650  36.8092610  20.3417680  11.0389130  37.0204250  21.5035840
  11.1351830  37.7122090  23.1756100  10.3403330  37.6467210  23.7049010
  11.3395110  38.6472730  23.1641450   8.0770250  51.7513640  27.1694490
   8.6729320  51.4298210  26.4928910   8.3348400  51.2785460  27.9607760
   1.8893270  36.2023830  36.6751350   1.8282160  36.7945660  37.4246760
   2.8293650  36.0949790  36.5301610   4.5267830  35.8593890  36.3143640
   5.1408240  36.1773180  35.6524720   5.0717390  35.3742480  36.9339500
  10.9443010  51.7585520  33.7205480  10.4501290  52.1554390  33.0032610
  10.3356300  51.1334730  34.1142760   5.2675870  34.4226030  32.6412930
   4.3935710  34.7561140  32.4385860   5.1586620  33.9499210  33.4664800
   6.1747850  36.6296900  34.0254650   5.8461210  35.8148660  33.6456380
   7.1230150  36.5866710  33.9020340   8.6282460  52.4008940  30.9992220
   8.1685430  53.1524750  30.6250240   7.9994920  51.6815410  30.9407020
   1.7973680  51.6005670  31.0009330   2.0851490  51.3459970  30.1242340
   2.3096900  51.0483030  31.5914900   3.0150690  35.3395870  31.5805840
   2.2322480  35.8141370  31.8602600   2.7213620  34.4350700  31.4719020
   7.5671760  36.0418970  29.6254930   8.0079850  35.9864070  28.7776530
   7.2979350  36.9576980  29.6965110   9.4310330  35.6734210  27.6363750
   9.3698730  34.7295430  27.4894770  10.2102360  35.7814300  28.1817210
   5.4029890  34.4225070  28.3304940   6.0059260  34.9945280  28.8053460
   4.6622880  34.9864510  28.1078840   8.5464490  34.8246630  23.6045220
   8.7415120  35.7230080  23.8712650   7.7594360  34.5933710  24.0978170
   1.8646040  52.5221770  38.3677530   2.7913350  52.2866040  38.4113490
   1.8496470  53.3493770  37.8863560  10.0991100  52.0647340  25.3651780
  10.2743290  51.3785080  24.7212700   9.4012670  52.5894390  24.9728450
   5.6525110  34.6020100  38.7099880   5.5390560  34.9214710  39.6051400
   6.4694850  35.0032610  38.4137160   8.4323600  51.7491630  38.1918570
   9.2248920  51.2540860  37.9844530   8.7256750  52.4281770  38.7994180
   4.5583260  42.6212570   9.0734620   4.4777310  41.7067180   8.8026330
   4.1447680  43.1179640   8.3674330   2.6901300  44.3991590  10.9543890
   1.9143400  43.9192030  11.2442460   3.3414230  43.7197240  10.7800050
   6.7108730  48.8051780   9.7343020   6.2490260  48.0339020  10.0630190
   7.5234280  48.8317850  10.2395470   2.9372040  51.0909790   9.3547010
   2.3183480  51.5467290   8.7841450   3.7923820  51.2461250   8.9536710
   2.1310290  47.0748780  10.9614050   2.0618570  46.1338720  10.8003180
   2.8930150  47.1650190  11.5336620   3.1615460  39.8819160  11.1882980
   3.5380280  39.0091040  11.0756650   3.0634970  40.2177860  10.2973420
   6.9439580  37.3769600   8.1211320   7.7649200  36.8866170   8.1636800
   6.9773660  37.9667260   8.8743160  11.2339130  39.3936350  14.6854950
  10.5291300  39.7818060  14.1670060  11.4997050  40.0886640  15.2875880
   3.8035390  45.9749030   6.7478920   3.1852660  46.4398480   6.1841640
   4.3158640  46.6676510   7.1648430   7.1801060  39.3169980  10.8938860
   6.4756630  39.6054870  11.4741970   7.5413220  40.1270090  10.5338420
   8.7963840  48.9345110  13.1566340   8.1127360  49.6044220  13.1483010
   9.3358130  49.1325760  12.3911200  10.2487980  38.7624770  11.2848070
   9.3012890  38.7963750  11.4163500  10.5737970  39.5763720  11.6697430
   6.3322580  50.7789240  11.8711520   6.3449740  50.3751530  11.0033780
   5.7797800  51.5536530  11.7672950   7.6268000  47.5005460   6.9601690
   7.5164330  46.5579790   7.0851110   7.6236250  47.8621100   7.8464450
   5.7308020  45.6819080  13.1994130   6.1476810  45.4679190  12.3647590
   6.4547840  45.9391870  13.7702750   3.1688280  43.1270780   6.3164180
   2.2417560  43.0608160   6.5452650   3.3213100  44.0650910   6.2019420
   3.1557360  39.3987780   3.3131340   2.2161030  39.5601740   3.3983800
   3.4740620  40.1173460   2.7667330   9.6770120  44.0806300  13.2910370
   8.8488750  44.1499390  12.8160500  10.2720600  44.6660610  12.8226200
   7.1985570  44.6891080   6.8199430   6.5797990  44.3510630   6.1725730
   7.1810020  44.0450840   7.5278620   6.6412130  40.8675620  14.2365240
   6.2283310  41.6929330  14.4905230   5.9088080  40.2820660  14.0441600
   7.3312230  50.9134950  14.9246220   6.8542790  51.7207140  14.7318830
   6.6474020  50.2613280  15.0772430   5.3750270  43.9277890   3.8272180
   5.8143550  43.0900320   3.6810000   6.0878690  44.5607290   3.9136320
   3.4845650  48.8673960   7.7953420   3.9241560  49.6098290   7.3808810
   3.4232540  49.1100530   8.7192380   8.9567410  35.1820700   2.1413220
   8.6440070  35.2747530   3.0412290   9.7179880  35.7601730   2.0910650
  10.9111440  50.6746890  19.9937610  11.3871160  51.1529780  20.6726690
  11.5318600  50.6064380  19.2683110  10.3144690  47.8659740  17.1537620
  10.4407750  47.6271620  16.2354800  10.3566070  47.0344280  17.6259700
   4.1761430  51.5687740  15.7232430   4.6906100  51.4795750  16.5254860
   3.3330510  51.9147440  16.0160340   6.1515830  51.8543080   5.1516430
   5.9916970  51.5646020   6.0498260   5.9862540  51.0783210   4.6161660
   5.8541960  49.3630640   3.7114430   5.1607120  49.3607930   3.0516710
   6.5964820  48.9389960   3.2808600   5.4191890  50.9893350   7.7862920
   5.8748840  50.2082730   8.1001540   5.7584410  51.7000170   8.3304100
  10.1668700  39.9192200  18.1187360   9.5512970  40.4271870  17.5902820
   9.8465120  39.0190530  18.0613300   2.2283020  38.7584090  15.5849550
   1.7662390  38.9667110  16.3969490   1.8261130  37.9443440  15.2820220
   7.2287530  39.9793040  16.7146210   6.3781120  39.6798790  17.0355280
   7.0689320  40.2235050  15.8030030   4.3237240  41.4794790  18.8145000
   4.6490650  40.6458540  18.4747230   5.1117570  42.0023310  18.9623330
   4.9625190  41.0212510   6.3086130   4.3634080  41.7448310   6.1249750
   5.5104800  40.9589290   5.5262580   3.5690060  39.6576050   8.3389410
   3.9619630  39.9748250   7.5258100   3.9306910  38.7787930   8.4533930
   4.1545200  42.2481800  12.4340190   3.4226320  42.7568610  12.7830290
   3.7569540  41.4311780  12.1328970   4.6171110  37.7015480  11.8463130
   4.6343850  38.1524130  12.6904980   4.3686690  36.8021120  12.0596570
   8.0441860  35.1147660  17.6849510   8.3687630  34.3837320  18.2107490
   8.0798370  34.7961300  16.7830500   7.9699700  45.2272770  11.2935540
   8.6898820  45.7228060  10.9031650   7.7681520  44.5490660  10.6489410
   3.4309640  36.6210730   5.4364930   2.6174250  36.1223900   5.3610240
   3.2371590  37.4608980   5.0201280   3.3518500  45.2981830  17.1804540
   3.2855810  44.3777500  16.9262130   2.7223640  45.3957270  17.8949180
   6.1458030  40.9930380   3.7327090   7.0337650  41.3047610   3.5578430
   6.1163120  40.1202630   3.3407670   3.2835230  48.1202400  16.9308340
   3.2979770  47.1883360  16.7127250   2.5760330  48.2062160  17.5698110
   8.4172300  42.3042220   3.2006950   8.3336020  42.7356440   2.3503390
   9.1366490  42.7640570   3.6333770   9.4946440  44.7609740  16.2776920
   8.7694630  45.3538520  16.0806310  10.0221900  44.7533280  15.4790290
   9.4459550  49.1584480   5.9289080   8.8035710  48.5040100   6.2032800
   9.0590210  49.5639570   5.1529750   5.0246030  46.4869910   9.7760770
   5.3769850  45.8898040   9.1162140   4.1408360  46.1614140   9.9469020
   2.7169130  49.7619970  14.0248840   3.3611350  49.9679350  14.7022260
   3.0798570  49.0008370  13.5719690   3.9901210  47.7652320  12.7426290
   4.6323440  47.0645480  12.8558460   4.5150560  48.5450760  12.5623180
   5.7638830  48.5647220  15.9462350   6.0995070  49.1513910  16.6240270
   4.8439170  48.4339930  16.1760140   7.4173180  45.9672880   4.1279590
   7.1294880  46.4285570   4.9157470   8.2125350  45.5070650   4.3963810
   4.8081010  38.8464710  14.4787210   5.1761830  38.0259920  14.8066780
   3.9479210  38.9066600  14.8942860   8.1743040  37.8021650   5.2874770
   7.5456200  37.9067320   4.5733000   7.6794960  38.0218430   6.0768650
   2.6201180  49.5227240   2.7208750   2.7213160  49.3191230   1.7910730
   1.7202920  49.2685520   2.9256530   1.7683000  41.5004300  14.7025180
   2.2668250  41.9750120  15.3677030   1.9105950  40.5767820  14.9095210
   4.1742500  36.8058260   8.1428440   4.0510280  36.8244390   7.1937950
   5.1227060  36.8537200   8.2626840   8.9749860  37.7172260  15.5453570
   8.4723460  38.4577660  15.8847380   9.7906520  38.1056260  15.2290360
   7.2671870  42.9605440   8.9914930   6.3262010  42.9755670   9.1662620
   7.5815940  42.1741400   9.4375230   9.2697450  50.1314290  10.6669190
   9.3944870  50.9545460  11.1393000  10.1363010  49.9205020  10.3193340
   4.5837890  47.5171440  19.4747310   3.9776050  47.5403040  18.7343060
   4.2792000  46.7854480  20.0114560   6.0138260  51.2451730  18.0856720
   6.9660010  51.1609750  18.0356960   5.8666480  51.9093440  18.7590510
   8.9047460  50.6245940   3.5848630   8.6188970  50.2111080   2.7702810
   8.7067010  51.5533650   3.4649150   3.6097420  45.6799250   2.6296230
   3.0607520  46.1268550   3.2738970   4.2316680  45.1748500   3.1533900
   7.6632360  47.0341350  18.5618490   8.4041830  47.3717110  18.0585950
   6.9005040  47.2033410  18.0088260   6.3378020  45.0856180  17.0973700
   6.7519040  45.2401260  17.9464120   5.4029020  45.2111400  17.2599480
   6.8100190  42.4252340  19.1012850   7.3920960  41.6704660  19.0133330
   6.9861960  42.9559780  18.3244330   3.4357150  42.7692840  16.4507470
   3.5553360  42.1733980  17.1902310   4.2951150  42.8062530  16.0308770
   5.7745050  43.3230030  15.0269980   5.2480270  43.8472650  14.4235120
   6.1176390  43.9557420  15.6579710   5.0219350  38.9280000  17.9416310
   4.3334870  38.2661540  17.8766300   5.7425370  38.4818270  18.3864770
   5.6519750  35.5231630   4.0006570   5.9322040  34.6799530   4.3565990
   4.8785480  35.7554740   4.5145320   2.3548210  51.7439390   4.0640370
   3.2499000  52.0824360   4.0859130   2.3865840  51.0218800   3.4364650
   9.3342560  50.2743060  16.7706570   8.7344550  50.3335620  16.0270490
   9.4636460  49.3348040  16.9003420  10.5744010  48.0160880   2.1076280
   9.7436970  48.0837530   2.5783510  10.7515840  48.9065000   1.8043140
  10.0300470  44.7608360   4.6110480  10.7919380  45.3305010   4.7170170
  10.0454840  44.1935560   5.3818790  11.0360440  45.6158460   9.4552410
  11.4069270  44.8325780   9.0488380  11.6762370  46.3047560   9.2769710
   8.0194200  46.9995040  14.8682730   7.2054040  47.4292200  15.1308520
   8.4268400  47.6113450  14.2551780  10.0819640  45.0542730   1.7683000
  10.3568480  45.9621610   1.6402220   9.8930380  44.9905260   2.7044990
   6.4795250  38.0787580   3.0636630   6.8980130  37.8918560   2.2233290
   6.1731310  37.2266630   3.3739560   9.9784980  42.9911720   6.7612430
   9.6028580  42.2239650   6.3293720   9.2488100  43.3734420   7.2487360
   9.3684600  42.1383240  16.3951950   9.1370690  41.9095990  15.4949900
   9.6289150  43.0582790  16.3496840   7.8072670  37.3639670  19.1731650
   8.6842850  37.3723070  19.5565650   7.8193510  36.6270510  18.5624000
   9.2535940  41.2169210  10.0619670   9.7773420  40.7231860   9.4309840
   9.8395360  41.3519570  10.8067240   9.4325660  41.3009080  13.5839220
   8.4828370  41.2672620  13.6984210   9.6138670  42.2109190  13.3488990
   8.7435910  40.4742560   6.0012080   9.2395030  40.2413430   6.7860960
   8.5451980  39.6354400   5.5849720  10.1723070  39.1103510   8.5349760
  10.0622350  38.9559550   9.4732030  10.9330660  38.5824450   8.2925170
   8.5188790  35.0497640  14.9932760   9.1561010  35.6631780  15.3591950
   8.6663680  35.0858300  14.0481990  11.1351830  37.7122090   4.4012610
  10.3403330  37.6467210   4.9305520  11.3395110  38.6472730   4.3897960
   8.0770250  51.7513640   8.3951000   8.6729320  51.4298210   7.7185420
   8.3348400  51.2785460   9.1864270   1.8893270  36.2023830  17.9007860
   1.8282160  36.7945660  18.6503270   2.8293650  36.0949790  17.7558120
   4.5267830  35.8593890  17.5400150   5.1408240  36.1773180  16.8781230
   5.0717390  35.3742480  18.1596010  10.9443010  51.7585520  14.9461990
  10.4501290  52.1554390  14.2289120  10.3356300  51.1334730  15.3399270
   5.2675870  34.4226030  13.8669440   4.3935710  34.7561140  13.6642370
   5.1586620  33.9499210  14.6921310   6.1747850  36.6296900  15.2511160
   5.8461210  35.8148660  14.8712890   7.1230150  36.5866710  15.1276850
   8.6282460  52.4008940  12.2248730   8.1685430  53.1524750  11.8506750
   7.9994920  51.6815410  12.1663530   1.7973680  51.6005670  12.2265840
   2.0851490  51.3459970  11.3498850   2.3096900  51.0483030  12.8171410
   3.0150690  35.3395870  12.8062350   2.2322480  35.8141370  13.0859110
   2.7213620  34.4350700  12.6975530   7.5671760  36.0418970  10.8511440
   8.0079850  35.9864070  10.0033040   7.2979350  36.9576980  10.9221620
   9.4310330  35.6734210   8.8620260   9.3698730  34.7295430   8.7151280
  10.2102360  35.7814300   9.4073720   5.4029890  34.4225070   9.5561450
   6.0059260  34.9945280  10.0309970   4.6622880  34.9864510   9.3335350
   8.5464490  34.8246630   4.8301730   8.7415120  35.7230080   5.0969160
   7.7594360  34.5933710   5.3234680   1.8646040  52.5221770  19.5934040
   2.7913350  52.2866040  19.6370000   1.8496470  53.3493770  19.1120070
  10.0991100  52.0647340   6.5908290  10.2743290  51.3785080   5.9469210
   9.4012670  52.5894390   6.1984960   5.6525110  34.6020100  19.9356390
   5.5390560  34.9214710  20.8307910   6.4694850  35.0032610  19.6393670
   8.4323600  51.7491630  19.4175080   9.2248920  51.2540860  19.2101040
   8.7256750  52.4281770  20.0250690   4.5583260  23.8469080  46.6221600
   4.4777310  22.9323690  46.3513310   4.1447680  24.3436150  45.9161310
   2.6901300  25.6248100  48.5030870   1.9143400  25.1448540  48.7929440
   3.3414230  24.9453750  48.3287030   6.7108730  30.0308290  47.2830000
   6.2490260  29.2595530  47.6117170   7.5234280  30.0574360  47.7882450
   2.9372040  32.3166300  46.9033990   2.3183480  32.7723800  46.3328430
   3.7923820  32.4717760  46.5023690   2.1310290  28.3005290  48.5101030
   2.0618570  27.3595230  48.3490160   2.8930150  28.3906700  49.0823600
   3.1615460  21.1075670  48.7369960   3.5380280  20.2347550  48.6243630
   3.0634970  21.4434370  47.8460400   6.9439580  18.6026110  45.6698300
   7.7649200  18.1122680  45.7123780   6.9773660  19.1923770  46.4230140
  11.2339130  20.6192860  52.2341930  10.5291300  21.0074570  51.7157040
  11.4997050  21.3143150  52.8362860   3.8035390  27.2005540  44.2965900
   3.1852660  27.6654990  43.7328620   4.3158640  27.8933020  44.7135410
   7.1801060  20.5426490  48.4425840   6.4756630  20.8311380  49.0228950
   7.5413220  21.3526600  48.0825400   8.7963840  30.1601620  50.7053320
   8.1127360  30.8300730  50.6969990   9.3358130  30.3582270  49.9398180
  10.2487980  19.9881280  48.8335050   9.3012890  20.0220260  48.9650480
  10.5737970  20.8020230  49.2184410   6.3322580  32.0045750  49.4198500
   6.3449740  31.6008040  48.5520760   5.7797800  32.7793040  49.3159930
   7.6268000  28.7261970  44.5088670   7.5164330  27.7836300  44.6338090
   7.6236250  29.0877610  45.3951430   5.7308020  26.9075590  50.7481110
   6.1476810  26.6935700  49.9134570   6.4547840  27.1648380  51.3189730
   3.1688280  24.3527290  43.8651160   2.2417560  24.2864670  44.0939630
   3.3213100  25.2907420  43.7506400   3.1557360  20.6244290  40.8618320
   2.2161030  20.7858250  40.9470780   3.4740620  21.3429970  40.3154310
   9.6770120  25.3062810  50.8397350   8.8488750  25.3755900  50.3647480
  10.2720600  25.8917120  50.3713180   7.1985570  25.9147590  44.3686410
   6.5797990  25.5767140  43.7212710   7.1810020  25.2707350  45.0765600
   6.6412130  22.0932130  51.7852220   6.2283310  22.9185840  52.0392210
   5.9088080  21.5077170  51.5928580   7.3312230  32.1391460  52.4733200
   6.8542790  32.9463650  52.2805810   6.6474020  31.4869790  52.6259410
   5.3750270  25.1534400  41.3759160   5.8143550  24.3156830  41.2296980
   6.0878690  25.7863800  41.4623300   3.4845650  30.0930470  45.3440400
   3.9241560  30.8354800  44.9295790   3.4232540  30.3357040  46.2679360
   8.9567410  16.4077210  39.6900200   8.6440070  16.5004040  40.5899270
   9.7179880  16.9858240  39.6397630  10.3144690  29.0916250  54.7024600
  10.4407750  28.8528130  53.7841780  10.3566070  28.2600790  55.1746680
   4.1761430  32.7944250  53.2719410   4.6906100  32.7052260  54.0741840
   3.3330510  33.1403950  53.5647320   6.1515830  33.0799590  42.7003410
   5.9916970  32.7902530  43.5985240   5.9862540  32.3039720  42.1648640
   5.8541960  30.5887150  41.2601410   5.1607120  30.5864440  40.6003690
   6.5964820  30.1646470  40.8295580   5.4191890  32.2149860  45.3349900
   5.8748840  31.4339240  45.6488520   5.7584410  32.9256680  45.8791080
  10.1668700  21.1448710  55.6674340   9.5512970  21.6528380  55.1389800
   9.8465120  20.2447040  55.6100280   2.2283020  19.9840600  53.1336530
   1.7662390  20.1923620  53.9456470   1.8261130  19.1699950  52.8307200
   7.2287530  21.2049550  54.2633190   6.3781120  20.9055300  54.5842260
   7.0689320  21.4491560  53.3517010   4.3237240  22.7051300  56.3631980
   4.6490650  21.8715050  56.0234210   5.1117570  23.2279820  56.5110310
   4.9625190  22.2469020  43.8573110   4.3634080  22.9704820  43.6736730
   5.5104800  22.1845800  43.0749560   3.5690060  20.8832560  45.8876390
   3.9619630  21.2004760  45.0745080   3.9306910  20.0044440  46.0020910
   4.1545200  23.4738310  49.9827170   3.4226320  23.9825120  50.3317270
   3.7569540  22.6568290  49.6815950   4.6171110  18.9271990  49.3950110
   4.6343850  19.3780640  50.2391960   4.3686690  18.0277630  49.6083550
   8.0441860  16.3404170  55.2336490   8.3687630  15.6093830  55.7594470
   8.0798370  16.0217810  54.3317480   7.9699700  26.4529280  48.8422520
   8.6898820  26.9484570  48.4518630   7.7681520  25.7747170  48.1976390
   3.4309640  17.8467240  42.9851910   2.6174250  17.3480410  42.9097220
   3.2371590  18.6865490  42.5688260   3.3518500  26.5238340  54.7291520
   3.2855810  25.6034010  54.4749110   2.7223640  26.6213780  55.4436160
   6.1458030  22.2186890  41.2814070   7.0337650  22.5304120  41.1065410
   6.1163120  21.3459140  40.8894650   3.2835230  29.3458910  54.4795320
   3.2979770  28.4139870  54.2614230   2.5760330  29.4318670  55.1185090
   8.4172300  23.5298730  40.7493930   8.3336020  23.9612950  39.8990370
   9.1366490  23.9897080  41.1820750   9.4946440  25.9866250  53.8263900
   8.7694630  26.5795030  53.6293290  10.0221900  25.9789790  53.0277270
   9.4459550  30.3840990  43.4776060   8.8035710  29.7296610  43.7519780
   9.0590210  30.7896080  42.7016730   5.0246030  27.7126420  47.3247750
   5.3769850  27.1154550  46.6649120   4.1408360  27.3870650  47.4956000
   2.7169130  30.9876480  51.5735820   3.3611350  31.1935860  52.2509240
   3.0798570  30.2264880  51.1206670   3.9901210  28.9908830  50.2913270
   4.6323440  28.2901990  50.4045440   4.5150560  29.7707270  50.1110160
   7.8356930  29.2757450  40.0152410   7.6094510  28.5587890  40.6077050
   7.4453130  29.0269890  39.1774160   5.7638830  29.7903730  53.4949330
   6.0995070  30.3770420  54.1727250   4.8439170  29.6596440  53.7247120
   7.4173180  27.1929390  41.6766570   7.1294880  27.6542080  42.4644450
   8.2125350  26.7327160  41.9450790   4.8081010  20.0721220  52.0274190
   5.1761830  19.2516430  52.3553760   3.9479210  20.1323110  52.4429840
   8.1743040  19.0278160  42.8361750   7.5456200  19.1323830  42.1219980
   7.6794960  19.2474940  43.6255630   2.6201180  30.7483750  40.2695730
   2.7213160  30.5447740  39.3397710   1.7202920  30.4942030  40.4743510
   1.7683000  22.7260810  52.2512160   2.2668250  23.2006630  52.9164010
   1.9105950  21.8024330  52.4582190   4.1742500  18.0314770  45.6915420
   4.0510280  18.0500900  44.7424930   5.1227060  18.0793710  45.8113820
   8.9749860  18.9428770  53.0940550   8.4723460  19.6834170  53.4334360
   9.7906520  19.3312770  52.7777340   7.2671870  24.1861950  46.5401910
   6.3262010  24.2012180  46.7149600   7.5815940  23.3997910  46.9862210
   9.2697450  31.3570800  48.2156170   9.3944870  32.1801970  48.6879980
  10.1363010  31.1461530  47.8680320   6.0138260  32.4708240  55.6343700
   6.9660010  32.3866260  55.5843940   5.8666480  33.1349950  56.3077490
   8.9047460  31.8502450  41.1335610   8.6188970  31.4367590  40.3189790
   8.7067010  32.7790160  41.0136130   3.6097420  26.9055760  40.1783210
   3.0607520  27.3525060  40.8225950   4.2316680  26.4005010  40.7020880
   7.6632360  28.2597860  56.1105470   8.4041830  28.5973620  55.6072930
   6.9005040  28.4289920  55.5575240   1.7900180  24.8884290  39.3225610
   2.3105840  24.1733310  38.9566760   2.4368580  25.5270160  39.6226120
   6.3378020  26.3112690  54.6460680   6.7519040  26.4657770  55.4951100
   5.4029020  26.4367910  54.8086460   6.8100190  23.6508850  56.6499830
   7.3920960  22.8961170  56.5620310   6.9861960  24.1816290  55.8731310
   3.4357150  23.9949350  53.9994450   3.5553360  23.3990490  54.7389290
   4.2951150  24.0319040  53.5795750   5.7745050  24.5486540  52.5756960
   5.2480270  25.0729160  51.9722100   6.1176390  25.1813930  53.2066690
   5.0219350  20.1536510  55.4903290   4.3334870  19.4918050  55.4253280
   5.7425370  19.7074780  55.9351750   5.6519750  16.7488140  41.5493550
   5.9322040  15.9056040  41.9052970   4.8785480  16.9811250  42.0632300
   2.3548210  32.9695900  41.6127350   3.2499000  33.3080870  41.6346110
   2.3865840  32.2475310  40.9851630   9.3342560  31.4999570  54.3193550
   8.7344550  31.5592130  53.5757470   9.4636460  30.5604550  54.4490400
  10.5744010  29.2417390  39.6563260   9.7436970  29.3094040  40.1270490
  10.7515840  30.1321510  39.3530120  10.0300470  25.9864870  42.1597460
  10.7919380  26.5561520  42.2657150  10.0454840  25.4192070  42.9305770
  11.0360440  26.8414970  47.0039390  11.4069270  26.0582290  46.5975360
  11.6762370  27.5304070  46.8256690   8.0194200  28.2251550  52.4169710
   7.2054040  28.6548710  52.6795500   8.4268400  28.8369960  51.8038760
  10.0819640  26.2799240  39.3169980  10.3568480  27.1878120  39.1889200
   9.8930380  26.2161770  40.2531970   6.4795250  19.3044090  40.6123610
   6.8980130  19.1175070  39.7720270   6.1731310  18.4523140  40.9226540
   9.9784980  24.2168230  44.3099410   9.6028580  23.4496160  43.8780700
   9.2488100  24.5990930  44.7974340   9.3684600  23.3639750  53.9438930
   9.1370690  23.1352500  53.0436880   9.6289150  24.2839300  53.8983820
   7.8072670  18.5896180  56.7218630   8.6842850  18.5979580  57.1052630
   7.8193510  17.8527020  56.1110980   9.2535940  22.4425720  47.6106650
   9.7773420  21.9488370  46.9796820   9.8395360  22.5776080  48.3554220
   9.4325660  22.5265590  51.1326200   8.4828370  22.4929130  51.2471190
   9.6138670  23.4365700  50.8975970   8.7435910  21.6999070  43.5499060
   9.2395030  21.4669940  44.3347940   8.5451980  20.8610910  43.1336700
  10.1723070  20.3360020  46.0836740  10.0622350  20.1816060  47.0219010
  10.9330660  19.8080960  45.8412150   8.5188790  16.2754150  52.5419740
   9.1561010  16.8888290  52.9078930   8.6663680  16.3114810  51.5968970
  11.0613340  18.1667940  39.3242880  11.9862650  18.0349120  39.1161170
  11.0389130  18.2460760  40.2779330  11.1351830  18.9378600  41.9499590
  10.3403330  18.8723720  42.4792500  11.3395110  19.8729240  41.9384940
   8.0770250  32.9770150  45.9437980   8.6729320  32.6554720  45.2672400
   8.3348400  32.5041970  46.7351250   1.8893270  17.4280340  55.4494840
   1.8282160  18.0202170  56.1990250   2.8293650  17.3206300  55.3045100
   4.5267830  17.0850400  55.0887130   5.1408240  17.4029690  54.4268210
   5.0717390  16.5998990  55.7082990  10.9443010  32.9842030  52.4948970
  10.4501290  33.3810900  51.7776100  10.3356300  32.3591240  52.8886250
   5.2675870  15.6482540  51.4156420   4.3935710  15.9817650  51.2129350
   5.1586620  15.1755720  52.2408290   6.1747850  17.8553410  52.7998140
   5.8461210  17.0405170  52.4199870   7.1230150  17.8123220  52.6763830
   8.6282460  33.6265450  49.7735710   8.1685430  34.3781260  49.3993730
   7.9994920  32.9071920  49.7150510   1.7973680  32.8262180  49.7752820
   2.0851490  32.5716480  48.8985830   2.3096900  32.2739540  50.3658390
   3.0150690  16.5652380  50.3549330   2.2322480  17.0397880  50.6346090
   2.7213620  15.6607210  50.2462510   7.5671760  17.2675480  48.3998420
   8.0079850  17.2120580  47.5520020   7.2979350  18.1833490  48.4708600
   9.4310330  16.8990720  46.4107240   9.3698730  15.9551940  46.2638260
  10.2102360  17.0070810  46.9560700   5.4029890  15.6481580  47.1048430
   6.0059260  16.2201790  47.5796950   4.6622880  16.2121020  46.8822330
   8.5464490  16.0503140  42.3788710   8.7415120  16.9486590  42.6456140
   7.7594360  15.8190220  42.8721660   1.8646040  33.7478280  57.1421020
   2.7913350  33.5122550  57.1856980   1.8496470  34.5750280  56.6607050
  10.0991100  33.2903850  44.1395270  10.2743290  32.6041590  43.4956190
   9.4012670  33.8150900  43.7471940   4.5583260  23.8469080  27.8478110
   4.4777310  22.9323690  27.5769820   4.1447680  24.3436150  27.1417820
   2.6901300  25.6248100  29.7287380   1.9143400  25.1448540  30.0185950
   3.3414230  24.9453750  29.5543540   6.7108730  30.0308290  28.5086510
   6.2490260  29.2595530  28.8373680   7.5234280  30.0574360  29.0138960
   2.9372040  32.3166300  28.1290500   2.3183480  32.7723800  27.5584940
   3.7923820  32.4717760  27.7280200   2.1310290  28.3005290  29.7357540
   2.0618570  27.3595230  29.5746670   2.8930150  28.3906700  30.3080110
   3.1615460  21.1075670  29.9626470   3.5380280  20.2347550  29.8500140
   3.0634970  21.4434370  29.0716910   6.9439580  18.6026110  26.8954810
   7.7649200  18.1122680  26.9380290   6.9773660  19.1923770  27.6486650
  11.2339130  20.6192860  33.4598440  10.5291300  21.0074570  32.9413550
  11.4997050  21.3143150  34.0619370   3.8035390  27.2005540  25.5222410
   3.1852660  27.6654990  24.9585130   4.3158640  27.8933020  25.9391920
   7.1801060  20.5426490  29.6682350   6.4756630  20.8311380  30.2485460
   7.5413220  21.3526600  29.3081910   8.7963840  30.1601620  31.9309830
   8.1127360  30.8300730  31.9226500   9.3358130  30.3582270  31.1654690
  10.2487980  19.9881280  30.0591560   9.3012890  20.0220260  30.1906990
  10.5737970  20.8020230  30.4440920   6.3322580  32.0045750  30.6455010
   6.3449740  31.6008040  29.7777270   5.7797800  32.7793040  30.5416440
   7.6268000  28.7261970  25.7345180   7.5164330  27.7836300  25.8594600
   7.6236250  29.0877610  26.6207940   5.7308020  26.9075590  31.9737620
   6.1476810  26.6935700  31.1391080   6.4547840  27.1648380  32.5446240
   3.1688280  24.3527290  25.0907670   2.2417560  24.2864670  25.3196140
   3.3213100  25.2907420  24.9762910   3.1557360  20.6244290  22.0874830
   2.2161030  20.7858250  22.1727290   3.4740620  21.3429970  21.5410820
   9.6770120  25.3062810  32.0653860   8.8488750  25.3755900  31.5903990
  10.2720600  25.8917120  31.5969690   7.1985570  25.9147590  25.5942920
   6.5797990  25.5767140  24.9469220   7.1810020  25.2707350  26.3022110
   6.6412130  22.0932130  33.0108730   6.2283310  22.9185840  33.2648720
   5.9088080  21.5077170  32.8185090   7.3312230  32.1391460  33.6989710
   6.8542790  32.9463650  33.5062320   6.6474020  31.4869790  33.8515920
   5.3750270  25.1534400  22.6015670   5.8143550  24.3156830  22.4553490
   6.0878690  25.7863800  22.6879810   3.4845650  30.0930470  26.5696910
   3.9241560  30.8354800  26.1552300   3.4232540  30.3357040  27.4935870
   8.9567410  16.4077210  20.9156710   8.6440070  16.5004040  21.8155780
   9.7179880  16.9858240  20.8654140  10.9111440  31.9003400  38.7681100
  11.3871160  32.3786290  39.4470180  11.5318600  31.8320890  38.0426600
  10.3144690  29.0916250  35.9281110  10.4407750  28.8528130  35.0098290
  10.3566070  28.2600790  36.4003190   4.1761430  32.7944250  34.4975920
   4.6906100  32.7052260  35.2998350   3.3330510  33.1403950  34.7903830
   6.1515830  33.0799590  23.9259920   5.9916970  32.7902530  24.8241750
   5.9862540  32.3039720  23.3905150   5.8541960  30.5887150  22.4857920
   5.1607120  30.5864440  21.8260200   6.5964820  30.1646470  22.0552090
   5.4191890  32.2149860  26.5606410   5.8748840  31.4339240  26.8745030
   5.7584410  32.9256680  27.1047590  10.1668700  21.1448710  36.8930850
   9.5512970  21.6528380  36.3646310   9.8465120  20.2447040  36.8356790
   2.2283020  19.9840600  34.3593040   1.7662390  20.1923620  35.1712980
   1.8261130  19.1699950  34.0563710   7.2287530  21.2049550  35.4889700
   6.3781120  20.9055300  35.8098770   7.0689320  21.4491560  34.5773520
   4.3237240  22.7051300  37.5888490   4.6490650  21.8715050  37.2490720
   5.1117570  23.2279820  37.7366820   4.9625190  22.2469020  25.0829620
   4.3634080  22.9704820  24.8993240   5.5104800  22.1845800  24.3006070
   3.5690060  20.8832560  27.1132900   3.9619630  21.2004760  26.3001590
   3.9306910  20.0044440  27.2277420   4.1545200  23.4738310  31.2083680
   3.4226320  23.9825120  31.5573780   3.7569540  22.6568290  30.9072460
   4.6171110  18.9271990  30.6206620   4.6343850  19.3780640  31.4648470
   4.3686690  18.0277630  30.8340060   8.0441860  16.3404170  36.4593000
   8.3687630  15.6093830  36.9850980   8.0798370  16.0217810  35.5573990
   7.9699700  26.4529280  30.0679030   8.6898820  26.9484570  29.6775140
   7.7681520  25.7747170  29.4232900   3.4309640  17.8467240  24.2108420
   2.6174250  17.3480410  24.1353730   3.2371590  18.6865490  23.7944770
   3.3518500  26.5238340  35.9548030   3.2855810  25.6034010  35.7005620
   2.7223640  26.6213780  36.6692670   6.1458030  22.2186890  22.5070580
   7.0337650  22.5304120  22.3321920   6.1163120  21.3459140  22.1151160
   3.2835230  29.3458910  35.7051830   3.2979770  28.4139870  35.4870740
   2.5760330  29.4318670  36.3441600   8.4172300  23.5298730  21.9750440
   8.3336020  23.9612950  21.1246880   9.1366490  23.9897080  22.4077260
   9.4946440  25.9866250  35.0520410   8.7694630  26.5795030  34.8549800
  10.0221900  25.9789790  34.2533780   9.4459550  30.3840990  24.7032570
   8.8035710  29.7296610  24.9776290   9.0590210  30.7896080  23.9273240
   5.0246030  27.7126420  28.5504260   5.3769850  27.1154550  27.8905630
   4.1408360  27.3870650  28.7212510   2.7169130  30.9876480  32.7992330
   3.3611350  31.1935860  33.4765750   3.0798570  30.2264880  32.3463180
   3.9901210  28.9908830  31.5169780   4.6323440  28.2901990  31.6301950
   4.5150560  29.7707270  31.3366670   7.8356930  29.2757450  21.2408920
   7.6094510  28.5587890  21.8333560   7.4453130  29.0269890  20.4030670
   5.7638830  29.7903730  34.7205840   6.0995070  30.3770420  35.3983760
   4.8439170  29.6596440  34.9503630   7.4173180  27.1929390  22.9023080
   7.1294880  27.6542080  23.6900960   8.2125350  26.7327160  23.1707300
   4.8081010  20.0721220  33.2530700   5.1761830  19.2516430  33.5810270
   3.9479210  20.1323110  33.6686350   8.1743040  19.0278160  24.0618260
   7.5456200  19.1323830  23.3476490   7.6794960  19.2474940  24.8512140
   2.6201180  30.7483750  21.4952240   2.7213160  30.5447740  20.5654220
   1.7202920  30.4942030  21.7000020   1.7683000  22.7260810  33.4768670
   2.2668250  23.2006630  34.1420520   1.9105950  21.8024330  33.6838700
   4.1742500  18.0314770  26.9171930   4.0510280  18.0500900  25.9681440
   5.1227060  18.0793710  27.0370330   8.9749860  18.9428770  34.3197060
   8.4723460  19.6834170  34.6590870   9.7906520  19.3312770  34.0033850
   7.2671870  24.1861950  27.7658420   6.3262010  24.2012180  27.9406110
   7.5815940  23.3997910  28.2118720   9.2697450  31.3570800  29.4412680
   9.3944870  32.1801970  29.9136490  10.1363010  31.1461530  29.0936830
   4.5837890  28.7427950  38.2490800   3.9776050  28.7659550  37.5086550
   4.2792000  28.0110990  38.7858050   6.0138260  32.4708240  36.8600210
   6.9660010  32.3866260  36.8100450   5.8666480  33.1349950  37.5334000
   8.9047460  31.8502450  22.3592120   8.6188970  31.4367590  21.5446300
   8.7067010  32.7790160  22.2392640   3.6097420  26.9055760  21.4039720
   3.0607520  27.3525060  22.0482460   4.2316680  26.4005010  21.9277390
   7.6632360  28.2597860  37.3361980   8.4041830  28.5973620  36.8329440
   6.9005040  28.4289920  36.7831750   1.7900180  24.8884290  20.5482120
   2.3105840  24.1733310  20.1823270   2.4368580  25.5270160  20.8482630
   6.3378020  26.3112690  35.8717190   6.7519040  26.4657770  36.7207610
   5.4029020  26.4367910  36.0342970   6.8100190  23.6508850  37.8756340
   7.3920960  22.8961170  37.7876820   6.9861960  24.1816290  37.0987820
   3.4357150  23.9949350  35.2250960   3.5553360  23.3990490  35.9645800
   4.2951150  24.0319040  34.8052260   5.7745050  24.5486540  33.8013470
   5.2480270  25.0729160  33.1978610   6.1176390  25.1813930  34.4323200
   5.0219350  20.1536510  36.7159800   4.3334870  19.4918050  36.6509790
   5.7425370  19.7074780  37.1608260   5.6519750  16.7488140  22.7750060
   5.9322040  15.9056040  23.1309480   4.8785480  16.9811250  23.2888810
   2.3548210  32.9695900  22.8383860   3.2499000  33.3080870  22.8602620
   2.3865840  32.2475310  22.2108140   9.3342560  31.4999570  35.5450060
   8.7344550  31.5592130  34.8013980   9.4636460  30.5604550  35.6746910
  10.5744010  29.2417390  20.8819770   9.7436970  29.3094040  21.3527000
  10.7515840  30.1321510  20.5786630  10.0300470  25.9864870  23.3853970
  10.7919380  26.5561520  23.4913660  10.0454840  25.4192070  24.1562280
  11.0360440  26.8414970  28.2295900  11.4069270  26.0582290  27.8231870
  11.6762370  27.5304070  28.0513200   8.0194200  28.2251550  33.6426220
   7.2054040  28.6548710  33.9052010   8.4268400  28.8369960  33.0295270
  10.0819640  26.2799240  20.5426490  10.3568480  27.1878120  20.4145710
   9.8930380  26.2161770  21.4788480   6.4795250  19.3044090  21.8380120
   6.8980130  19.1175070  20.9976780   6.1731310  18.4523140  22.1483050
   9.9784980  24.2168230  25.5355920   9.6028580  23.4496160  25.1037210
   9.2488100  24.5990930  26.0230850   9.3684600  23.3639750  35.1695440
   9.1370690  23.1352500  34.2693390   9.6289150  24.2839300  35.1240330
   7.8072670  18.5896180  37.9475140   8.6842850  18.5979580  38.3309140
   7.8193510  17.8527020  37.3367490   9.2535940  22.4425720  28.8363160
   9.7773420  21.9488370  28.2053330   9.8395360  22.5776080  29.5810730
   9.4325660  22.5265590  32.3582710   8.4828370  22.4929130  32.4727700
   9.6138670  23.4365700  32.1232480   8.7435910  21.6999070  24.7755570
   9.2395030  21.4669940  25.5604450   8.5451980  20.8610910  24.3593210
  10.1723070  20.3360020  27.3093250  10.0622350  20.1816060  28.2475520
  10.9330660  19.8080960  27.0668660   8.5188790  16.2754150  33.7676250
   9.1561010  16.8888290  34.1335440   8.6663680  16.3114810  32.8225480
  11.0613340  18.1667940  20.5499390  11.9862650  18.0349120  20.3417680
  11.0389130  18.2460760  21.5035840  11.1351830  18.9378600  23.1756100
  10.3403330  18.8723720  23.7049010  11.3395110  19.8729240  23.1641450
   8.0770250  32.9770150  27.1694490   8.6729320  32.6554720  26.4928910
   8.3348400  32.5041970  27.9607760   1.8893270  17.4280340  36.6751350
   1.8282160  18.0202170  37.4246760   2.8293650  17.3206300  36.5301610
   4.5267830  17.0850400  36.3143640   5.1408240  17.4029690  35.6524720
   5.0717390  16.5998990  36.9339500  10.9443010  32.9842030  33.7205480
  10.4501290  33.3810900  33.0032610  10.3356300  32.3591240  34.1142760
   5.2675870  15.6482540  32.6412930   4.3935710  15.9817650  32.4385860
   5.1586620  15.1755720  33.4664800   6.1747850  17.8553410  34.0254650
   5.8461210  17.0405170  33.6456380   7.1230150  17.8123220  33.9020340
   8.6282460  33.6265450  30.9992220   8.1685430  34.3781260  30.6250240
   7.9994920  32.9071920  30.9407020   1.7973680  32.8262180  31.0009330
   2.0851490  32.5716480  30.1242340   2.3096900  32.2739540  31.5914900
   3.0150690  16.5652380  31.5805840   2.2322480  17.0397880  31.8602600
   2.7213620  15.6607210  31.4719020   7.5671760  17.2675480  29.6254930
   8.0079850  17.2120580  28.7776530   7.2979350  18.1833490  29.6965110
   9.4310330  16.8990720  27.6363750   9.3698730  15.9551940  27.4894770
  10.2102360  17.0070810  28.1817210   5.4029890  15.6481580  28.3304940
   6.0059260  16.2201790  28.8053460   4.6622880  16.2121020  28.1078840
   8.5464490  16.0503140  23.6045220   8.7415120  16.9486590  23.8712650
   7.7594360  15.8190220  24.0978170   1.8646040  33.7478280  38.3677530
   2.7913350  33.5122550  38.4113490   1.8496470  34.5750280  37.8863560
  10.0991100  33.2903850  25.3651780  10.2743290  32.6041590  24.7212700
   9.4012670  33.8150900  24.9728450   5.6525110  15.8276610  38.7099880
   5.5390560  16.1471220  39.6051400   6.4694850  16.2289120  38.4137160
   8.4323600  32.9748140  38.1918570   9.2248920  32.4797370  37.9844530
   8.7256750  33.6538280  38.7994180   4.5583260  23.8469080   9.0734620
   4.4777310  22.9323690   8.8026330   4.1447680  24.3436150   8.3674330
   2.6901300  25.6248100  10.9543890   1.9143400  25.1448540  11.2442460
   3.3414230  24.9453750  10.7800050   6.7108730  30.0308290   9.7343020
   6.2490260  29.2595530  10.0630190   7.5234280  30.0574360  10.2395470
   2.9372040  32.3166300   9.3547010   2.3183480  32.7723800   8.7841450
   3.7923820  32.4717760   8.9536710   2.1310290  28.3005290  10.9614050
   2.0618570  27.3595230  10.8003180   2.8930150  28.3906700  11.5336620
   3.1615460  21.1075670  11.1882980   3.5380280  20.2347550  11.0756650
   3.0634970  21.4434370  10.2973420   6.9439580  18.6026110   8.1211320
   7.7649200  18.1122680   8.1636800   6.9773660  19.1923770   8.8743160
  11.2339130  20.6192860  14.6854950  10.5291300  21.0074570  14.1670060
  11.4997050  21.3143150  15.2875880   3.8035390  27.2005540   6.7478920
   3.1852660  27.6654990   6.1841640   4.3158640  27.8933020   7.1648430
   7.1801060  20.5426490  10.8938860   6.4756630  20.8311380  11.4741970
   7.5413220  21.3526600  10.5338420   8.7963840  30.1601620  13.1566340
   8.1127360  30.8300730  13.1483010   9.3358130  30.3582270  12.3911200
  10.2487980  19.9881280  11.2848070   9.3012890  20.0220260  11.4163500
  10.5737970  20.8020230  11.6697430   6.3322580  32.0045750  11.8711520
   6.3449740  31.6008040  11.0033780   5.7797800  32.7793040  11.7672950
   7.6268000  28.7261970   6.9601690   7.5164330  27.7836300   7.0851110
   7.6236250  29.0877610   7.8464450   5.7308020  26.9075590  13.1994130
   6.1476810  26.6935700  12.3647590   6.4547840  27.1648380  13.7702750
   3.1688280  24.3527290   6.3164180   2.2417560  24.2864670   6.5452650
   3.3213100  25.2907420   6.2019420   3.1557360  20.6244290   3.3131340
   2.2161030  20.7858250   3.3983800   3.4740620  21.3429970   2.7667330
   9.6770120  25.3062810  13.2910370   8.8488750  25.3755900  12.8160500
  10.2720600  25.8917120  12.8226200   7.1985570  25.9147590   6.8199430
   6.5797990  25.5767140   6.1725730   7.1810020  25.2707350   7.5278620
   6.6412130  22.0932130  14.2365240   6.2283310  22.9185840  14.4905230
   5.9088080  21.5077170  14.0441600   7.3312230  32.1391460  14.9246220
   6.8542790  32.9463650  14.7318830   6.6474020  31.4869790  15.0772430
   5.3750270  25.1534400   3.8272180   5.8143550  24.3156830   3.6810000
   6.0878690  25.7863800   3.9136320   3.4845650  30.0930470   7.7953420
   3.9241560  30.8354800   7.3808810   3.4232540  30.3357040   8.7192380
   8.9567410  16.4077210   2.1413220   8.6440070  16.5004040   3.0412290
   9.7179880  16.9858240   2.0910650  10.9111440  31.9003400  19.9937610
  11.3871160  32.3786290  20.6726690  11.5318600  31.8320890  19.2683110
  10.3144690  29.0916250  17.1537620  10.4407750  28.8528130  16.2354800
  10.3566070  28.2600790  17.6259700   4.1761430  32.7944250  15.7232430
   4.6906100  32.7052260  16.5254860   3.3330510  33.1403950  16.0160340
   6.1515830  33.0799590   5.1516430   5.9916970  32.7902530   6.0498260
   5.9862540  32.3039720   4.6161660   5.8541960  30.5887150   3.7114430
   5.1607120  30.5864440   3.0516710   6.5964820  30.1646470   3.2808600
   5.4191890  32.2149860   7.7862920   5.8748840  31.4339240   8.1001540
   5.7584410  32.9256680   8.3304100  10.1668700  21.1448710  18.1187360
   9.5512970  21.6528380  17.5902820   9.8465120  20.2447040  18.0613300
   2.2283020  19.9840600  15.5849550   1.7662390  20.1923620  16.3969490
   1.8261130  19.1699950  15.2820220   7.2287530  21.2049550  16.7146210
   6.3781120  20.9055300  17.0355280   7.0689320  21.4491560  15.8030030
   4.3237240  22.7051300  18.8145000   4.6490650  21.8715050  18.4747230
   5.1117570  23.2279820  18.9623330   4.9625190  22.2469020   6.3086130
   4.3634080  22.9704820   6.1249750   5.5104800  22.1845800   5.5262580
   3.5690060  20.8832560   8.3389410   3.9619630  21.2004760   7.5258100
   3.9306910  20.0044440   8.4533930   4.1545200  23.4738310  12.4340190
   3.4226320  23.9825120  12.7830290   3.7569540  22.6568290  12.1328970
   4.6171110  18.9271990  11.8463130   4.6343850  19.3780640  12.6904980
   4.3686690  18.0277630  12.0596570   8.0441860  16.3404170  17.6849510
   8.3687630  15.6093830  18.2107490   8.0798370  16.0217810  16.7830500
   7.9699700  26.4529280  11.2935540   8.6898820  26.9484570  10.9031650
   7.7681520  25.7747170  10.6489410   3.4309640  17.8467240   5.4364930
   2.6174250  17.3480410   5.3610240   3.2371590  18.6865490   5.0201280
   3.3518500  26.5238340  17.1804540   3.2855810  25.6034010  16.9262130
   2.7223640  26.6213780  17.8949180   6.1458030  22.2186890   3.7327090
   7.0337650  22.5304120   3.5578430   6.1163120  21.3459140   3.3407670
   3.2835230  29.3458910  16.9308340   3.2979770  28.4139870  16.7127250
   2.5760330  29.4318670  17.5698110   8.4172300  23.5298730   3.2006950
   8.3336020  23.9612950   2.3503390   9.1366490  23.9897080   3.6333770
   9.4946440  25.9866250  16.2776920   8.7694630  26.5795030  16.0806310
  10.0221900  25.9789790  15.4790290   9.4459550  30.3840990   5.9289080
   8.8035710  29.7296610   6.2032800   9.0590210  30.7896080   5.1529750
   5.0246030  27.7126420   9.7760770   5.3769850  27.1154550   9.1162140
   4.1408360  27.3870650   9.9469020   2.7169130  30.9876480  14.0248840
   3.3611350  31.1935860  14.7022260   3.0798570  30.2264880  13.5719690
   3.9901210  28.9908830  12.7426290   4.6323440  28.2901990  12.8558460
   4.5150560  29.7707270  12.5623180   5.7638830  29.7903730  15.9462350
   6.0995070  30.3770420  16.6240270   4.8439170  29.6596440  16.1760140
   7.4173180  27.1929390   4.1279590   7.1294880  27.6542080   4.9157470
   8.2125350  26.7327160   4.3963810   4.8081010  20.0721220  14.4787210
   5.1761830  19.2516430  14.8066780   3.9479210  20.1323110  14.8942860
   8.1743040  19.0278160   5.2874770   7.5456200  19.1323830   4.5733000
   7.6794960  19.2474940   6.0768650   2.6201180  30.7483750   2.7208750
   2.7213160  30.5447740   1.7910730   1.7202920  30.4942030   2.9256530
   1.7683000  22.7260810  14.7025180   2.2668250  23.2006630  15.3677030
   1.9105950  21.8024330  14.9095210   4.1742500  18.0314770   8.1428440
   4.0510280  18.0500900   7.1937950   5.1227060  18.0793710   8.2626840
   8.9749860  18.9428770  15.5453570   8.4723460  19.6834170  15.8847380
   9.7906520  19.3312770  15.2290360   7.2671870  24.1861950   8.9914930
   6.3262010  24.2012180   9.1662620   7.5815940  23.3997910   9.4375230
   9.2697450  31.3570800  10.6669190   9.3944870  32.1801970  11.1393000
  10.1363010  31.1461530  10.3193340   4.5837890  28.7427950  19.4747310
   3.9776050  28.7659550  18.7343060   4.2792000  28.0110990  20.0114560
   6.0138260  32.4708240  18.0856720   6.9660010  32.3866260  18.0356960
   5.8666480  33.1349950  18.7590510   8.9047460  31.8502450   3.5848630
   8.6188970  31.4367590   2.7702810   8.7067010  32.7790160   3.4649150
   3.6097420  26.9055760   2.6296230   3.0607520  27.3525060   3.2738970
   4.2316680  26.4005010   3.1533900   7.6632360  28.2597860  18.5618490
   8.4041830  28.5973620  18.0585950   6.9005040  28.4289920  18.0088260
   6.3378020  26.3112690  17.0973700   6.7519040  26.4657770  17.9464120
   5.4029020  26.4367910  17.2599480   6.8100190  23.6508850  19.1012850
   7.3920960  22.8961170  19.0133330   6.9861960  24.1816290  18.3244330
   3.4357150  23.9949350  16.4507470   3.5553360  23.3990490  17.1902310
   4.2951150  24.0319040  16.0308770   5.7745050  24.5486540  15.0269980
   5.2480270  25.0729160  14.4235120   6.1176390  25.1813930  15.6579710
   5.0219350  20.1536510  17.9416310   4.3334870  19.4918050  17.8766300
   5.7425370  19.7074780  18.3864770   5.6519750  16.7488140   4.0006570
   5.9322040  15.9056040   4.3565990   4.8785480  16.9811250   4.5145320
   2.3548210  32.9695900   4.0640370   3.2499000  33.3080870   4.0859130
   2.3865840  32.2475310   3.4364650   9.3342560  31.4999570  16.7706570
   8.7344550  31.5592130  16.0270490   9.4636460  30.5604550  16.9003420
  10.5744010  29.2417390   2.1076280   9.7436970  29.3094040   2.5783510
  10.7515840  30.1321510   1.8043140  10.0300470  25.9864870   4.6110480
  10.7919380  26.5561520   4.7170170  10.0454840  25.4192070   5.3818790
  11.0360440  26.8414970   9.4552410  11.4069270  26.0582290   9.0488380
  11.6762370  27.5304070   9.2769710   8.0194200  28.2251550  14.8682730
   7.2054040  28.6548710  15.1308520   8.4268400  28.8369960  14.2551780
  10.0819640  26.2799240   1.7683000  10.3568480  27.1878120   1.6402220
   9.8930380  26.2161770   2.7044990   6.4795250  19.3044090   3.0636630
   6.8980130  19.1175070   2.2233290   6.1731310  18.4523140   3.3739560
   9.9784980  24.2168230   6.7612430   9.6028580  23.4496160   6.3293720
   9.2488100  24.5990930   7.2487360   9.3684600  23.3639750  16.3951950
   9.1370690  23.1352500  15.4949900   9.6289150  24.2839300  16.3496840
   7.8072670  18.5896180  19.1731650   8.6842850  18.5979580  19.5565650
   7.8193510  17.8527020  18.5624000   9.2535940  22.4425720  10.0619670
   9.7773420  21.9488370   9.4309840   9.8395360  22.5776080  10.8067240
   9.4325660  22.5265590  13.5839220   8.4828370  22.4929130  13.6984210
   9.6138670  23.4365700  13.3488990   8.7435910  21.6999070   6.0012080
   9.2395030  21.4669940   6.7860960   8.5451980  20.8610910   5.5849720
  10.1723070  20.3360020   8.5349760  10.0622350  20.1816060   9.4732030
  10.9330660  19.8080960   8.2925170   8.5188790  16.2754150  14.9932760
   9.1561010  16.8888290  15.3591950   8.6663680  16.3114810  14.0481990
  11.1351830  18.9378600   4.4012610  10.3403330  18.8723720   4.9305520
  11.3395110  19.8729240   4.3897960   8.0770250  32.9770150   8.3951000
   8.6729320  32.6554720   7.7185420   8.3348400  32.5041970   9.1864270
   1.8893270  17.4280340  17.9007860   1.8282160  18.0202170  18.6503270
   2.8293650  17.3206300  17.7558120   4.5267830  17.0850400  17.5400150
   5.1408240  17.4029690  16.8781230   5.0717390  16.5998990  18.1596010
  10.9443010  32.9842030  14.9461990  10.4501290  33.3810900  14.2289120
  10.3356300  32.3591240  15.3399270   5.2675870  15.6482540  13.8669440
   4.3935710  15.9817650  13.6642370   5.1586620  15.1755720  14.6921310
   6.1747850  17.8553410  15.2511160   5.8461210  17.0405170  14.8712890
   7.1230150  17.8123220  15.1276850   8.6282460  33.6265450  12.2248730
   8.1685430  34.3781260  11.8506750   7.9994920  32.9071920  12.1663530
   1.7973680  32.8262180  12.2265840   2.0851490  32.5716480  11.3498850
   2.3096900  32.2739540  12.8171410   3.0150690  16.5652380  12.8062350
   2.2322480  17.0397880  13.0859110   2.7213620  15.6607210  12.6975530
   7.5671760  17.2675480  10.8511440   8.0079850  17.2120580  10.0033040
   7.2979350  18.1833490  10.9221620   9.4310330  16.8990720   8.8620260
   9.3698730  15.9551940   8.7151280  10.2102360  17.0070810   9.4073720
   5.4029890  15.6481580   9.5561450   6.0059260  16.2201790  10.0309970
   4.6622880  16.2121020   9.3335350   8.5464490  16.0503140   4.8301730
   8.7415120  16.9486590   5.0969160   7.7594360  15.8190220   5.3234680
   1.8646040  33.7478280  19.5934040   2.7913350  33.5122550  19.6370000
   1.8496470  34.5750280  19.1120070  10.0991100  33.2903850   6.5908290
  10.2743290  32.6041590   5.9469210   9.4012670  33.8150900   6.1984960
   5.6525110  15.8276610  19.9356390   5.5390560  16.1471220  20.8307910
   6.4694850  16.2289120  19.6393670   8.4323600  32.9748140  19.4175080
   9.2248920  32.4797370  19.2101040   8.7256750  33.6538280  20.0250690
   4.5583260   5.0725590  46.6221600   4.4777310   4.1580200  46.3513310
   4.1447680   5.5692660  45.9161310   2.6901300   6.8504610  48.5030870
   1.9143400   6.3705050  48.7929440   3.3414230   6.1710260  48.3287030
   6.7108730  11.2564800  47.2830000   6.2490260  10.4852040  47.6117170
   7.5234280  11.2830870  47.7882450   2.9372040  13.5422810  46.9033990
   2.3183480  13.9980310  46.3328430   3.7923820  13.6974270  46.5023690
   2.1310290   9.5261800  48.5101030   2.0618570   8.5851740  48.3490160
   2.8930150   9.6163210  49.0823600   3.1615460   2.3332180  48.7369960
   3.5380280   1.4604060  48.6243630   3.0634970   2.6690880  47.8460400
  11.2339130   1.8449370  52.2341930  10.5291300   2.2331080  51.7157040
  11.4997050   2.5399660  52.8362860   3.8035390   8.4262050  44.2965900
   3.1852660   8.8911500  43.7328620   4.3158640   9.1189530  44.7135410
   7.1801060   1.7683000  48.4425840   6.4756630   2.0567890  49.0228950
   7.5413220   2.5783110  48.0825400   8.7963840  11.3858130  50.7053320
   8.1127360  12.0557240  50.6969990   9.3358130  11.5838780  49.9398180
   6.3322580  13.2302260  49.4198500   6.3449740  12.8264550  48.5520760
   5.7797800  14.0049550  49.3159930   7.6268000   9.9518480  44.5088670
   7.5164330   9.0092810  44.6338090   7.6236250  10.3134120  45.3951430
   5.7308020   8.1332100  50.7481110   6.1476810   7.9192210  49.9134570
   6.4547840   8.3904890  51.3189730   3.1688280   5.5783800  43.8651160
   2.2417560   5.5121180  44.0939630   3.3213100   6.5163930  43.7506400
   3.1557360   1.8500800  40.8618320   2.2161030   2.0114760  40.9470780
   3.4740620   2.5686480  40.3154310   9.6770120   6.5319320  50.8397350
   8.8488750   6.6012410  50.3647480  10.2720600   7.1173630  50.3713180
   7.1985570   7.1404100  44.3686410   6.5797990   6.8023650  43.7212710
   7.1810020   6.4963860  45.0765600   6.6412130   3.3188640  51.7852220
   6.2283310   4.1442350  52.0392210   5.9088080   2.7333680  51.5928580
   7.3312230  13.3647970  52.4733200   6.8542790  14.1720160  52.2805810
   6.6474020  12.7126300  52.6259410   5.3750270   6.3790910  41.3759160
   5.8143550   5.5413340  41.2296980   6.0878690   7.0120310  41.4623300
   3.4845650  11.3186980  45.3440400   3.9241560  12.0611310  44.9295790
   3.4232540  11.5613550  46.2679360  10.3144690  10.3172760  54.7024600
  10.4407750  10.0784640  53.7841780  10.3566070   9.4857300  55.1746680
   4.1761430  14.0200760  53.2719410   4.6906100  13.9308770  54.0741840
   3.3330510  14.3660460  53.5647320   6.1515830  14.3056100  42.7003410
   5.9916970  14.0159040  43.5985240   5.9862540  13.5296230  42.1648640
   5.8541960  11.8143660  41.2601410   5.1607120  11.8120950  40.6003690
   6.5964820  11.3902980  40.8295580   5.4191890  13.4406370  45.3349900
   5.8748840  12.6595750  45.6488520   5.7584410  14.1513190  45.8791080
  10.1668700   2.3705220  55.6674340   9.5512970   2.8784890  55.1389800
   9.8465120   1.4703550  55.6100280   7.2287530   2.4306060  54.2633190
   6.3781120   2.1311810  54.5842260   7.0689320   2.6748070  53.3517010
   4.3237240   3.9307810  56.3631980   4.6490650   3.0971560  56.0234210
   5.1117570   4.4536330  56.5110310   4.9625190   3.4725530  43.8573110
   4.3634080   4.1961330  43.6736730   5.5104800   3.4102310  43.0749560
   4.1545200   4.6994820  49.9827170   3.4226320   5.2081630  50.3317270
   3.7569540   3.8824800  49.6815950   7.9699700   7.6785790  48.8422520
   8.6898820   8.1741080  48.4518630   7.7681520   7.0003680  48.1976390
   3.3518500   7.7494850  54.7291520   3.2855810   6.8290520  54.4749110
   2.7223640   7.8470290  55.4436160   6.1458030   3.4443400  41.2814070
   7.0337650   3.7560630  41.1065410   6.1163120   2.5715650  40.8894650
   3.2835230  10.5715420  54.4795320   3.2979770   9.6396380  54.2614230
   2.5760330  10.6575180  55.1185090   8.4172300   4.7555240  40.7493930
   8.3336020   5.1869460  39.8990370   9.1366490   5.2153590  41.1820750
   9.4946440   7.2122760  53.8263900   8.7694630   7.8051540  53.6293290
  10.0221900   7.2046300  53.0277270   9.4459550  11.6097500  43.4776060
   8.8035710  10.9553120  43.7519780   9.0590210  12.0152590  42.7016730
   5.0246030   8.9382930  47.3247750   5.3769850   8.3411060  46.6649120
   4.1408360   8.6127160  47.4956000   2.7169130  12.2132990  51.5735820
   3.3611350  12.4192370  52.2509240   3.0798570  11.4521390  51.1206670
   3.9901210  10.2165340  50.2913270   4.6323440   9.5158500  50.4045440
   4.5150560  10.9963780  50.1110160   7.8356930  10.5013960  40.0152410
   7.6094510   9.7844400  40.6077050   7.4453130  10.2526400  39.1774160
   5.7638830  11.0160240  53.4949330   6.0995070  11.6026930  54.1727250
   4.8439170  10.8852950  53.7247120   7.4173180   8.4185900  41.6766570
   7.1294880   8.8798590  42.4644450   8.2125350   7.9583670  41.9450790
   2.6201180  11.9740260  40.2695730   2.7213160  11.7704250  39.3397710
   1.7202920  11.7198540  40.4743510   1.7683000   3.9517320  52.2512160
   2.2668250   4.4263140  52.9164010   1.9105950   3.0280840  52.4582190
   7.2671870   5.4118460  46.5401910   6.3262010   5.4268690  46.7149600
   7.5815940   4.6254420  46.9862210   9.2697450  12.5827310  48.2156170
   9.3944870  13.4058480  48.6879980  10.1363010  12.3718040  47.8680320
   6.0138260  13.6964750  55.6343700   6.9660010  13.6122770  55.5843940
   5.8666480  14.3606460  56.3077490   8.9047460  13.0758960  41.1335610
   8.6188970  12.6624100  40.3189790   8.7067010  14.0046670  41.0136130
   3.6097420   8.1312270  40.1783210   3.0607520   8.5781570  40.8225950
   4.2316680   7.6261520  40.7020880   7.6632360   9.4854370  56.1105470
   8.4041830   9.8230130  55.6072930   6.9005040   9.6546430  55.5575240
   1.7900180   6.1140800  39.3225610   2.3105840   5.3989820  38.9566760
   2.4368580   6.7526670  39.6226120   6.3378020   7.5369200  54.6460680
   6.7519040   7.6914280  55.4951100   5.4029020   7.6624420  54.8086460
   6.8100190   4.8765360  56.6499830   7.3920960   4.1217680  56.5620310
   6.9861960   5.4072800  55.8731310   3.4357150   5.2205860  53.9994450
   3.5553360   4.6247000  54.7389290   4.2951150   5.2575550  53.5795750
   5.7745050   5.7743050  52.5756960   5.2480270   6.2985670  51.9722100
   6.1176390   6.4070440  53.2066690   2.3548210  14.1952410  41.6127350
   3.2499000  14.5337380  41.6346110   2.3865840  13.4731820  40.9851630
   9.3342560  12.7256080  54.3193550   8.7344550  12.7848640  53.5757470
   9.4636460  11.7861060  54.4490400  10.5744010  10.4673900  39.6563260
   9.7436970  10.5350550  40.1270490  10.7515840  11.3578020  39.3530120
  10.0300470   7.2121380  42.1597460  10.7919380   7.7818030  42.2657150
  10.0454840   6.6448580  42.9305770  11.0360440   8.0671480  47.0039390
  11.4069270   7.2838800  46.5975360  11.6762370   8.7560580  46.8256690
   8.0194200   9.4508060  52.4169710   7.2054040   9.8805220  52.6795500
   8.4268400  10.0626470  51.8038760  10.0819640   7.5055750  39.3169980
  10.3568480   8.4134630  39.1889200   9.8930380   7.4418280  40.2531970
   9.9784980   5.4424740  44.3099410   9.6028580   4.6752670  43.8780700
   9.2488100   5.8247440  44.7974340   9.3684600   4.5896260  53.9438930
   9.1370690   4.3609010  53.0436880   9.6289150   5.5095810  53.8983820
   9.2535940   3.6682230  47.6106650   9.7773420   3.1744880  46.9796820
   9.8395360   3.8032590  48.3554220   9.4325660   3.7522100  51.1326200
   8.4828370   3.7185640  51.2471190   9.6138670   4.6622210  50.8975970
   8.7435910   2.9255580  43.5499060   9.2395030   2.6926450  44.3347940
   8.5451980   2.0867420  43.1336700   8.0770250  14.2026660  45.9437980
   8.6729320  13.8811230  45.2672400   8.3348400  13.7298480  46.7351250
  10.9443010  14.2098540  52.4948970  10.4501290  14.6067410  51.7776100
  10.3356300  13.5847750  52.8886250   8.6282460  14.8521960  49.7735710
   8.1685430  15.6037770  49.3993730   7.9994920  14.1328430  49.7150510
   1.7973680  14.0518690  49.7752820   2.0851490  13.7972990  48.8985830
   2.3096900  13.4996050  50.3658390   1.8646040  14.9734790  57.1421020
   2.7913350  14.7379060  57.1856980   1.8496470  15.8006790  56.6607050
  10.0991100  14.5160360  44.1395270  10.2743290  13.8298100  43.4956190
   9.4012670  15.0407410  43.7471940   4.5583260   5.0725590  27.8478110
   4.4777310   4.1580200  27.5769820   4.1447680   5.5692660  27.1417820
   2.6901300   6.8504610  29.7287380   1.9143400   6.3705050  30.0185950
   3.3414230   6.1710260  29.5543540   6.7108730  11.2564800  28.5086510
   6.2490260  10.4852040  28.8373680   7.5234280  11.2830870  29.0138960
   2.9372040  13.5422810  28.1290500   2.3183480  13.9980310  27.5584940
   3.7923820  13.6974270  27.7280200   2.1310290   9.5261800  29.7357540
   2.0618570   8.5851740  29.5746670   2.8930150   9.6163210  30.3080110
   3.1615460   2.3332180  29.9626470   3.5380280   1.4604060  29.8500140
   3.0634970   2.6690880  29.0716910  11.2339130   1.8449370  33.4598440
  10.5291300   2.2331080  32.9413550  11.4997050   2.5399660  34.0619370
   3.8035390   8.4262050  25.5222410   3.1852660   8.8911500  24.9585130
   4.3158640   9.1189530  25.9391920   7.1801060   1.7683000  29.6682350
   6.4756630   2.0567890  30.2485460   7.5413220   2.5783110  29.3081910
   8.7963840  11.3858130  31.9309830   8.1127360  12.0557240  31.9226500
   9.3358130  11.5838780  31.1654690   6.3322580  13.2302260  30.6455010
   6.3449740  12.8264550  29.7777270   5.7797800  14.0049550  30.5416440
   7.6268000   9.9518480  25.7345180   7.5164330   9.0092810  25.8594600
   7.6236250  10.3134120  26.6207940   5.7308020   8.1332100  31.9737620
   6.1476810   7.9192210  31.1391080   6.4547840   8.3904890  32.5446240
   3.1688280   5.5783800  25.0907670   2.2417560   5.5121180  25.3196140
   3.3213100   6.5163930  24.9762910   3.1557360   1.8500800  22.0874830
   2.2161030   2.0114760  22.1727290   3.4740620   2.5686480  21.5410820
   9.6770120   6.5319320  32.0653860   8.8488750   6.6012410  31.5903990
  10.2720600   7.1173630  31.5969690   7.1985570   7.1404100  25.5942920
   6.5797990   6.8023650  24.9469220   7.1810020   6.4963860  26.3022110
   6.6412130   3.3188640  33.0108730   6.2283310   4.1442350  33.2648720
   5.9088080   2.7333680  32.8185090   7.3312230  13.3647970  33.6989710
   6.8542790  14.1720160  33.5062320   6.6474020  12.7126300  33.8515920
   5.3750270   6.3790910  22.6015670   5.8143550   5.5413340  22.4553490
   6.0878690   7.0120310  22.6879810   3.4845650  11.3186980  26.5696910
   3.9241560  12.0611310  26.1552300   3.4232540  11.5613550  27.4935870
  10.9111440  13.1259910  38.7681100  11.3871160  13.6042800  39.4470180
  11.5318600  13.0577400  38.0426600  10.3144690  10.3172760  35.9281110
  10.4407750  10.0784640  35.0098290  10.3566070   9.4857300  36.4003190
   4.1761430  14.0200760  34.4975920   4.6906100  13.9308770  35.2998350
   3.3330510  14.3660460  34.7903830   6.1515830  14.3056100  23.9259920
   5.9916970  14.0159040  24.8241750   5.9862540  13.5296230  23.3905150
   5.8541960  11.8143660  22.4857920   5.1607120  11.8120950  21.8260200
   6.5964820  11.3902980  22.0552090   5.4191890  13.4406370  26.5606410
   5.8748840  12.6595750  26.8745030   5.7584410  14.1513190  27.1047590
  10.1668700   2.3705220  36.8930850   9.5512970   2.8784890  36.3646310
   9.8465120   1.4703550  36.8356790   7.2287530   2.4306060  35.4889700
   6.3781120   2.1311810  35.8098770   7.0689320   2.6748070  34.5773520
   4.3237240   3.9307810  37.5888490   4.6490650   3.0971560  37.2490720
   5.1117570   4.4536330  37.7366820   4.9625190   3.4725530  25.0829620
   4.3634080   4.1961330  24.8993240   5.5104800   3.4102310  24.3006070
   4.1545200   4.6994820  31.2083680   3.4226320   5.2081630  31.5573780
   3.7569540   3.8824800  30.9072460   7.9699700   7.6785790  30.0679030
   8.6898820   8.1741080  29.6775140   7.7681520   7.0003680  29.4232900
   3.3518500   7.7494850  35.9548030   3.2855810   6.8290520  35.7005620
   2.7223640   7.8470290  36.6692670   6.1458030   3.4443400  22.5070580
   7.0337650   3.7560630  22.3321920   6.1163120   2.5715650  22.1151160
   3.2835230  10.5715420  35.7051830   3.2979770   9.6396380  35.4870740
   2.5760330  10.6575180  36.3441600   8.4172300   4.7555240  21.9750440
   8.3336020   5.1869460  21.1246880   9.1366490   5.2153590  22.4077260
   9.4946440   7.2122760  35.0520410   8.7694630   7.8051540  34.8549800
  10.0221900   7.2046300  34.2533780   9.4459550  11.6097500  24.7032570
   8.8035710  10.9553120  24.9776290   9.0590210  12.0152590  23.9273240
   5.0246030   8.9382930  28.5504260   5.3769850   8.3411060  27.8905630
   4.1408360   8.6127160  28.7212510   2.7169130  12.2132990  32.7992330
   3.3611350  12.4192370  33.4765750   3.0798570  11.4521390  32.3463180
   3.9901210  10.2165340  31.5169780   4.6323440   9.5158500  31.6301950
   4.5150560  10.9963780  31.3366670   7.8356930  10.5013960  21.2408920
   7.6094510   9.7844400  21.8333560   7.4453130  10.2526400  20.4030670
   5.7638830  11.0160240  34.7205840   6.0995070  11.6026930  35.3983760
   4.8439170  10.8852950  34.9503630   7.4173180   8.4185900  22.9023080
   7.1294880   8.8798590  23.6900960   8.2125350   7.9583670  23.1707300
   2.6201180  11.9740260  21.4952240   2.7213160  11.7704250  20.5654220
   1.7202920  11.7198540  21.7000020   1.7683000   3.9517320  33.4768670
   2.2668250   4.4263140  34.1420520   1.9105950   3.0280840  33.6838700
   7.2671870   5.4118460  27.7658420   6.3262010   5.4268690  27.9406110
   7.5815940   4.6254420  28.2118720   9.2697450  12.5827310  29.4412680
   9.3944870  13.4058480  29.9136490  10.1363010  12.3718040  29.0936830
   4.5837890   9.9684460  38.2490800   3.9776050   9.9916060  37.5086550
   4.2792000   9.2367500  38.7858050   6.0138260  13.6964750  36.8600210
   6.9660010  13.6122770  36.8100450   5.8666480  14.3606460  37.5334000
   8.9047460  13.0758960  22.3592120   8.6188970  12.6624100  21.5446300
   8.7067010  14.0046670  22.2392640   3.6097420   8.1312270  21.4039720
   3.0607520   8.5781570  22.0482460   4.2316680   7.6261520  21.9277390
   7.6632360   9.4854370  37.3361980   8.4041830   9.8230130  36.8329440
   6.9005040   9.6546430  36.7831750   1.7900180   6.1140800  20.5482120
   2.3105840   5.3989820  20.1823270   2.4368580   6.7526670  20.8482630
   6.3378020   7.5369200  35.8717190   6.7519040   7.6914280  36.7207610
   5.4029020   7.6624420  36.0342970   6.8100190   4.8765360  37.8756340
   7.3920960   4.1217680  37.7876820   6.9861960   5.4072800  37.0987820
   3.4357150   5.2205860  35.2250960   3.5553360   4.6247000  35.9645800
   4.2951150   5.2575550  34.8052260   5.7745050   5.7743050  33.8013470
   5.2480270   6.2985670  33.1978610   6.1176390   6.4070440  34.4323200
   2.3548210  14.1952410  22.8383860   3.2499000  14.5337380  22.8602620
   2.3865840  13.4731820  22.2108140   9.3342560  12.7256080  35.5450060
   8.7344550  12.7848640  34.8013980   9.4636460  11.7861060  35.6746910
  10.5744010  10.4673900  20.8819770   9.7436970  10.5350550  21.3527000
  10.7515840  11.3578020  20.5786630  10.0300470   7.2121380  23.3853970
  10.7919380   7.7818030  23.4913660  10.0454840   6.6448580  24.1562280
  11.0360440   8.0671480  28.2295900  11.4069270   7.2838800  27.8231870
  11.6762370   8.7560580  28.0513200   8.0194200   9.4508060  33.6426220
   7.2054040   9.8805220  33.9052010   8.4268400  10.0626470  33.0295270
  10.0819640   7.5055750  20.5426490  10.3568480   8.4134630  20.4145710
   9.8930380   7.4418280  21.4788480   9.9784980   5.4424740  25.5355920
   9.6028580   4.6752670  25.1037210   9.2488100   5.8247440  26.0230850
   9.3684600   4.5896260  35.1695440   9.1370690   4.3609010  34.2693390
   9.6289150   5.5095810  35.1240330   9.2535940   3.6682230  28.8363160
   9.7773420   3.1744880  28.2053330   9.8395360   3.8032590  29.5810730
   9.4325660   3.7522100  32.3582710   8.4828370   3.7185640  32.4727700
   9.6138670   4.6622210  32.1232480   8.7435910   2.9255580  24.7755570
   9.2395030   2.6926450  25.5604450   8.5451980   2.0867420  24.3593210
   8.0770250  14.2026660  27.1694490   8.6729320  13.8811230  26.4928910
   8.3348400  13.7298480  27.9607760  10.9443010  14.2098540  33.7205480
  10.4501290  14.6067410  33.0032610  10.3356300  13.5847750  34.1142760
   8.6282460  14.8521960  30.9992220   8.1685430  15.6037770  30.6250240
   7.9994920  14.1328430  30.9407020   1.7973680  14.0518690  31.0009330
   2.0851490  13.7972990  30.1242340   2.3096900  13.4996050  31.5914900
   1.8646040  14.9734790  38.3677530   2.7913350  14.7379060  38.4113490
   1.8496470  15.8006790  37.8863560  10.0991100  14.5160360  25.3651780
  10.2743290  13.8298100  24.7212700   9.4012670  15.0407410  24.9728450
   8.4323600  14.2004650  38.1918570   9.2248920  13.7053880  37.9844530
   8.7256750  14.8794790  38.7994180   4.5583260   5.0725590   9.0734620
   4.4777310   4.1580200   8.8026330   4.1447680   5.5692660   8.3674330
   2.6901300   6.8504610  10.9543890   1.9143400   6.3705050  11.2442460
   3.3414230   6.1710260  10.7800050   6.7108730  11.2564800   9.7343020
   6.2490260  10.4852040  10.0630190   7.5234280  11.2830870  10.2395470
   2.9372040  13.5422810   9.3547010   2.3183480  13.9980310   8.7841450
   3.7923820  13.6974270   8.9536710   2.1310290   9.5261800  10.9614050
   2.0618570   8.5851740  10.8003180   2.8930150   9.6163210  11.5336620
   3.1615460   2.3332180  11.1882980   3.5380280   1.4604060  11.0756650
   3.0634970   2.6690880  10.2973420  11.2339130   1.8449370  14.6854950
  10.5291300   2.2331080  14.1670060  11.4997050   2.5399660  15.2875880
   3.8035390   8.4262050   6.7478920   3.1852660   8.8911500   6.1841640
   4.3158640   9.1189530   7.1648430   7.1801060   1.7683000  10.8938860
   6.4756630   2.0567890  11.4741970   7.5413220   2.5783110  10.5338420
   8.7963840  11.3858130  13.1566340   8.1127360  12.0557240  13.1483010
   9.3358130  11.5838780  12.3911200   6.3322580  13.2302260  11.8711520
   6.3449740  12.8264550  11.0033780   5.7797800  14.0049550  11.7672950
   7.6268000   9.9518480   6.9601690   7.5164330   9.0092810   7.0851110
   7.6236250  10.3134120   7.8464450   5.7308020   8.1332100  13.1994130
   6.1476810   7.9192210  12.3647590   6.4547840   8.3904890  13.7702750
   3.1688280   5.5783800   6.3164180   2.2417560   5.5121180   6.5452650
   3.3213100   6.5163930   6.2019420   3.1557360   1.8500800   3.3131340
   2.2161030   2.0114760   3.3983800   3.4740620   2.5686480   2.7667330
   9.6770120   6.5319320  13.2910370   8.8488750   6.6012410  12.8160500
  10.2720600   7.1173630  12.8226200   7.1985570   7.1404100   6.8199430
   6.5797990   6.8023650   6.1725730   7.1810020   6.4963860   7.5278620
   6.6412130   3.3188640  14.2365240   6.2283310   4.1442350  14.4905230
   5.9088080   2.7333680  14.0441600   7.3312230  13.3647970  14.9246220
   6.8542790  14.1720160  14.7318830   6.6474020  12.7126300  15.0772430
   5.3750270   6.3790910   3.8272180   5.8143550   5.5413340   3.6810000
   6.0878690   7.0120310   3.9136320   3.4845650  11.3186980   7.7953420
   3.9241560  12.0611310   7.3808810   3.4232540  11.5613550   8.7192380
  10.9111440  13.1259910  19.9937610  11.3871160  13.6042800  20.6726690
  11.5318600  13.0577400  19.2683110  10.3144690  10.3172760  17.1537620
  10.4407750  10.0784640  16.2354800  10.3566070   9.4857300  17.6259700
   4.1761430  14.0200760  15.7232430   4.6906100  13.9308770  16.5254860
   3.3330510  14.3660460  16.0160340   6.1515830  14.3056100   5.1516430
   5.9916970  14.0159040   6.0498260   5.9862540  13.5296230   4.6161660
   5.8541960  11.8143660   3.7114430   5.1607120  11.8120950   3.0516710
   6.5964820  11.3902980   3.2808600   5.4191890  13.4406370   7.7862920
   5.8748840  12.6595750   8.1001540   5.7584410  14.1513190   8.3304100
  10.1668700   2.3705220  18.1187360   9.5512970   2.8784890  17.5902820
   9.8465120   1.4703550  18.0613300   7.2287530   2.4306060  16.7146210
   6.3781120   2.1311810  17.0355280   7.0689320   2.6748070  15.8030030
   4.3237240   3.9307810  18.8145000   4.6490650   3.0971560  18.4747230
   5.1117570   4.4536330  18.9623330   4.9625190   3.4725530   6.3086130
   4.3634080   4.1961330   6.1249750   5.5104800   3.4102310   5.5262580
   4.1545200   4.6994820  12.4340190   3.4226320   5.2081630  12.7830290
   3.7569540   3.8824800  12.1328970   7.9699700   7.6785790  11.2935540
   8.6898820   8.1741080  10.9031650   7.7681520   7.0003680  10.6489410
   3.3518500   7.7494850  17.1804540   3.2855810   6.8290520  16.9262130
   2.7223640   7.8470290  17.8949180   6.1458030   3.4443400   3.7327090
   7.0337650   3.7560630   3.5578430   6.1163120   2.5715650   3.3407670
   3.2835230  10.5715420  16.9308340   3.2979770   9.6396380  16.7127250
   2.5760330  10.6575180  17.5698110   8.4172300   4.7555240   3.2006950
   8.3336020   5.1869460   2.3503390   9.1366490   5.2153590   3.6333770
   9.4946440   7.2122760  16.2776920   8.7694630   7.8051540  16.0806310
  10.0221900   7.2046300  15.4790290   9.4459550  11.6097500   5.9289080
   8.8035710  10.9553120   6.2032800   9.0590210  12.0152590   5.1529750
   5.0246030   8.9382930   9.7760770   5.3769850   8.3411060   9.1162140
   4.1408360   8.6127160   9.9469020   2.7169130  12.2132990  14.0248840
   3.3611350  12.4192370  14.7022260   3.0798570  11.4521390  13.5719690
   3.9901210  10.2165340  12.7426290   4.6323440   9.5158500  12.8558460
   4.5150560  10.9963780  12.5623180   5.7638830  11.0160240  15.9462350
   6.0995070  11.6026930  16.6240270   4.8439170  10.8852950  16.1760140
   7.4173180   8.4185900   4.1279590   7.1294880   8.8798590   4.9157470
   8.2125350   7.9583670   4.3963810   2.6201180  11.9740260   2.7208750
   2.7213160  11.7704250   1.7910730   1.7202920  11.7198540   2.9256530
   1.7683000   3.9517320  14.7025180   2.2668250   4.4263140  15.3677030
   1.9105950   3.0280840  14.9095210   7.2671870   5.4118460   8.9914930
   6.3262010   5.4268690   9.1662620   7.5815940   4.6254420   9.4375230
   9.2697450  12.5827310  10.6669190   9.3944870  13.4058480  11.1393000
  10.1363010  12.3718040  10.3193340   4.5837890   9.9684460  19.4747310
   3.9776050   9.9916060  18.7343060   4.2792000   9.2367500  20.0114560
   6.0138260  13.6964750  18.0856720   6.9660010  13.6122770  18.0356960
   5.8666480  14.3606460  18.7590510   8.9047460  13.0758960   3.5848630
   8.6188970  12.6624100   2.7702810   8.7067010  14.0046670   3.4649150
   3.6097420   8.1312270   2.6296230   3.0607520   8.5781570   3.2738970
   4.2316680   7.6261520   3.1533900   7.6632360   9.4854370  18.5618490
   8.4041830   9.8230130  18.0585950   6.9005040   9.6546430  18.0088260
   6.3378020   7.5369200  17.0973700   6.7519040   7.6914280  17.9464120
   5.4029020   7.6624420  17.2599480   6.8100190   4.8765360  19.1012850
   7.3920960   4.1217680  19.0133330   6.9861960   5.4072800  18.3244330
   3.4357150   5.2205860  16.4507470   3.5553360   4.6247000  17.1902310
   4.2951150   5.2575550  16.0308770   5.7745050   5.7743050  15.0269980
   5.2480270   6.2985670  14.4235120   6.1176390   6.4070440  15.6579710
   2.3548210  14.1952410   4.0640370   3.2499000  14.5337380   4.0859130
   2.3865840  13.4731820   3.4364650   9.3342560  12.7256080  16.7706570
   8.7344550  12.7848640  16.0270490   9.4636460  11.7861060  16.9003420
  10.5744010  10.4673900   2.1076280   9.7436970  10.5350550   2.5783510
  10.7515840  11.3578020   1.8043140  10.0300470   7.2121380   4.6110480
  10.7919380   7.7818030   4.7170170  10.0454840   6.6448580   5.3818790
  11.0360440   8.0671480   9.4552410  11.4069270   7.2838800   9.0488380
  11.6762370   8.7560580   9.2769710   8.0194200   9.4508060  14.8682730
   7.2054040   9.8805220  15.1308520   8.4268400  10.0626470  14.2551780
  10.0819640   7.5055750   1.7683000  10.3568480   8.4134630   1.6402220
   9.8930380   7.4418280   2.7044990   9.9784980   5.4424740   6.7612430
   9.6028580   4.6752670   6.3293720   9.2488100   5.8247440   7.2487360
   9.3684600   4.5896260  16.3951950   9.1370690   4.3609010  15.4949900
   9.6289150   5.5095810  16.3496840   9.2535940   3.6682230  10.0619670
   9.7773420   3.1744880   9.4309840   9.8395360   3.8032590  10.8067240
   9.4325660   3.7522100  13.5839220   8.4828370   3.7185640  13.6984210
   9.6138670   4.6622210  13.3488990   8.7435910   2.9255580   6.0012080
   9.2395030   2.6926450   6.7860960   8.5451980   2.0867420   5.5849720
   8.0770250  14.2026660   8.3951000   8.6729320  13.8811230   7.7185420
   8.3348400  13.7298480   9.1864270  10.9443010  14.2098540  14.9461990
  10.4501290  14.6067410  14.2289120  10.3356300  13.5847750  15.3399270
   8.6282460  14.8521960  12.2248730   8.1685430  15.6037770  11.8506750
   7.9994920  14.1328430  12.1663530   1.7973680  14.0518690  12.2265840
   2.0851490  13.7972990  11.3498850   2.3096900  13.4996050  12.8171410
   1.8646040  14.9734790  19.5934040   2.7913350  14.7379060  19.6370000
   1.8496470  15.8006790  19.1120070  10.0991100  14.5160360   6.5908290
  10.2743290  13.8298100   5.9469210   9.4012670  15.0407410   6.1984960
   8.4323600  14.2004650  19.4175080   9.2248920  13.7053880  19.2101040
   8.7256750  14.8794790  20.0250690
  59.8976350  68.4086230  58.9104020  90.0000000  90.0000000  90.0000000
