default_name
 41777
  48.9758162  42.6668318  19.1480849  49.6588162  43.8828318  19.1490849
  51.0618162  43.9148318  19.1430849  51.7658162  45.1268318  19.1390849
  53.1628162  45.1408318  19.1370849  53.8928162  43.9438318  19.1390849
  55.2958162  43.9408318  19.1410849  56.0038162  42.7398318  19.1420849
  55.3198162  41.5248318  19.1400849  53.9178162  41.4948318  19.1380849
  53.2138162  40.2828318  19.1370849  51.8168162  40.2678318  19.1360849
  51.0878162  41.4648318  19.1390849  49.6848162  41.4668318  19.1410849
  51.7818162  42.6978318  19.1400849  53.1988162  42.7118318  19.1390849
  47.8888162  42.6558318  19.1530849  49.0868162  44.8078318  19.1560849
  51.2318162  46.0738318  19.1380849  53.6778162  46.0988318  19.1340849
  55.8478162  44.8778318  19.1430849  57.0908162  42.7508318  19.1450849
  55.8908162  40.5988318  19.1400849  53.7478162  39.3358318  19.1360849
  51.3018162  39.3098318  19.1350849  49.1328162  40.5288318  19.1390849
  53.9038162  28.2858318  35.3940849  54.2238162  27.3708318  35.8860849
  53.4798162  28.1758318  34.3960849  51.2208162  33.8398318  38.0550849
  51.4908162  32.8318318  37.4220849  52.4668162  32.7308318  36.2610849
  52.2418162  33.5068318  35.5200849  52.2388162  31.3328318  35.6430849
  53.6508162  30.7858318  35.2870849  54.0288162  29.4888318  35.9740849
  54.6488162  31.9168318  35.6410849  53.9478162  32.7868318  36.6990849
  54.3888162  34.2348318  36.8750849  51.6298162  31.4258318  34.7330849
  50.9318162  31.5708318  37.6000849  49.6928162  31.3958318  38.3910849
  49.8628162  30.8628318  39.8340849  51.0238162  31.4668318  40.6730849
  52.4238162  30.9008318  40.3480849  52.3628162  29.4758318  40.5130849
  53.0108162  28.6768318  39.4980849  52.2468162  27.3288318  39.4360849
  50.9728162  27.5318318  38.8080849  53.0358162  26.2298318  38.6720849
  52.4278162  24.8198318  38.8440849  51.1498162  24.7468318  38.2080849
  54.3818162  26.1678318  39.1830849  55.1428162  27.3708318  39.0200849
  56.4568162  27.1478318  39.4970849  54.5008162  28.4818318  39.8740849
  55.2378162  29.6998318  39.6810849  51.3838162  30.6058318  36.6970849
  51.0688162  29.4268318  36.7120849  53.6938162  30.6208318  34.2020849
  54.4708162  29.5848318  36.9640849  54.8568162  32.5138318  34.7440849
  55.5968162  31.5038318  36.0070849  54.0328162  32.2758318  37.6680849
  53.5928162  34.8618318  37.2800849  49.0218162  30.7198318  37.8440849
  49.1848162  32.3658318  38.4440849  48.9228162  31.0518318  40.3650849
  49.9598162  29.7738318  39.8000849  51.0328162  32.5578318  40.5620849
  50.8208162  31.2678318  41.7320849  53.1588162  31.3358318  41.0320849
  52.7228162  31.1748318  39.3310849  52.9458162  29.1538318  38.5140849
  52.1018162  26.9768318  40.4680849  51.0888162  28.1178318  38.0250849
  53.0558162  26.4708318  37.6020849  53.1098162  24.0818318  38.4030849
  52.3408162  24.5898318  39.9140849  50.6858162  25.5848318  38.4190849
  55.1738162  27.6618318  37.9640849  56.8108162  28.0508318  39.5940849
  54.5518162  28.1488318  40.9210849  55.2988162  30.1428318  40.5670849
  57.1958162  38.6028318  35.0510849  57.0918162  37.4188318  34.7700849
  58.0518162  36.2938318  35.1700849  58.9658162  36.3768318  34.5680849
  57.2928162  34.9948318  34.7790849  56.8878162  34.3198318  36.1080849
  55.5588162  34.8528318  36.6290849  58.0238162  34.7468318  37.0580849
  58.3488162  36.2148318  36.6920849  59.7528162  36.6778318  37.0620849
  57.9398162  34.3338318  34.1890849  56.0618162  36.8468318  34.0260849
  55.1568162  37.6568318  33.1850849  54.0268162  38.3858318  33.9480849
  53.2288162  37.5568318  34.9870849  52.6038162  36.2348318  34.5010849
  52.0278162  36.4288318  33.2020849  51.2638162  35.3178318  32.6750849
  52.1858162  34.2808318  31.9710849  52.9528162  33.5548318  32.9360849
  51.3448162  33.2728318  31.1310849  52.2048162  32.3188318  30.2730849
  52.8918162  31.3868318  31.1120849  50.4918162  34.0058318  30.2290849
  49.5248162  34.8448318  30.8770849  48.7338162  35.4838318  29.8960849
  50.2778162  35.9368318  31.6610849  49.3428162  36.7648318  32.3600849
  56.1198162  35.4598318  33.9210849  55.3838162  34.7528318  33.2510849
  56.8908162  33.2328318  36.0050849  55.5888162  35.9158318  36.8510849
  58.9018162  34.1148318  36.8740849  57.7288162  34.6228318  38.1070849
  57.6338162  36.8668318  37.2050849  60.3398162  37.0708318  36.2310849
  54.6978162  37.0058318  32.4300849  55.7578162  38.3998318  32.6440849
  54.4748162  39.2378318  34.4750849  53.3328162  38.8118318  33.2140849
  53.8868162  37.3238318  35.8280849  52.4288162  38.1888318  35.3900849
  51.8408162  35.9158318  35.2230849  53.3778162  35.4658318  34.4770849
  50.6848162  34.8208318  33.4650849  52.8488162  34.8198318  31.2780849
  53.8048162  34.0408318  33.0650849  50.7258162  32.6638318  31.8040849
  51.5528162  31.7808318  29.5730849  52.9188162  32.9038318  29.6770849
  53.2258162  31.9008318  31.8740849  48.8898162  34.2508318  31.5490849
  48.3588162  36.2408318  30.3880849  50.8528162  36.5258318  30.9300849
  49.8768162  37.3498318  32.9330849  62.7928162  33.9978318  42.3120849
  62.0248162  34.1438318  41.3740849  60.6348162  34.7758318  41.4270849
  59.9908162  34.1768318  42.0780849  60.1028162  34.7358318  39.9760849
  59.6898162  36.1818318  39.5810849  60.3218162  36.6658318  38.2830849
  60.0248162  37.1078318  40.7780849  60.6828162  36.2468318  41.8800849
  60.1278162  36.4138318  43.2870849  59.2388162  34.0598318  39.9190849
  62.2788162  33.8098318  40.0520849  63.4508162  33.0018318  39.6530849
  64.8088162  33.7438318  39.6980849  64.8268162  35.2118318  39.1970849
  64.2668162  35.4688318  37.7830849  64.7808162  34.4728318  36.8850849
  64.4948162  34.6748318  35.4810849  63.0888162  34.1298318  35.1030849
  62.0688162  34.9758318  35.6430849  62.9168162  34.0578318  33.5560849
  61.6068162  33.3648318  33.1190849  60.4868162  34.1668318  33.5060849
  64.0108162  33.3088318  32.9890849  65.3028162  33.8928318  33.2030849
  66.2888162  33.0928318  32.5810849  65.5888162  33.9008318  34.7170849
  66.8598162  34.5068318  34.9710849  61.2428162  34.1008318  39.1690849
  61.2348162  33.8448318  37.9760849  58.6008162  36.1968318  39.4720849
  61.3418162  37.0348318  38.3840849  59.1178162  37.6038318  41.1440849
  60.7078162  37.9118318  40.4770849  61.7398162  36.5508318  41.9110849
  60.9028162  36.6238318  44.0240849  63.2948162  32.6378318  38.6300849
  63.5018162  32.1158318  40.2980849  65.1608162  33.7448318  40.7360849
  65.5438162  33.1568318  39.1340849  64.2758162  35.8398318  39.9080849
  65.8648162  35.5668318  39.2250849  64.5618162  36.4748318  37.4590849
  63.1748162  35.4388318  37.8210849  64.5628162  35.7378318  35.2100849
  62.9928162  33.1088318  35.5030849  61.8278162  34.6148318  36.5310849
  62.9228162  35.0768318  33.1440849  61.6168162  33.2288318  32.0280849
  61.5498162  32.3688318  33.5790849  60.7508162  34.5768318  34.3570849
  65.3358162  34.9138318  32.7980849  67.0968162  33.3448318  33.0680849
  65.5778162  32.8538318  35.0590849  66.9128162  34.6088318  35.9430849
  55.9728162  34.7608318  46.9460849  56.3708162  34.5888318  45.8070849
  55.8578162  35.2968318  44.5550849  54.8328162  34.9758318  44.3730849
  56.7798162  34.7868318  43.4170849  57.5858162  36.0138318  42.9310849
  58.8618162  36.2848318  43.7300849  56.5738162  37.1488318  43.1790849
  55.9498162  36.8398318  44.5630849  54.6298162  37.4878318  44.9870849
  56.1698162  34.3878318  42.5960849  57.3368162  33.6698318  45.4040849
  57.8418162  32.6058318  46.2990849  58.9618162  33.0498318  47.2690849
  60.0758162  33.9678318  46.6960849  60.8518162  33.4618318  45.4580849
  61.1588162  32.0678318  45.6220849  62.1208162  31.5558318  44.6730849
  61.4258162  30.7838318  43.5200849  60.6358162  31.6618318  42.7130849
  62.5118162  30.1058318  42.6340849  61.9398162  29.2558318  41.4800849
  61.3718162  30.1138318  40.4850849  63.3108162  29.2378318  43.4660849
  64.0458162  29.9168318  44.4970849  64.7868162  28.9748318  45.2460849
  63.0448162  30.5988318  45.4520849  63.7498162  31.3328318  46.4570849
  57.5878162  33.6558318  44.0360849  58.2728162  32.8458318  43.4360849
  57.7968162  35.9058318  41.8610849  58.7048162  36.4128318  44.7990849
  55.8108162  37.0618318  42.3980849  57.0368162  38.1438318  43.1310849
  56.6868162  37.1268318  45.3250849  54.3678162  37.2148318  46.0100849
  58.2268162  31.7818318  45.6840849  57.0028162  32.2058318  46.8810849
  58.4908162  33.5848318  48.1030849  59.4178162  32.1538318  47.7070849
  59.6458162  34.9488318  46.4610849  60.8008162  34.1478318  47.4980849
  61.7728162  34.0528318  45.3640849  60.2718162  33.6288318  44.5480849
  62.7378162  32.3618318  44.2490849  60.7958162  29.9928318  43.9530849
  59.8598162  31.9708318  43.2370849  63.1548162  30.8828318  42.2000849
  62.7488162  28.6558318  41.0400849  61.1858162  28.5608318  41.8740849
  60.8338162  30.7678318  40.9790849  64.7218162  30.6628318  44.0540849
  64.9548162  29.4588318  46.0770849  62.4278162  29.8078318  45.9050849
  63.0758162  31.8928318  46.8900849  49.3718162  38.1348318  42.4050849
  50.5588162  37.8828318  42.2900849  51.6308162  38.8298318  41.7590849
  51.4488162  38.9998318  40.6890849  52.9608162  38.0588318  41.9380849
  53.8228162  38.8668318  42.9380849  53.7598162  38.2988318  44.3460849
  53.2488162  40.2928318  42.8620849  51.7438162  40.1618318  42.5390849
  51.1708162  41.3108318  41.7250849  53.4698162  37.9888318  40.9790849
  51.1728162  36.6728318  42.5960849  50.3928162  35.4368318  42.8210849
  49.7528162  35.3168318  44.2250849  50.6518162  35.6768318  45.4360849
  52.0098162  34.9508318  45.5320849  51.8398162  33.5638318  45.1990849
  53.0008162  32.7428318  45.4430849  53.3898162  32.0138318  44.1340849
  53.8848162  32.9578318  43.1790849  54.4758162  30.9328318  44.4080849
  54.7838162  30.0518318  43.1780849  55.4088162  30.8418318  42.1600849
  54.0138162  30.0558318  45.4570849  53.7618162  30.6968318  46.7170849
  53.3308162  29.7298318  47.6520849  52.6228162  31.7168318  46.5300849
  52.3718162  32.3898318  47.7680849  52.5468162  36.6508318  42.3710849
  53.2718162  35.6698318  42.4340849  54.8558162  38.9388318  42.5970849
  52.8708162  38.6088318  44.8960849  53.7608162  40.8078318  42.0380849
  53.4298162  40.8698318  43.7750849  51.1808162  40.0598318  43.4790849
  50.2348162  41.0728318  41.2150849  51.0468162  34.5708318  42.6640849
  49.6018162  35.3808318  42.0630849  48.8738162  35.9718318  44.2560849
  49.3728162  34.2948318  44.3460849  50.8348162  36.7588318  45.4380849
  50.0848162  35.4678318  46.3520849  52.4058162  35.0688318  46.5490849
  52.7168162  35.4238318  44.8460849  53.8548162  33.3348318  45.8040849
  52.4948162  31.5048318  43.7420849  53.2548162  33.7088318  43.1160849
  55.4068162  31.4188318  44.7280849  55.4468162  29.2288318  43.4810849
  53.8488162  29.6068318  42.8110849  55.0538162  31.7518318  42.2810849
  54.6698162  31.1958318  47.0840849  52.8738162  30.2758318  48.3220849
  51.7318162  31.1628318  46.1980849  51.7168162  33.0898318  47.5770849
  52.4778162  47.7348318  42.3360849  51.8538162  46.7018318  42.1740849
  51.5828162  46.0068318  40.8400849  51.1108162  46.7028318  40.1350849
  50.6238162  44.8338318  41.1890849  51.2068162  43.5408318  40.5570849
  51.7388162  42.5138318  41.5370849  52.3608162  44.0138318  39.6580849
  52.8438162  45.3528318  40.2340849  53.5958162  46.1718318  39.2010849
  49.6228162  45.0428318  40.7900849  51.2658162  45.9348318  43.1750849
  51.1908162  46.3948318  44.5810849  52.4958162  46.2758318  45.4110849
  53.4538162  45.0958318  45.0980849  52.8388162  43.6818318  45.0720849
  51.9798162  43.4988318  46.2090849  51.1498162  42.3168318  46.1370849
  49.7718162  42.6358318  46.7730849  49.0858162  43.6298318  46.0030849
  48.8988162  41.3478318  46.8950849  47.6188162  41.5628318  47.7340849
  46.7268162  42.4548318  47.0630849  49.6568162  40.3028318  47.5480849
  50.8818162  39.9398318  46.8960849  51.5148162  38.8998318  47.6140849
  51.8088162  41.1698318  46.9340849  53.0978162  40.8308318  46.4140849
  50.5348162  44.8398318  42.7160849  49.9048162  44.0538318  43.4070849
  50.4358162  43.0658318  39.9340849  52.6728162  42.7848318  42.0260849
  51.9838162  44.1358318  38.6350849  53.1898162  43.2978318  39.6320849
  53.5338162  45.1188318  41.0570849  54.6038162  46.4598318  39.5030849
  50.4138162  45.8148318  45.0940849  50.8568162  47.4418318  44.5890849
  53.0658162  47.2028318  45.2680849  52.2268162  46.2528318  46.4740849
  53.9348162  45.2788318  44.1300849  54.2588162  45.1068318  45.8410849
  53.6488162  42.9428318  45.0590849  52.2738162  43.5578318  44.1450849
  50.9888162  42.0018318  45.0960849  49.9448162  43.0188318  47.7900849
  49.4488162  43.6418318  45.0880849  48.6018162  41.0108318  45.8920849
  47.1288162  40.5928318  47.8950849  47.8938162  41.9618318  48.7200849
  47.2818162  43.1688318  46.6840849  50.6888162  39.6228318  45.8620849
  52.4598162  39.1058318  47.4750849  51.8898162  41.4838318  47.9870849
  53.6438162  41.6358318  46.5130849  51.7028162  44.6118318  33.9420849
  52.6878162  44.8618318  34.6160849  53.4328162  46.1928318  34.6610849
  53.9678162  46.3128318  33.7120849  54.4558162  46.0348318  35.8090849
  54.0458162  47.0658318  36.8930849  53.1678162  46.4368318  37.9570849
  53.2928162  48.1608318  36.1050849  52.5458162  47.4198318  34.9750849
  52.2878162  48.2328318  33.7170849  55.4648162  46.2588318  35.4380849
  53.3688162  43.9568318  35.4260849  53.5128162  42.5488318  34.9760849
  52.3088162  41.6208318  35.2530849  51.8498162  41.5268318  36.7220849
  52.9538162  41.3088318  37.7700849  53.7408162  40.1558318  37.4520849
  54.6778162  39.7948318  38.4920849  56.0418162  40.5258318  38.3240849
  55.9128162  41.8968318  38.7260849  57.1568162  39.8808318  39.2110849
  58.5768162  40.3308318  38.8030849  58.8228162  41.6528318  39.2860849
  57.1338162  38.4388318  39.1420849  55.8788162  37.8448318  39.4780849
  55.9888162  36.4358318  39.4730849  54.8838162  38.2758318  38.3890849
  53.6318162  37.5988318  38.5390849  54.3818162  44.5488318  36.1890849
  55.1368162  43.9548318  36.9450849  54.9468162  47.4898318  37.3590849
  52.1738162  46.1328318  37.6310849  54.0288162  48.8518318  35.6730849
  52.6148162  48.7418318  36.7430849  51.5938162  47.0498318  35.3720849
  52.2158162  47.6348318  32.8060849  54.4038162  42.1108318  35.4420849
  53.6978162  42.5578318  33.8950849  51.4568162  41.9508318  34.6460849
  52.5588162  40.6168318  34.8990849  51.3388162  42.4568318  36.9800849
  51.1038162  40.7288318  36.8130849  52.4778162  41.1918318  38.7520849
  53.5838162  42.2008318  37.8000849  54.2668162  40.0198318  39.4870849
  56.3528162  40.4478318  37.2700849  55.5948162  42.4428318  37.9710849
  56.9938162  40.1808318  40.2550849  59.3108162  39.6368318  39.2320849
  58.6798162  40.2848318  37.7100849  58.0288162  42.1858318  39.0790849
  55.5528162  38.1898318  40.4660849  55.0748162  36.1478318  39.2700849
  55.3408162  38.0638318  37.4110849  53.0118162  38.0488318  37.9280849
  48.1468162  52.7438318  33.0220849  48.8358162  51.7898318  32.7000849
  50.1128162  51.8368318  31.8660849  49.8798162  52.2488318  30.8750849
  50.5688162  50.3598318  31.7370849  52.0218162  50.2728318  32.2810849
  52.1698162  49.5678318  33.6210849  52.5118162  51.7338318  32.3470849
  51.2618162  52.6068318  32.5520849  51.4408162  54.0168318  32.0210849
  50.5418162  50.0588318  30.6820849  48.5908162  50.4608318  33.0200849
  47.3138162  50.0298318  33.6290849  47.1858162  50.2958318  35.1490849
  48.4368162  50.0098318  36.0230849  49.1038162  48.6308318  35.8430849
  48.0878162  47.6248318  35.6900849  48.5798162  46.2998318  35.3970849
  47.6168162  45.6178318  34.3920849  47.6688162  46.2758318  33.1210849
  47.9698162  44.1068318  34.2230849  46.9238162  43.3278318  33.3930849
  46.9578162  43.7528318  32.0300849  48.0278162  43.4778318  35.5240849
  49.0018162  44.0378318  36.4140849  48.9678162  43.3548318  37.6490849
  48.5928162  45.4898318  36.7110849  49.4738162  46.0658318  37.6830849
  49.5088162  49.5548318  32.4900849  49.4358162  48.3378318  32.5540849
  52.6378162  49.7308318  31.5480849  52.2228162  50.2038318  34.5040849
  52.9768162  51.9888318  31.3900849  53.2598162  51.9008318  33.1330849
  51.0568162  52.6508318  33.6310849  51.3098162  54.8028318  32.7660849
  47.1858162  48.9558318  33.4550849  46.4888162  50.5348318  33.1080849
  46.9178162  51.3508318  35.2900849  46.3378162  49.7158318  35.5320849
  49.1898162  50.7838318  35.8330849  48.1468162  50.1208318  37.0750849
  49.7518162  48.4298318  36.7050849  49.7478162  48.6588318  34.9610849
  49.5828162  46.3178318  34.9500849  46.5958162  45.6808318  34.7960849
  48.3818162  46.9558318  33.1280849  48.9468162  44.0138318  33.7270849
  47.1458162  42.2528318  33.4560849  45.9268162  43.4858318  33.8240849
  47.0718162  44.7268318  32.0480849  50.0048162  43.9948318  35.9680849
  49.1418162  44.0948318  38.2630849  47.5618162  45.4628318  37.0980849
  49.1798162  46.9958318  37.7640849  54.9228162  55.6438318  26.5350849
  54.5148162  55.5638318  27.6810849  53.3208162  56.3038318  28.2680849
  53.4058162  57.3688318  28.0510849  53.3988162  56.0658318  29.7950849
  51.9498162  55.7528318  30.2650849  51.7538162  54.3318318  30.7530849
  51.0598162  56.0468318  29.0380849  51.9478162  55.7758318  27.8070849
  51.5578162  56.3428318  26.4420849  53.7798162  56.9708318  30.2880849
  55.0778162  54.8078318  28.7020849  56.4558162  54.2778318  28.5920849
  56.6218162  53.0248318  27.6990849  55.5148162  51.9448318  27.7920849
  55.1098162  51.4988318  29.2110849  56.2928162  51.2828318  30.0000849
  56.0408162  50.9448318  31.3810849  57.0948162  51.6458318  32.2720849
  56.8968162  53.0658318  32.2560849  57.0168162  51.1328318  33.7410849
  58.1818162  51.6378318  34.6210849  58.0108162  53.0268318  34.9050849
  57.0568162  49.6868318  33.7620849  56.0008162  49.0438318  33.0360849
  56.1448162  47.6428318  33.1310849  56.1508162  49.4138318  31.5490849
  55.1508162  48.7288318  30.7840849  54.4568162  54.9638318  29.9430849
  54.7618162  54.3708318  30.9680849  51.6818162  56.4498318  31.0730849
  51.8898162  53.5528318  30.0030849  50.7838162  57.1078318  29.0750849
  50.1438162  55.4408318  29.0380849  52.0308162  54.6848318  27.7000849
  52.3008162  56.0958318  25.6820849  56.8168162  54.0278318  29.5970849
  57.1088162  55.0738318  28.2130849  56.6788162  53.3538318  26.6540849
  57.5938162  52.5678318  27.9230849  54.6178162  52.3118318  27.2780849
  55.8478162  51.0638318  27.2300849  54.4998162  50.5908318  29.1410849
  54.4858162  52.2758318  29.6620849  55.0488162  51.2758318  31.7020849
  58.0928162  51.4058318  31.8780849  56.1398162  53.2968318  31.6730849
  56.0758162  51.4738318  34.1940849  58.1978162  51.0658318  35.5590849
  59.1358162  51.4598318  34.1070849  57.7778162  53.4608318  34.0570849
  55.0188162  49.3548318  33.4190849  55.7918162  47.3608318  32.2640849
  57.1608162  49.1058318  31.2350849  55.3298162  48.9488318  29.8490849
  49.4798162  61.6608318  24.6850849  49.6748162  60.8488318  25.5720849
  48.6378162  59.9098318  26.1840849  47.8588162  60.5018318  26.6830849
  49.4208162  59.0668318  27.2280849  49.2878162  57.5798318  26.7940849
  50.5018162  57.0758318  26.0230849  48.0308162  57.5688318  25.9000849
  48.0308162  58.9238318  25.1610849  46.6868162  59.3968318  24.6320849
  48.9868162  59.2158318  28.2250849  50.8878162  60.6048318  26.2020849
  52.0818162  61.4428318  25.9560849  52.8218162  61.1338318  24.6320849
  53.1418162  59.6438318  24.3460849  53.9818162  58.9128318  25.4130849
  55.1268162  59.7128318  25.7350849  56.0488162  59.1038318  26.6650849
  55.9178162  59.7818318  28.0520849  54.6598162  59.4528318  28.6490849
  57.0758162  59.3298318  28.9900849  57.1028162  60.0768318  30.3420849
  55.9768162  59.6938318  31.1350849  58.3358162  59.5858318  28.3350849
  58.5328162  58.8678318  27.1080849  59.8008162  59.1908318  26.5750849
  57.4638162  59.3248318  26.0960849  57.6088162  58.5898318  24.8770849
  50.8388162  59.6478318  27.2140849  51.7468162  59.3728318  27.9820849
  49.0788162  56.9438318  27.6570849  50.4878162  57.3508318  24.9690849
  47.1458162  57.4988318  26.5470849  48.0118162  56.7168318  25.2070849
  48.7218162  58.8498318  24.3090849  46.6998162  60.4068318  24.2160849
  52.7858162  61.3168318  26.7870849  51.7728162  62.4958318  25.9520849
  52.2098162  61.5088318  23.8020849  53.7518162  61.7158318  24.6050849
  52.2048162  59.0938318  24.2020849  53.6758162  59.5858318  23.3900849
  54.2888162  57.9348318  25.0190849  53.3718162  58.7358318  26.3010849
  55.8788162  58.0218318  26.7610849  56.0028162  60.8708318  27.9140849
  53.9378162  59.7158318  28.0410849  56.9838162  58.2548318  29.1940849
  58.0338162  59.8298318  30.8700849  57.1008162  61.1588318  30.1610849
  55.2078162  59.6778318  30.5270849  58.4618162  57.7848318  27.2810849
  59.6978162  58.9538318  25.6330849  57.6108162  60.4028318  25.9230849
  56.8098162  58.7828318  24.3470849  45.5358162  58.7038318  24.6340849
  45.4528162  57.6888318  25.0180849  44.6238162  59.1388318  24.2260849
  26.5268162  48.8468318  41.6620849  26.2738162  49.2548318  40.6830849
  25.7928162  48.9878318  42.4560849  29.7018162  43.4608318  41.7730849
  28.9068162  44.3138318  42.1350849  29.1368162  45.3638318  43.2170849
  29.3868162  44.8638318  44.1610849  27.7838162  46.1058318  43.3690849
  28.0898162  47.6198318  43.2230849  27.6778162  48.1948318  41.8780849
  29.6198162  47.7308318  43.4040849  30.2018162  46.4198318  42.8330849
  31.5818162  45.9738318  43.2980849  27.3528162  45.8948318  44.3570849
  27.6248162  44.5078318  41.6380849  27.0288162  43.6028318  40.6330849
  27.5438162  43.7848318  39.1800849  27.8458162  45.2298318  38.7000849
  26.7428162  46.2848318  38.9220849  25.4638162  45.7278318  38.5830849
  24.3258162  46.4938318  39.0440849  23.2068162  45.4898318  39.4240849
  23.5848162  44.7568318  40.5940849  21.8458162  46.2078318  39.6670849
  20.6608162  45.2278318  39.8250849  20.7978162  44.4708318  41.0280849
  21.5458162  47.0448318  38.5310849  22.5028162  48.0828318  38.2810849
  22.0728162  48.8538318  37.1760849  23.8468162  47.4278318  37.9070849
  24.8128162  48.4538318  37.6450849  26.8788162  45.4848318  42.3010849
  25.7048162  45.7518318  42.0970849  27.5798162  48.1758318  44.0230849
  28.3928162  48.0698318  41.0630849  29.8648162  47.8208318  44.4700849
  29.9918162  48.6218318  42.8850849  30.2188162  46.4978318  41.7360849
  31.6638162  44.8908318  43.3840849  25.9458162  43.7578318  40.6260849
  27.1928162  42.5668318  40.9500849  28.4688162  43.2058318  39.0750849
  26.8218162  43.3198318  38.4980849  28.7588162  45.5858318  39.1930849
  28.0768162  45.1898318  37.6290849  26.9658162  47.1738318  38.3210849
  26.7548162  46.5918318  39.9700849  24.5748162  47.0988318  39.9290849
  23.0698162  44.7968318  38.5820849  24.2928162  45.2538318  41.0690849
  21.9088162  46.8258318  40.5730849  19.7238162  45.8008318  39.8470849
  20.6218162  44.5638318  38.9520849  21.7488162  44.2448318  41.1060849
  22.6148162  48.7228318  39.1680849  22.8988162  49.2938318  36.8950849
  23.6688162  46.8168318  37.0080849  25.6288162  47.9978318  37.3640849
  36.9128162  47.3858318  45.6520849  35.7458162  47.7208318  45.5410849
  35.1738162  48.6818318  44.4980849  35.5928162  49.6828318  44.6590849
  33.6498162  48.7108318  44.7910849  32.9438162  48.1848318  43.5190849
  32.6938162  46.6818318  43.5770849  33.9528162  48.4938318  42.4040849
  35.3448162  48.2148318  43.0240849  36.5308162  48.8768318  42.3300849
  33.3278162  49.7338318  45.0170849  34.6958162  47.2998318  46.3530849
  34.9148162  46.5478318  47.6090849  35.2628162  45.0468318  47.4450849
  34.5278162  44.2518318  46.3340849  32.9858162  44.3168318  46.3240849
  32.4808162  44.1498318  47.6590849  31.0488162  43.9618318  47.7670849
  30.2808162  45.3148318  47.7350849  30.3528162  45.9048318  46.4350849
  28.7858162  45.1018318  48.1160849  27.9808162  46.4178318  48.2280849
  27.8248162  47.0058318  46.9330849  28.7218162  44.4438318  49.3980849
  29.3068162  43.1328318  49.4240849  29.1708162  42.5888318  50.7220849
  30.8128162  43.2598318  49.1200849  31.4158162  41.9618318  49.0850849
  33.4558162  47.8458318  46.0310849  32.4078162  47.6728318  46.6340849
  32.0308162  48.7538318  43.3490849  33.5728162  46.1108318  43.8670849
  33.8698162  49.5538318  42.1350849  33.7318162  47.8998318  41.5130849
  35.5168162  47.1308318  43.0320849  37.1868162  49.4358318  42.9970849
  34.0048162  46.6178318  48.2190849  35.7158162  47.0408318  48.1750849
  36.3388162  44.9728318  47.2410849  35.1058162  44.5488318  48.4090849
  34.8948162  44.5878318  45.3560849  34.8258162  43.2008318  46.4180849
  32.6038162  43.5298318  45.6610849  32.6758162  45.2768318  45.9110849
  30.6738162  43.3098318  46.9660849  30.7278162  45.9858318  48.4840849
  31.1448162  46.4968318  46.4380849  28.3028162  44.4708318  47.3590849
  26.9978162  46.1998318  48.6650849  28.4998162  47.1058318  48.9080849
  28.7048162  46.9398318  46.5070849  28.8168162  42.4808318  48.6890849
  29.8658162  41.9018318  50.7340849  31.2598162  43.8778318  49.9140849
  32.3238162  42.1048318  48.7490849  37.0018162  50.8478318  36.2900849
  36.3828162  50.4648318  37.2690849  35.9968162  49.0248318  37.5940849
  35.2898162  48.6628318  36.8380849  35.3218162  49.0678318  38.9880849
  36.1158162  48.0978318  39.9160849  36.8608162  48.8248318  41.0240849
  37.0858162  47.3048318  39.0100849  37.2418162  48.1248318  37.7150849
  37.4998162  47.3348318  36.4460849  34.2738162  48.7488318  38.9060849
  35.9788162  51.2488318  38.3370849  36.1038162  52.7218318  38.3180849
  37.5568162  53.2528318  38.4110849  38.5118162  52.5188318  39.3900849
  38.0428162  52.4188318  40.8560849  37.5908162  53.7108318  41.2820849
  37.2448162  53.8318318  42.6790849  35.7688162  53.4098318  42.9270849
  35.6468162  51.9838318  42.8470849  35.2758162  53.8768318  44.3310849
  33.7558162  53.6888318  44.5400849  33.4268162  52.2988318  44.5040849
  35.5498162  55.2838318  44.4980849  36.9378162  55.6328318  44.4420849
  37.0798162  57.0228318  44.6550849  37.4518162  55.3198318  43.0250849
  38.8438162  55.6398318  42.9270849  35.3458162  50.5578318  39.3660849
  34.8758162  51.0668318  40.3720849  35.4278162  47.3648318  40.3520849
  37.7618162  49.3438318  40.6950849  36.6708162  46.3128318  38.8060849
  38.0568162  47.1388318  39.4960849  38.1088162  48.7828318  37.8790849
  38.3978162  47.6568318  35.9170849  35.5338162  53.1338318  39.1600849
  35.6398162  53.0998318  37.3990849  38.0028162  53.1968318  37.4100849
  37.5248162  54.3208318  38.6610849  38.7038162  51.5048318  39.0150849
  39.4798162  53.0338318  39.3720849  38.8788162  52.0738318  41.4770849
  37.2428162  51.6798318  40.9320849  37.9138162  53.2298318  43.3130849
  35.1368162  53.8968318  42.1680849  35.4858162  51.7348318  41.9060849
  35.8058162  53.3098318  45.1080849  33.4688162  54.1228318  45.5070849
  33.2128162  54.2338318  43.7570849  34.0278162  51.9058318  43.8360849
  37.5098162  55.0728318  45.1950849  37.9508162  57.2058318  44.2530849
  36.8608162  55.9268318  42.3210849  39.1348162  55.2978318  42.0580849
  35.4558162  44.3298318  32.1860849  35.0238162  44.9808318  33.1210849
  34.5848162  44.4328318  34.4820849  33.6538162  43.8638318  34.3600849
  34.3268162  45.7028318  35.3320849  35.4508162  45.7448318  36.3960849
  36.7458162  46.3718318  35.8840849  35.6978162  44.2458318  36.6470849
  35.6678162  43.6178318  35.2320849  35.4348162  42.1228318  35.1760849
  33.3398162  45.6438318  35.8100849  34.8278162  46.3608318  33.1370849
  34.8688162  47.1838318  31.9100849  36.2848162  47.5948318  31.4380849
  37.2588162  48.1618318  32.5050849  36.7648162  49.3478318  33.3670849
  36.0228162  50.2608318  32.5430849  35.7088162  51.5288318  33.1620849
  34.2708162  51.5228318  33.7500849  34.2008162  50.6798318  34.9040849
  33.8408162  52.9648318  34.1480849  32.3668162  53.0678318  34.6000849
  32.1928162  52.4018318  35.8530849  33.9998162  53.8408318  33.0120849
  35.3508162  53.9628318  32.5440849  35.3858162  54.8538318  31.4480849
  35.8208162  52.5838318  32.0450849  37.1798162  52.6638318  31.6020849
  34.3478162  46.8588318  34.3440849  33.9668162  47.9958318  34.5650849
  35.0868162  46.2558318  37.2930849  37.1008162  45.9658318  34.9390849
  34.8818162  43.8358318  37.2540849  36.6388162  44.0598318  37.1780849
  36.6288162  43.8068318  34.7360849  35.2328162  41.7388318  34.1750849
  34.2828162  48.0958318  32.0790849  34.3748162  46.6308318  31.1020849
  36.7618162  46.7158318  30.9870849  36.1788162  48.3248318  30.6260849
  37.5718162  47.3518318  33.1720849  38.1698162  48.4808318  31.9840849
  37.6398162  49.8438318  33.8070849  36.1528162  48.9828318  34.1960849
  36.4278162  51.7808318  33.9570849  33.5798162  51.1668318  32.9720849
  34.2518162  49.7418318  34.6050849  34.4778162  53.3168318  34.9700849
  32.0938162  54.1268318  34.6960849  31.7178162  52.6268318  33.8310849
  32.7528162  51.5988318  35.8080849  36.0048162  54.3278318  33.3480849
  36.2188162  54.6018318  31.0040849  35.1588162  52.2878318  31.2180849
  37.4728162  51.7378318  31.4850849  38.5058162  39.0468318  39.3130849
  38.0638162  39.1678318  38.1830849  36.8008162  38.5058318  37.6360849
  36.9358162  37.4168318  37.6470849  36.6948162  39.0108318  36.1730849
  35.3518162  39.7718318  36.0570849  35.5188162  41.2718318  36.2100849
  34.5038162  39.2048318  37.2050849  35.4928162  38.9188318  38.3550849
  35.0278162  37.8768318  39.3580849  36.7188162  38.1608318  35.4830849
  38.6538162  39.8908318  37.1490849  40.0798162  40.2878318  37.1990849
  40.3958162  41.5828318  37.9860849  39.4618162  42.7998318  37.7620849
  39.1568162  43.1918318  36.3010849  40.3418162  43.0798318  35.4970849
  40.1168162  43.2558318  34.0790849  41.0388162  42.2788318  33.3050849
  40.6498162  40.9228318  33.5530849  41.0088162  42.5688318  31.7730849
  42.0738162  41.7758318  30.9820849  41.7778162  40.3778318  31.0120849
  41.2748162  43.9708318  31.5420849  40.3498162  44.8768318  32.1610849
  40.7158162  46.2048318  31.8470849  40.4788162  44.7068318  33.6870849
  39.6418162  45.6508318  34.3600849  37.9498162  39.8498318  35.9460849
  38.3038162  40.3348318  34.8820849  34.8788162  39.5488318  35.0900849
  35.7528162  41.6208318  37.2150849  34.0388162  38.2698318  36.8630849
  33.7098162  39.8938318  37.5110849  35.6868162  39.8578318  38.8950849
  35.8118162  37.5268318  40.0310849  40.4448162  40.4148318  36.1740849
  40.6548162  39.4618318  37.6370849  40.3798162  41.3448318  39.0570849
  41.4278162  41.8778318  37.7580849  38.5088162  42.6128318  38.2730849
  39.9078162  43.6668318  38.2670849  38.7598162  44.2118318  36.2830849
  38.3718162  42.5318318  35.9190849  39.0728162  43.0468318  33.8030849
  42.0708162  42.4328318  33.6540849  39.7798162  40.9108318  34.0150849
  40.0178162  42.3138318  31.3710849  42.0888162  42.1338318  29.9440849
  43.0648162  41.9698318  31.4140849  41.4588162  40.1828318  31.9190849
  39.3238162  44.6738318  31.8260849  40.3438162  46.7018318  32.6010849
  41.5358162  44.8788318  33.9420849  39.7938162  45.4928318  35.3120849
  28.7698162  36.9268318  41.2940849  29.9738162  37.1108318  41.3310849
  31.0558162  36.0318318  41.3360849  30.8798162  35.3158318  42.1500849
  32.3878162  36.8028318  41.5560849  33.3928162  36.3138318  40.4740849
  33.7838162  37.3778318  39.4660849  32.7028162  35.1338318  39.7590849
  31.1908162  35.3198318  39.9740849  30.3878162  34.0368318  39.8380849
  32.7758162  36.5968318  42.5620849  30.6118162  38.3458318  41.3540849
  29.8628162  39.6198318  41.4490849  29.1448162  40.0588318  40.1500849
  29.9358162  39.9278318  38.8230849  31.2868162  40.6678318  38.7530849
  31.1018162  42.0258318  39.1740849  32.2778162  42.8668318  39.1740849
  33.0788162  42.6838318  40.4960849  33.8608162  41.4858318  40.4240849
  34.0598162  43.8678318  40.7640849  34.6338162  43.8588318  42.1960849
  35.6248162  42.8408318  42.3240849  33.3998162  45.1358318  40.5780849
  32.8758162  45.3298318  39.2610849  32.3358162  46.6318318  39.1520849
  31.7488162  44.3098318  39.0390849  31.1908162  44.4858318  37.7330849
  31.9958162  38.2848318  41.4910849  32.7428162  39.2448318  41.5960849
  34.3028162  35.9468318  40.9700849  32.9778162  37.7168318  38.8180849
  33.0438162  34.1918318  40.2030849  32.9438162  35.1058318  38.6900849
  30.8478162  36.0168318  39.1950849  29.5408162  34.1128318  39.1560849
  30.5568162  40.4188318  41.7410849  29.1218162  39.5308318  42.2540849
  28.2298162  39.4628318  40.0510849  28.8168162  41.0958318  40.2740849
  30.1088162  38.8658318  38.6110849  29.2988162  40.2978318  38.0100849
  31.6478162  40.6378318  37.7180849  32.0138162  40.1498318  39.3850849
  32.9278162  42.6438318  38.3150849  32.3558162  42.6388318  41.3270849
  33.3448162  40.7358318  40.8100849  34.8998162  43.7988318  40.0590849
  35.0848162  44.8378318  42.4040849  33.8208162  43.7048318  42.9170849
  35.2848162  42.0468318  41.8640849  33.6638162  45.1888318  38.5160849
  31.6528162  46.5118318  38.4620849  30.9918162  44.4728318  39.8200849
  30.5778162  43.7298318  37.6120849  33.6558162  29.0398318  40.0220849
  32.7488162  29.6898318  39.5280849  31.2688162  29.5598318  39.8590849
  30.9188162  28.5908318  39.4850849  30.5718162  30.6908318  39.0750849
  29.8718162  31.5888318  40.1270849  30.6668162  32.8528318  40.4140849
  29.7168162  30.6758318  41.3700849  30.9418162  29.7358318  41.3560849
  30.7808162  28.3628318  41.9900849  29.8248162  30.2638318  38.3940849
  32.8808162  30.6248318  38.5080849  33.8348162  30.3398318  37.4080849
  35.3158162  30.7108318  37.6580849  35.5888162  32.1388318  38.1840849
  34.7568162  33.2628318  37.5420849  34.7718162  33.1268318  36.1100849
  33.8958162  34.0368318  35.4100849  33.2168162  33.2878318  34.2330849
  32.3088162  32.2948318  34.7220849  32.4568162  34.2798318  33.2990849
  31.9568162  33.6208318  31.9940849  30.9048162  32.6968318  32.2780849
  33.3388162  35.3578318  32.9130849  33.8738162  36.1268318  34.0000849
  34.7048162  37.1428318  33.4850849  34.7528162  35.1888318  34.8470849
  35.3818162  35.9118318  35.9080849  31.6908162  31.3118318  38.2300849
  31.5508162  32.1788318  37.3790849  28.8758162  31.8698318  39.7550849
  31.5158162  32.7378318  41.0840849  28.7978162  30.0838318  41.2570849
  29.6398162  31.2478318  42.3030849  31.7808162  30.2658318  41.8240849
  31.5318162  27.6448318  41.6520849  33.5008162  30.8588318  36.5040849
  33.7838162  29.2678318  37.1810849  35.7478162  29.9938318  38.3670849
  35.8618162  30.5728318  36.7160849  35.4028162  32.1528318  39.2620849
  36.6558162  32.3618318  38.0570849  35.1548162  34.2328318  37.8640849
  33.7328162  33.1858318  37.9170849  33.1158162  34.4418318  36.0720849
  34.0038162  32.8038318  33.6370849  32.1388162  32.4418318  35.6820849
  31.5888162  34.6908318  33.8300849  31.5938162  34.4028318  31.3130849
  32.7938162  33.1138318  31.4960849  31.1818162  32.1978318  33.0760849
  33.0658162  36.5648318  34.6020849  35.4258162  37.1618318  34.1400849
  35.5108162  34.7518318  34.1760849  35.8208162  35.2258318  36.4510849
  30.0688162  26.6578318  47.8430849  30.4458162  26.5818318  46.6860849
  29.8488162  25.6938318  45.5980849  29.9648162  24.6438318  45.8970849
  30.6958162  25.9808318  44.3320849  29.7208162  26.4598318  43.2190849
  29.8268162  27.9308318  42.8320849  28.3128162  26.0768318  43.7210849
  28.3818162  26.0358318  45.2590849  27.3928162  25.0578318  45.8680849
  31.2008162  25.0598318  44.0150849  31.5158162  27.2718318  46.1300849
  32.4968162  27.9908318  46.9730849  32.0478162  29.3848318  47.4740849
  31.2578162  30.2768318  46.4800849  31.8598162  30.4438318  45.0700849
  33.2848162  30.6198318  45.1710849  33.9868162  30.5738318  43.9110849
  35.3678162  29.8988318  44.1130849  35.1988162  28.5248318  44.4760849
  36.2348162  30.0088318  42.8190849  37.6958162  29.5488318  43.0270849
  37.7448162  28.1448318  43.2860849  36.2878162  31.3908318  42.3870849
  35.0118162  31.9768318  42.1000849  35.1778162  33.3198318  41.6930849
  34.2108162  32.0168318  43.4100849  32.9768162  32.7178318  43.2130849
  31.7658162  26.9718318  44.7900849  32.7158162  27.3638318  44.1310849
  29.9268162  25.8728318  42.3120849  29.0468162  28.5968318  43.1990849
  28.0718162  25.0768318  43.3440849  27.5308162  26.7588318  43.3630849
  28.1658162  27.0478318  45.6310849  26.6838162  25.5028318  46.5650849
  33.4238162  28.1168318  46.4030849  32.7418162  27.3638318  47.8390849
  31.4178162  29.2418318  48.3610849  32.9348162  29.9298318  47.8210849
  30.2418162  29.8768318  46.3740849  31.1448162  31.2708318  46.9310849
  31.3778162  31.2958318  44.5760849  31.6228162  29.5578318  44.4750849
  33.4368162  29.9898318  43.1620849  35.8968162  30.4278318  44.9200849
  34.2868162  28.2358318  44.2400849  35.7858162  29.3948318  42.0250849
  38.2768162  29.7848318  42.1250849  38.1378162  30.1108318  43.8610849
  36.9838162  27.9448318  43.8710849  34.4838162  31.3988318  41.3290849
  34.3718162  33.7138318  42.0780849  34.8308162  32.5388318  44.1560849
  32.5058162  32.6448318  44.0670849  25.7668162  19.1188318  43.2670849
  25.7008162  20.2478318  43.7220849  25.7238162  20.6268318  45.1960849
  24.9738162  20.0488318  45.7340849  25.3648162  22.1318318  45.2420849
  26.3508162  22.7888318  46.2490849  27.3488162  23.7378318  45.6110849
  27.0658162  21.6018318  46.9310849  27.0978162  20.4778318  45.8750849
  27.3568162  19.0308318  46.2960849  24.3268162  22.2498318  45.5830849
  25.5478162  21.4208318  42.9930849  25.0698162  21.3848318  41.5920849
  26.1178162  20.9608318  40.5360849  27.5578162  21.5038318  40.7200849
  27.6838162  23.0118318  41.0070849  26.8128162  23.7388318  40.1230849
  26.6988162  25.1478318  40.4170849  25.2428162  25.6068318  40.1490849
  24.3428162  24.9888318  41.0760849  25.1228162  27.1588318  40.2480849
  23.7468162  27.6898318  39.7860849  22.7448162  27.3548318  40.7480849
  26.1238162  27.7828318  39.4110849  27.4788162  27.4398318  39.7320849
  28.3588162  28.0928318  38.8440849  27.6578162  25.9308318  39.4950849
  29.0258162  25.5698318  39.7160849  25.4328162  22.5748318  43.7750849
  25.3308162  23.7158318  43.3480849  25.7708162  23.3368318  47.0060849
  28.0538162  23.2828318  44.9170849  26.4528162  21.2918318  47.7860849
  28.0678162  21.8708318  47.2920849  27.8658162  20.7478318  45.1370849
  27.3348162  18.3588318  45.4360849  24.7008162  22.3818318  41.3230849
  24.2108162  20.7038318  41.5340849  26.1728162  19.8658318  40.5260849
  25.7468162  21.2528318  39.5450849  28.0408162  20.9558318  41.5390849
  28.1328162  21.2688318  39.8170849  28.7308162  23.3158318  40.8830849
  27.4128162  23.1978318  42.0510849  26.9368162  25.3598318  41.4650849
  24.9728162  25.3128318  39.1240849  24.8468162  24.6098318  41.8320849
  25.2758162  27.4698318  41.2900849  23.8028162  28.7798318  39.6730849
  23.4998162  27.2658318  38.8040849  22.8718162  26.4078318  40.9690849
  27.7158162  27.7068318  40.7710849  29.0618162  27.4158318  38.7720849
  27.3678162  25.7278318  38.4520849  29.0858162  24.6158318  39.5060849
  25.2788162  15.6378318  50.7490849  25.4728162  16.7418318  50.2690849
  26.5898162  17.7098318  50.6510849  26.4678162  18.0128318  51.6990849
  26.3998162  18.9368318  49.7150849  27.7048162  19.0708318  48.8810849
  27.5898162  18.4508318  47.4940849  28.7568162  18.3188318  49.7240849
  28.0028162  17.1458318  50.3840849  28.6358162  16.5638318  51.6370849
  26.2348162  19.8388318  50.3170849  24.7158162  17.3428318  49.2720849
  23.4528162  16.7468318  48.7800849  23.6378162  15.5698318  47.7920849
  24.6198162  15.8018318  46.6140849  24.3078162  17.0008318  45.6970849
  22.9298162  16.9428318  45.3010849  22.5288162  17.9618318  44.3610849
  21.6818162  19.0408318  45.0840849  22.4978162  19.7868318  45.9920849
  21.0348162  20.0048318  44.0460849  20.0608162  21.0248318  44.6740849
  20.7828162  21.9628318  45.4750849  20.2838162  19.2258318  43.0920849
  21.0658162  18.3008318  42.3200849  20.2208162  17.6118318  41.4210849
  21.6848162  17.2638318  43.2780849  22.5108162  16.3578318  42.5390849
  25.1238162  18.6278318  48.9240849  24.5308162  19.3888318  48.1750849
  28.0178162  20.1168318  48.8200849  27.7348162  17.3708318  47.4900849
  29.1328162  19.0018318  50.4970849  29.6138162  17.9798318  49.1270849
  27.9118162  16.3368318  49.6450849  28.0218162  15.8178318  52.1430849
  22.8578162  17.5258318  48.2900849  22.8748162  16.3968318  49.6450849
  23.9938162  14.7018318  48.3590849  22.6548162  15.2888318  47.3960849
  25.6368162  15.9168318  47.0090849  24.6358162  14.8928318  46.0000849
  24.9668162  16.9598318  44.8190849  24.5188162  17.9308318  46.2270849
  23.3948162  18.4328318  43.8740849  20.8688162  18.5358318  45.6260849
  22.9208162  19.1678318  46.6230849  21.8228162  20.5618318  43.5220849
  19.5248162  21.5498318  43.8720849  19.3128162  20.4928318  45.2770849
  21.4368162  21.4398318  45.9840849  21.8518162  18.8318318  41.7670849
  20.7458162  16.8148318  41.2110849  20.8568162  16.7258318  43.7660849
  23.0178162  15.8508318  43.2050849  29.8388162  16.8778318  52.1460849
  30.5098162  17.6008318  51.6840849  30.2028162  16.3968318  53.0540849
  42.3388162  64.4808318  25.2120849  43.0578162  64.0408318  24.5210849
  42.7488162  65.0538318  26.0450849  37.1138162  66.6328318  22.7030849
  38.0438162  66.5938318  23.4910849  38.0088162  65.9988318  24.8950849
  37.2398162  66.5108318  25.4890849  39.4118162  66.2778318  25.4950849
  39.9718162  64.9108318  25.9740849  41.0178162  64.3328318  25.0420849
  38.7308162  63.9928318  26.0450849  37.8048162  64.4678318  24.9080849
  36.3378162  64.1008318  25.0470849  39.3208162  66.9698318  26.3420849
  39.3218162  67.0958318  23.2780849  39.6338162  67.9698318  22.1250849
  39.7518162  67.2598318  20.7520849  40.2848162  65.8038318  20.7350849
  41.5978162  65.5248318  21.4980849  42.4998162  66.6198318  21.3260849
  43.6298162  66.6538318  22.2270849  44.1028162  68.1318318  22.2260849
  43.1618162  68.9278318  22.9590849  45.5248162  68.3068318  22.8270849
  46.1048162  69.7228318  22.6110849  45.3538162  70.6858318  23.3530849
  46.4168162  67.3848318  22.1740849  46.0938162  66.0078318  22.3980849
  47.0798162  65.1948318  21.7920849  44.7378162  65.6828318  21.7340849
  44.4258162  64.3188318  22.0640849  40.1808162  66.9838318  24.3740849
  41.3108162  67.4398318  24.4470849  40.4168162  65.0208318  26.9730849
  40.6398162  63.7528318  24.2040849  38.2258162  64.1508318  27.0050849
  38.9878162  62.9268318  25.9590849  38.1808162  64.0668318  23.9570849
  35.6798162  64.6808318  24.3990849  40.5848162  68.4788318  22.3190849
  38.8648162  68.7498318  22.0580849  38.7548162  67.2448318  20.2940849
  40.3728162  67.8808318  20.0940849  39.5098162  65.1378318  21.1330849
  40.4268162  65.5068318  19.6890849  42.0348162  64.6018318  21.1060849
  41.3758162  65.3798318  22.5600849  43.3398162  66.3738318  23.2490849
  44.1438162  68.4718318  21.1810849  42.5658162  68.3198318  23.4560849
  45.5008162  68.1008318  23.9050849  47.1548162  69.7338318  22.9340849
  46.0858162  69.9618318  21.5390849  44.4138162  70.4128318  23.2830849
  46.0498162  65.8008318  23.4750849  46.6268162  64.3308318  21.7390849
  44.8608162  65.8168318  20.6490849  43.6428162  64.0218318  21.5510849
  33.4148162  58.2518318  25.6570849  33.7668162  59.3788318  25.3540849
  33.2268162  60.6808318  25.9280849  32.1288162  60.6758318  25.9080849
  33.7848162  61.7978318  25.0100849  34.3088162  62.9278318  25.9430849
  35.8058162  63.1698318  25.8590849  33.8728162  62.5198318  27.3670849
  33.7618162  60.9828318  27.3430849  32.8928162  60.3598318  28.4180849
  32.9878162  62.1748318  24.3570849  34.7098162  59.7098318  24.3910849
  35.3028162  58.6848318  23.5040849  36.4168162  57.8208318  24.1410849
  37.3878162  58.5328318  25.1180849  38.0458162  59.8368318  24.6200849
  38.4088162  59.6838318  23.2360849  38.8458162  60.8888318  22.5730849
  38.3818162  60.8168318  21.0940849  36.9548162  60.9108318  21.0190849
  39.0268162  61.9438318  20.2330849  38.7718162  61.7748318  18.7190849
  37.3918162  62.0028318  18.4240849  40.4588162  61.9388318  20.4240849
  40.8778162  62.1468318  21.7780849  42.2898162  62.1868318  21.8370849
  40.3898162  60.9598318  22.6280849  40.8558162  61.1248318  23.9700849
  34.8108162  61.0768318  24.1260849  35.5208162  61.5888318  23.2740849
  33.7948162  63.8628318  25.6810849  36.4288162  62.5558318  26.5080849
  32.8878162  62.9578318  27.5730849  34.5668162  62.8758318  28.1390849
  34.7758162  60.5638318  27.4210849  32.6538162  59.3088318  28.2430849
  35.7188162  59.1818318  22.6210849  34.5068162  58.0208318  23.1510849
  35.9408162  57.0008318  24.6910849  36.9938162  57.3468318  23.3370849
  36.8498162  58.7498318  26.0490849  38.1808162  57.8248318  25.3890849
  38.9158162  60.0558318  25.2490849  37.3428162  60.6658318  24.7450849
  38.4138162  61.7838318  23.0410849  38.7088162  59.8518318  20.6820849
  36.6008162  61.1638318  21.9030849  38.6198162  62.9158318  20.5430849
  39.3948162  62.4908318  18.1680849  39.0728162  60.7658318  18.4080849
  36.8798162  61.5548318  19.1300849  40.4568162  63.0848318  22.1580849
  42.4648162  61.8658318  22.7460849  40.7998162  60.0408318  22.1810849
  40.5668162  60.3348318  24.4700849  31.9468162  61.5328318  34.9810849
  32.2728162  60.9948318  33.9360849  31.3738162  60.1548318  33.0280849
  31.0588162  59.2538318  33.5660849  32.2648162  59.7768318  31.8120849
  31.5368162  60.2698318  30.5310849  32.4208162  60.9688318  29.5170849
  30.3488162  61.1488318  30.9840849  30.1648162  60.9638318  32.5080849
  28.8228162  60.3708318  32.9150849  32.4178162  58.6898318  31.7740849
  33.5118162  61.0958318  33.3200849  34.6688162  61.7348318  33.9800849
  34.6288162  63.2828318  33.9970849  34.1638162  63.9948318  32.6970849
  34.9438162  63.6728318  31.4030849  36.3468162  63.6528318  31.6950849
  37.2268162  63.5258318  30.5550849  37.5028162  62.0308318  30.2270849
  36.3478162  61.4328318  29.6290849  38.6978162  61.8968318  29.2370849
  39.1488162  60.4398318  28.9990849  38.1898162  59.7738318  28.1740849
  39.8368162  62.6248318  29.7380849  39.6218162  64.0338318  29.8920849
  40.8118162  64.6408318  30.3510849  38.5308162  64.2448318  30.9570849
  38.2678162  65.6428318  31.1070849  33.6218162  60.4208318  32.1100849
  34.6358162  60.3208318  31.4350849  31.1178162  59.3838318  30.0380849
  32.6598162  62.0078318  29.7360849  29.4348162  60.8898318  30.4320849
  30.5568162  62.2068318  30.7770849  30.2108162  61.9678318  32.9560849
  28.2378162  61.0348318  33.5520849  35.5858162  61.4178318  33.4680849
  34.7328162  61.3638318  35.0110849  33.9488162  63.5908318  34.8000849
  35.6198162  63.6548318  34.2850849  33.1018162  63.7778318  32.5270849
  34.2238162  65.0768318  32.8690849  34.7138162  64.4398318  30.6520849
  34.6118162  62.7128318  31.0030849  36.8098162  64.0258318  29.6700849
  37.7728162  61.5118318  31.1600849  35.7598162  61.1038318  30.3530849
  38.4028162  62.3128318  28.2690849  40.1298162  60.4448318  28.5060849
  39.2638162  59.9258318  29.9630849  37.3178162  59.9368318  28.5890849
  39.3158162  64.4838318  28.9400849  40.4838162  65.4488318  30.7930849
  38.8968162  63.8078318  31.8980849  37.5188162  65.7088318  31.7340849
  25.5448162  55.6288318  33.3650849  26.7078162  55.9678318  33.2240849
  27.4608162  56.0848318  31.8920849  27.5908162  55.0818318  31.4740849
  28.8358162  56.6618318  32.2980849  28.8968162  58.0908318  31.7190849
  28.2968162  59.1718318  32.6050849  28.0508162  57.9648318  30.4490849
  26.8628162  57.0448318  30.8260849  26.1458162  56.2818318  29.7060849
  29.6398162  56.0388318  31.8790849  27.6098162  56.2648318  34.2510849
  27.3378162  55.9898318  35.6810849  26.5308162  57.0638318  36.4530849
  26.7048162  58.5518318  36.0520849  28.1248162  59.1638318  36.1050849
  28.7248162  58.9128318  37.3840849  29.9318162  59.6738318  37.6300849
  31.2018162  58.8098318  37.4050849  31.3578162  58.4948318  36.0190849
  32.4588162  59.5898318  37.8930849  33.7708162  58.7798318  37.7940849
  34.1468162  58.6358318  36.4220849  32.2728162  59.9608318  39.2750849
  31.1718162  60.8558318  39.4980849  31.0888162  61.1678318  40.8740849
  29.8678162  60.1368318  39.0990849  28.7508162  61.0148318  39.2710849
  28.8858162  56.5988318  33.8130849  29.8698162  56.7898318  34.5060849
  29.9328162  58.3118318  31.4770849  27.3058162  58.9358318  32.9920849
  28.6978162  57.4868318  29.7100849  27.7238162  58.9388318  30.0620849
  26.1118162  57.6668318  31.3320849  25.3338162  55.6698318  30.1010849
  28.2998162  55.8608318  36.1920849  26.8158162  55.0298318  35.7640849
  25.4678162  56.8218318  36.3330849  26.7408162  56.9508318  37.5250849
  26.3018162  58.6908318  35.0430849  26.0608162  59.1498318  36.7070849
  28.0328162  60.2438318  35.9350849  28.7488162  58.7668318  35.3020849
  29.9908162  60.5648318  36.9860849  31.1138162  57.8908318  38.0010849
  30.6638162  57.8478318  35.7490849  32.5758162  60.4998318  37.2880849
  34.5588162  59.3078318  38.3460849  33.6318162  57.7988318  38.2670849
  33.3138162  58.4318318  35.9450849  31.3018162  61.7738318  38.9090849
  30.1628162  61.4668318  40.9600849  29.7688162  59.2478318  39.7410849
  27.9938162  60.5578318  38.8520849  28.8518162  53.3258318  25.0620849
  28.8158162  54.1368318  25.9710849  28.6298162  55.6448318  25.8330849
  29.4648162  56.0488318  25.2620849  28.6848162  56.2028318  27.2780849
  27.3598162  56.9798318  27.5100849  26.3438162  56.2328318  28.3660849
  26.8418162  57.2568318  26.0880849  27.2888162  56.0738318  25.2040849
  27.4468162  56.2708318  23.6910849  29.5458162  56.8778318  27.3720849
  28.9418162  53.8568318  27.3250849  29.2358162  52.4968318  27.8280849
  28.0448162  51.5068318  27.7740849  26.6348162  52.0828318  28.0650849
  26.4298162  52.7368318  29.4460849  26.7338162  51.7838318  30.4730849
  26.3658162  52.2258318  31.7970849  27.5768162  52.0538318  32.7410849
  28.6328162  52.9218318  32.3230849  27.1458162  52.3638318  34.2010849
  28.2658162  52.1548318  35.2400849  29.2198162  53.2158318  35.1450849
  26.0468162  51.4968318  34.5520849  24.8628162  51.6948318  33.7620849
  23.8578162  50.8008318  34.2000849  25.1898162  51.3568318  32.2910849
  24.0368162  51.5778318  31.4700849  28.9288162  54.9728318  28.1580849
  29.1298162  54.9628318  29.3620849  27.5618162  57.9638318  27.9430849
  25.6828162  55.5868318  27.7880849  27.3408162  58.1738318  25.7660849
  25.7578162  57.4258318  26.0620849  26.5678162  55.2598318  25.3650849
  27.7518162  55.3448318  23.2030849  29.5708162  52.5748318  28.8690849
  30.0738162  52.0828318  27.2520849  28.0178162  51.0738318  26.7660849
  28.2498162  50.6698318  28.4540849  26.3808162  52.8158318  27.2900849
  25.9048162  51.2708318  27.9570849  25.3858162  53.0688318  29.5220849
  27.0648162  53.6198318  29.5460849  26.0518162  53.2798318  31.8110849
  27.9068162  51.0038318  32.6990849  28.7598162  52.7748318  31.3640849
  26.8088162  53.4038318  34.2640849  27.8208162  52.1428318  36.2450849
  28.7448162  51.1808318  35.0770849  29.4848162  53.2688318  34.2040849
  24.5138162  52.7328318  33.8510849  23.2368162  50.7988318  33.4470849
  25.4948162  50.2998318  32.2570849  24.3128162  51.3808318  30.5540849
  30.0938162  60.7218318  20.7650849  29.5828162  60.2868318  21.7810849
  28.2058162  60.6568318  22.3330849  28.2308162  61.7098318  22.6410849
  28.0148162  59.7408318  23.5670849  26.8508162  58.7608318  23.2370849
  27.3048162  57.3508318  22.8870849  26.0848162  59.4178318  22.0700849
  27.0528162  60.3758318  21.3460849  26.3848162  61.6568318  20.8750849
  27.7668162  60.3438318  24.4460849  30.1688162  59.3948318  22.6700849
  31.5938162  59.0048318  22.5600849  31.8878162  57.9148318  21.4990849
  30.9928162  56.6548318  21.5630849  31.0108162  55.9028318  22.9070849
  32.2908162  55.2798318  23.1010849  32.3258162  54.3428318  24.2040849
  32.8438162  55.0178318  25.5020849  31.9128162  55.9978318  25.9710849
  33.0798162  53.9518318  26.6090849  33.7218162  54.5288318  27.8920849
  32.7858162  55.3658318  28.5760849  33.9748162  52.9418318  26.0980849
  33.4778162  52.2178318  24.9610849  34.4368162  51.2618318  24.5600849
  33.2828162  53.2068318  23.7930849  32.7438162  52.5188318  22.6610849
  29.3928162  59.1138318  23.7920849  29.7818162  58.5738318  24.8150849
  26.1418162  58.7058318  24.0670849  27.5038162  57.2088318  21.8240849
  25.2408162  59.9808318  22.4850849  25.6628162  58.6778318  21.3770849
  27.4588162  59.8438318  20.4730849  26.5438162  61.8888318  19.8200849
  31.9278162  58.6298318  23.5330849  32.1878162  59.8978318  22.3300849
  31.7718162  58.3618318  20.5040849  32.9378162  57.6118318  21.5750849
  29.9588162  56.9448318  21.3430849  31.2898162  55.9628318  20.7660849
  30.2178162  55.1438318  22.8910849  30.7998162  56.6018318  23.7170849
  31.3338162  53.9038318  24.3880849  33.8128162  55.4898318  25.2820849
  32.2868162  56.8768318  25.7220849  32.1228162  53.4858318  26.8800849
  34.0278162  53.6978318  28.5440849  34.6258162  55.0908318  27.6260849
  32.3028162  55.8538318  27.8780849  32.5288162  51.7218318  25.2060849
  34.1708162  51.0768318  23.6390849  34.2648162  53.6428318  23.5540849
  32.4268162  53.2138318  22.0510849  20.9038162  64.5798318  23.4110849
  21.7318162  64.0458318  22.6940849  22.8818162  64.7408318  21.9780849
  22.5008162  65.5968318  21.4050849  23.4678162  63.6788318  21.0170849
  25.0148162  63.7618318  21.1430849  25.6558162  62.4828318  21.6460849
  25.2978162  64.9598318  22.0810849  24.0238162  65.1698318  22.9260849
  23.7908162  66.5818318  23.4420849  23.1548162  63.8988318  19.9880849
  21.7688162  62.6998318  22.3490849  20.5618162  61.8518318  22.4890849
  20.2558162  61.3318318  23.9140849  21.4558162  60.8358318  24.7580849
  22.4518162  59.8958318  24.0510849  21.7368162  58.9108318  23.2860849
  22.5568162  58.1278318  22.3900849  21.7298162  57.8008318  21.1210849
  21.4718162  59.0018318  20.3840849  22.4738162  56.7768318  20.2120849
  21.6038162  56.2538318  19.0470849  21.3628162  57.2998318  18.1050849
  22.8618162  55.6278318  20.9990849  23.7408162  55.9168318  22.0940849
  24.0698162  54.7158318  22.7610849  22.9888162  56.8178318  23.0910849
  23.8318162  57.0848318  24.2170849  22.7798162  62.3718318  21.4400849
  22.9978162  61.2578318  20.9890849  25.4308162  63.9938318  20.1520849
  25.4828162  62.2598318  22.6950849  25.4798162  65.8498318  21.4630849
  26.1848162  64.8028318  22.7080849  24.0438162  64.4728318  23.7750849
  22.7568162  66.7818318  23.7290849  20.6628162  60.9838318  21.8290849
  19.6948162  62.4188318  22.1280849  19.7628162  62.1348318  24.4750849
  19.5178162  60.5248318  23.8320849  22.0078162  61.7058318  25.1310849
  21.0638162  60.3248318  25.6460849  23.0898162  59.4288318  24.8100849
  23.0998162  60.4938318  23.4010849  23.4468162  58.6858318  22.0800849
  20.7798162  57.3458318  21.4370849  22.0928162  59.7028318  20.6860849
  23.3708162  57.2468318  19.7880849  22.1268162  55.4208318  18.5570849
  20.6578162  55.8628318  19.4450849  21.1488162  58.0998318  18.6290849
  24.6548162  56.4098318  21.7360849  24.3238162  55.0418318  23.6450849
  22.0828162  56.2768318  23.4030849  23.3158162  57.6668318  24.8080849
  27.9548162  70.4818318  26.3100849  26.8678162  69.9438318  26.1640849
  25.6768162  70.5008318  25.3870849  25.2908162  71.3738318  25.9220849
  24.6208162  69.3698318  25.3990849  24.3148162  68.9948318  23.9220849
  24.6918162  67.5758318  23.5240849  25.0298162  70.0358318  23.0270849
  26.0118162  70.8308318  23.9170849  26.0418162  72.3278318  23.6510849
  23.7098162  69.7268318  25.8960849  26.5008162  68.7028318  26.6630849
  27.2268162  68.0788318  27.7910849  28.5718162  67.3978318  27.4380849
  28.6838162  66.7098318  26.0520849  27.5488162  65.7418318  25.6640849
  27.2338162  64.8988318  26.7890849  25.9818162  64.1838318  26.6860849
  25.3658162  64.0438318  28.1040849  24.9578162  65.3248318  28.5930849
  24.1488162  63.0658318  28.1120849  23.6788162  62.6978318  29.5370849
  23.0838162  63.8308318  30.1710849  24.5048162  61.8278318  27.4530849
  24.9398162  61.9818318  26.0980849  25.2318162  60.7218318  25.5400849
  26.2548162  62.7768318  26.1210849  26.8148162  62.8428318  24.8080849
  25.2308162  68.2738318  26.2740849  24.6868162  67.2338318  26.6150849
  23.2308162  69.1128318  23.7780849  25.7358162  67.4198318  23.2530849
  24.2898162  70.6968318  22.5620849  25.5658162  69.5578318  22.1980849
  27.0158162  70.4318318  23.7090849  27.0348162  72.7008318  23.3990849
  26.5758162  67.3278318  28.2510849  27.4038162  68.8428318  28.5560849
  29.3588162  68.1598318  27.4910849  28.8058162  66.6698318  28.2250849
  28.7538162  67.4848318  25.2790849  29.6348162  66.1638318  26.0190849
  27.8658162  65.1578318  24.7940849  26.6738162  66.3218318  25.3590849
  25.2648162  64.7158318  26.0430849  26.1338162  63.6298318  28.7720849
  24.8288162  65.9418318  27.8350849  23.3058162  63.5308318  27.5820849
  22.9488162  61.8808318  29.4740849  24.5338162  62.3338318  30.1220849
  23.6488162  64.6048318  29.9640849  24.1768162  62.4978318  25.5010849
  25.8968162  60.9818318  24.8740849  26.9418162  62.2588318  26.8090849
  27.5408162  63.4938318  24.8830849  23.6978162  77.2768318  24.7280849
  23.5768162  76.1178318  25.0900849  22.5308162  75.1148318  24.5960849
  21.5628162  75.3818318  25.0390849  22.9998162  73.7688318  25.1960849
  23.5558162  72.9448318  24.0150849  25.0268162  73.2148318  23.7110849
  22.7138162  73.4298318  22.8190849  22.4508162  74.9418318  23.0500849
  21.1298162  75.4768318  22.4960849  22.1558162  73.2498318  25.6670849
  24.3468162  75.4798318  26.0600849  25.2208162  76.2178318  26.9980849
  26.6278162  76.5638318  26.4570849  27.4008162  75.4508318  25.7000849
  27.5948162  74.0948318  26.4190849  27.9428162  74.3288318  27.7910849
  28.4078162  73.1598318  28.5020849  27.2768162  72.5428318  29.3680849
  26.2638162  71.9598318  28.5410849  27.8688162  71.4458318  30.3010849
  26.8418162  70.8438318  31.2850849  25.9098162  70.0258318  30.5750849
  28.9348162  72.0188318  31.0850849  30.0488162  72.4908318  30.3130849
  31.0328162  73.0138318  31.1830849  29.5618162  73.6368318  29.4060849
  30.6408162  74.1048318  28.5910849  24.0168162  74.1458318  26.2630849
  24.4178162  73.4288318  27.1650849  23.3778162  71.8828318  24.2110849
  25.2508162  74.2548318  23.4800849  21.7708162  72.8798318  22.8000849
  23.2328162  73.2298318  21.8740849  23.2748162  75.5178318  22.6060849
  20.5758162  76.0998318  23.1980849  25.3408162  75.6208318  27.9110849
  24.7138162  77.1468318  27.2890849  26.5238162  77.4168318  25.7730849
  27.2398162  76.9228318  27.2930849  26.9138162  75.2698318  24.7360849
  28.3948162  75.8448318  25.4570849  28.3918162  73.5418318  25.9050849
  26.6878162  73.4898318  26.3430849  28.7968162  72.3938318  27.8140849
  26.8468162  73.3338318  30.0010849  25.7658162  72.6788318  28.0890849
  28.2718162  70.6318318  29.6840849  27.3748162  70.2428318  32.0350849
  26.3248162  71.6548318  31.8170849  25.6528162  70.5408318  29.7820849
  30.4698162  71.6748318  29.7110849  31.5388162  73.6048318  30.5920849
  29.1878162  74.4398318  30.0590849  30.2288162  74.6878318  27.9220849
  16.9138162  73.9338318  18.3450849  17.9218162  73.6588318  18.9710849
  19.3628162  73.8198318  18.4860849  19.5258162  73.1728318  17.6130849
  20.2458162  73.3488318  19.6740849  21.1368162  74.5538318  20.0810849
  20.5818162  75.3168318  21.2750849  21.1468162  75.4448318  18.8230849
  19.7498162  75.2848318  18.1830849  19.6488162  75.6088318  16.7020849
  20.8648162  72.4988318  19.3600849  17.9668162  73.1418318  20.2610849
  16.7498162  72.6848318  20.9690849  15.8568162  73.8118318  21.5430849
  16.5688162  74.9768318  22.2800849  17.5228162  74.5908318  23.4300849
  16.8958162  73.5908318  24.2500849  17.6068162  73.2078318  25.4510849
  18.6768162  72.1248318  25.1390849  19.7778162  72.7288318  24.4580849
  19.2048162  71.4368318  26.4350849  20.0878162  70.1958318  26.1550849
  21.2298162  70.5588318  25.3730849  18.0848162  70.9828318  27.2190849
  17.1968162  72.0208318  27.6590849  16.1728162  71.4498318  28.4470849
  16.5398162  72.6528318  26.4170849  15.6688162  73.7158318  26.8150849
  19.2488162  72.8738318  20.7330849  19.5218162  72.3168318  21.7850849
  22.1598162  74.2208318  20.2750849  19.6288162  75.8088318  21.0820849
  21.9168162  75.0668318  18.1380849  21.3818162  76.4938318  19.0500849
  19.0518162  75.9398318  18.7220849  18.6708162  75.3968318  16.2650849
  17.0498162  72.0308318  21.7980849  16.1548162  72.0738318  20.2780849
  15.2848162  74.2458318  20.7130849  15.1148162  73.3598318  22.2130849
  17.1268162  75.5738318  21.5500849  15.7968162  75.6438318  22.6840849
  17.7538162  75.4878318  24.0190849  18.4578162  74.2238318  23.0030849
  18.0858162  74.0758318  25.9250849  18.2088162  71.3468318  24.5140849
  19.5738162  72.7008318  23.4910849  19.7918162  72.1588318  27.0190849
  20.4048162  69.7568318  27.1130849  19.4878162  69.4388318  25.6320849
  20.9268162  71.3018318  24.8090849  17.7428162  72.7768318  28.2390849
  15.4728162  72.1308318  28.4120849  15.9788162  71.8588318  25.9010849
  15.3728162  74.1488318  25.9900849  20.6198162  76.1128318  15.9220849
  21.6118162  76.3618318  16.2930849  20.4388162  76.3098318  14.8660849
  79.5769150  84.6437820  62.3956940  78.8011250  84.1638260  62.6855510
  80.2282080  83.9643470  62.2213100  73.5934980  84.9557630  63.2732700
  72.7619860  84.7006340  63.6729210  74.2015960  85.0268400  64.0090620
  73.5736240  88.9897720  63.4690720  73.8764280  88.0995460  63.2900940
  74.3179830  89.5467940  63.2412970  72.0026930  79.9159520  57.0575090
  71.1143630  80.2575490  56.9554970  72.2868120  79.7159840  56.1655920
  69.9659940  82.5165170  62.9414790  70.5376050  81.7487370  62.9418430
  69.9661480  82.8153930  62.0321400  79.0178140  87.3195010  62.4027100
  78.9486420  86.3784950  62.2416230  79.7798000  87.4096420  62.9749670
  71.2084810  77.9249530  64.7283720  71.0287650  77.0275280  65.0086480
  70.8064890  78.4721400  65.4030670  80.0483310  80.1265390  62.6296030
  80.4248130  79.2537270  62.5169700  79.9502820  80.4624090  61.7386470
  74.1788320  78.4991020  58.0913470  74.2855070  79.3994750  58.3982230
  73.2680680  78.4508990  57.8008120  71.8271480  80.4210030  63.3366060
  72.5081590  80.6848400  63.9553460  71.5119530  79.5810900  63.6704070
  76.0196050  81.4677390  62.4238650  76.5274270  81.9658360  63.0643670
  76.5509290  80.6912590  62.2478010  75.5535000  85.7471130  64.8675570
  75.2204380  86.3740050  65.5096640  75.7301680  86.2733010  64.0877240
  73.9847480  77.8185910  64.6972520  74.3264290  78.6627960  64.4026390
  73.0463290  77.9669650  64.8137860  70.0586440  86.9051790  55.5631600
  69.6814420  87.3938890  54.8316500  70.3159510  87.5777070  56.1938130
  77.6675370  75.3068180  61.0217110  77.9750350  74.7515070  60.3052610
  76.7376070  75.4412640  60.8390100  80.0556130  83.3717010  57.7577230
  79.1285410  83.3054390  57.9865700  80.2080950  84.3097140  57.6432470
  80.0425210  79.6434010  54.7544390  79.1028880  79.8047970  54.8396850
  80.3608470  80.3619690  54.2080380  75.6612770  83.8981750  60.5396960
  75.2569770  83.1859000  60.0442860  75.7475890  83.5534990  61.4285000
  76.1294470  87.5849310  62.7036170  75.8322760  86.9794780  62.0243950
  77.0794290  87.6226620  62.5925530  74.3741390  80.6724960  64.3196000
  74.9255980  80.7820300  63.5449250  74.8884900  81.0462560  65.0351230
  72.3617400  82.7926730  58.0403610  72.2415000  83.5188820  57.4284880
  72.0518290  82.0229640  57.5631520  70.0002770  85.9641870  63.8472250
  70.0783190  86.0990640  62.9027970  70.6144450  85.2557760  64.0400370
  71.2450400  87.6642060  60.2578430  70.8378480  87.8056650  59.4032030
  72.1363410  87.3802220  60.0549640  74.8281060  76.1361800  61.4227280
  74.3849210  76.9171340  61.0911800  75.3866050  76.4591690  62.1298220
  77.9439880  75.7572500  56.3033110  77.3194060  75.7532370  57.0286420
  77.8570000  74.8903460  55.9069080  76.8656960  76.6809130  63.2816880
  77.1629290  77.5871960  63.2008900  77.4142520  76.1927910  62.6676450
  74.6195280  81.2595370  59.1508530  74.3936200  81.0432540  60.0555150
  73.8387810  81.6923830  58.8054500  69.4922080  76.4923080  62.0032660
  69.2035130  77.0625940  62.7157640  70.2367840  76.0127530  62.3663890
  69.6792310  80.4343200  53.2135380  69.5966980  81.3773960  53.3550370
  69.3275370  80.2918110  52.3347730  77.4790440  79.1682230  62.2805730
  77.4826500  78.7272180  61.4310270  78.3741560  79.4899560  62.3877550
  73.3292820  79.0508720  61.2399940  72.9892870  79.5283950  61.9966990
  72.5670140  78.5973840  60.8801040  77.5410590  80.1694310  55.2712490
  77.6623410  80.1280790  56.2198310  77.1559100  81.0318460  55.1159220
  76.5532090  82.4795450  54.6695790  75.9848990  82.0313700  54.0431700
  77.2621090  82.8388230  54.1360940  77.7798410  83.2284010  64.0271140
  78.1468540  82.7542580  64.7732480  77.5903470  84.1025580  64.3679480
  70.6438900  77.9727700  60.1564610  70.3585820  77.6083370  60.9943230
  70.5817760  77.2408160  59.5427750  74.0979570  86.4753640  56.9422200
  73.3241830  85.9351260  56.7820920  74.8274200  85.9560250  56.6039960
  80.3177490  76.8656960  56.8777980  79.5042100  76.3670130  56.8023290
  80.1239440  77.7055210  56.4614330  74.1416970  86.1434020  60.5801010
  74.6595640  85.3402280  60.5257900  73.6900990  86.0813160  61.4217840
  79.0286470  87.4100300  55.8528310  79.3702170  88.1542530  55.3571630
  78.1999180  87.7231420  56.2153140  77.9977160  87.4913830  58.6244230
  78.6848290  88.0383040  59.0051820  77.2109580  88.0354560  58.6593840
  70.1369560  83.1086650  54.1161310  71.0064410  83.3911450  54.3997230
  69.6459880  83.9222520  54.0010120  77.3004370  84.4959860  58.2369590
  77.7567150  85.3065110  58.4629780  76.9492580  84.1783000  59.0688080
  79.6036980  90.0066200  65.4661890  80.2479200  90.2125580  66.1435310
  79.9666420  89.2454600  65.0132740  73.2016150  74.8397510  58.7092110
  73.0730780  74.8315410  59.6577030  72.3778170  75.1780600  58.3583120
  76.5209430  89.7045230  55.4996610  76.5119530  90.4374920  54.8841120
  75.6007790  89.4576810  55.5923570  72.1216070  84.9260120  56.2443370
  71.5144020  85.6659020  56.2538670  72.5965420  85.0159480  55.4181570
  79.5069030  89.7673470  54.1621800  79.6081010  89.5637460  53.2323780
  78.6070770  89.5131750  54.3669580  77.0294920  80.3253830  58.1445700
  76.3211070  80.7940170  58.5859310  77.3139400  79.6675840  58.7790890
  75.2329940  78.6338910  55.5196410  76.0820470  79.0709060  55.4536600
  74.8661210  78.9459170  56.3468470  74.1321360  84.8871270  53.9931940
  74.8984630  84.7752630  54.5557370  74.2096050  84.1909240  53.3408710
  72.8268120  82.3196340  54.6764830  72.9071710  81.3723850  54.7882230
  73.7187870  82.6503220  54.7825490  70.5128310  88.5365300  57.6540880
  69.5868090  88.7786440  57.6446290  70.9784740  89.3639560  57.5325630
  77.2562540  86.8625450  53.4667290  77.1513180  86.2477800  54.1928670
  77.0886760  86.3391340  52.6830300  76.1640390  84.8836400  55.9674580
  76.5856810  84.7176270  56.8105970  76.2891230  84.0736630  55.4729720
  78.6768030  83.9074010  53.2151680  79.1973690  83.1923030  52.8492830
  79.3236430  84.5459880  53.5152190  77.5801550  76.3868560  65.8870240
  77.1318850  76.4092820  65.0415790  76.9466750  75.9887580  66.4840540
  77.9861100  85.2822890  66.5082680  78.4049210  86.1255620  66.3358920
  77.0669730  85.4194930  66.2789460  75.0599290  80.9569630  52.9132740
  74.8588350  80.0936990  53.2746080  74.8891340  80.8702990  51.9754340
  73.8582090  78.0570250  52.9010620  74.1607990  78.0637680  51.9929770
  74.5976680  77.7068110  53.3978280  77.0767020  77.0004870  53.8866820
  76.7289020  76.3228860  53.3069270  77.2779790  76.5394380  54.7010210
  72.8812220  87.3612670  53.7340420  73.3187090  87.9042340  54.3898000
  73.3659950  86.5359620  53.7436760  70.0958020  90.1501700  61.1860680
  70.4261030  89.2822760  60.9539320  70.5249020  90.3560220  62.0165640
  74.6919940  88.4810710  58.8462650  74.3915480  88.3575680  59.7466560
  74.5857430  87.6219300  58.4378380  70.4172660  83.5292520  60.2831190
  69.7621500  83.2604160  59.6390890  71.2550610  83.4197000  59.8333170
  71.4548590  83.9145090  64.8234530  71.8221630  83.8272490  65.7030550
  70.8859410  83.1511640  64.7241390  69.6310740  80.7391450  56.2256520
  68.7274820  81.0021650  56.0508180  70.1151360  81.0102620  55.4456480
  72.1737950  79.7956990  54.1350900  72.8829650  79.3740210  53.6498180
  71.4577890  79.8632220  53.5034250  71.8212110  75.8496320  53.1753550
  72.5440240  76.3905260  53.4934770  72.0936630  75.5759740  52.2995090
  71.5104300  75.1002510  63.0776170  72.1580490  74.5499890  62.6371330
  71.9306140  75.3545660  63.8991980  76.5706700  89.9837370  65.5864400
  76.3298060  90.2511930  64.6994920  77.5109340  90.1543100  65.6415260
  72.3400930  88.7398410  66.0560500  71.6134990  88.1203700  65.9886450
  72.4010080  89.1339020  65.1858580  79.9018540  75.5842100  64.2475400
  79.1190330  76.0587600  64.5272160  79.6081470  74.6796930  64.1388580
  71.2458950  75.8889580  56.7689120  72.0038310  76.0018460  56.1953150
  70.7836120  76.7258780  56.7232550  77.7872760  78.0028850  59.7591430
  76.9747270  77.6285740  59.4187310  78.2914400  77.2473930  60.0612620
  73.6184100  76.4153630  55.3091090  74.1476860  75.6283430  55.1799040
  74.2512420  77.0944820  55.5426620  75.8121940  76.1528770  58.3636480
  75.1824680  75.4516080  58.5306610  75.2727080  76.9132900  58.1469640
  73.9901390  88.8153140  55.5902980  73.3610270  89.2838240  56.1388810
  74.1049220  87.9702360  56.0249170  79.5769150  84.6437820  43.6213450
  78.8011250  84.1638260  43.9112020  80.2282080  83.9643470  43.4469610
  73.5934980  84.9557630  44.4989210  72.7619860  84.7006340  44.8985720
  74.2015960  85.0268400  45.2347130  73.5736240  88.9897720  44.6947230
  73.8764280  88.0995460  44.5157450  74.3179830  89.5467940  44.4669480
  72.0026930  79.9159520  38.2831600  71.1143630  80.2575490  38.1811480
  72.2868120  79.7159840  37.3912430  69.9659940  82.5165170  44.1671300
  70.5376050  81.7487370  44.1674940  69.9661480  82.8153930  43.2577910
  79.0178140  87.3195010  43.6283610  78.9486420  86.3784950  43.4672740
  79.7798000  87.4096420  44.2006180  71.2084810  77.9249530  45.9540230
  71.0287650  77.0275280  46.2342990  70.8064890  78.4721400  46.6287180
  80.0483310  80.1265390  43.8552540  80.4248130  79.2537270  43.7426210
  79.9502820  80.4624090  42.9642980  74.1788320  78.4991020  39.3169980
  74.2855070  79.3994750  39.6238740  73.2680680  78.4508990  39.0264630
  71.8271480  80.4210030  44.5622570  72.5081590  80.6848400  45.1809970
  71.5119530  79.5810900  44.8960580  76.0196050  81.4677390  43.6495160
  76.5274270  81.9658360  44.2900180  76.5509290  80.6912590  43.4734520
  74.3032150  76.1075950  47.9158580  74.3050590  76.6248340  47.1104480
  73.4736460  75.6306130  47.8928510  75.5535000  85.7471130  46.0932080
  75.2204380  86.3740050  46.7353150  75.7301680  86.2733010  45.3133750
  73.9847480  77.8185910  45.9229030  74.3264290  78.6627960  45.6282900
  73.0463290  77.9669650  46.0394370  74.7654100  87.7151930  47.9081260
  75.3828100  88.3903010  47.6265710  73.9047220  88.1239910  47.8168760
  70.0586440  86.9051790  36.7888110  69.6814420  87.3938890  36.0573010
  70.3159510  87.5777070  37.4194640  77.6675370  75.3068180  42.2473620
  77.9750350  74.7515070  41.5309120  76.7376070  75.4412640  42.0646610
  80.0556130  83.3717010  38.9833740  79.1285410  83.3054390  39.2122210
  80.2080950  84.3097140  38.8688980  80.0425210  79.6434010  35.9800900
  79.1028880  79.8047970  36.0653360  80.3608470  80.3619690  35.4336890
  75.6612770  83.8981750  41.7653470  75.2569770  83.1859000  41.2699370
  75.7475890  83.5534990  42.6541510  76.1294470  87.5849310  43.9292680
  75.8322760  86.9794780  43.2500460  77.0794290  87.6226620  43.8182040
  74.3741390  80.6724960  45.5452510  74.9255980  80.7820300  44.7705760
  74.8884900  81.0462560  46.2607740  75.2212900  87.3231000  50.5800480
  74.3241430  87.5470970  50.8273880  75.2465770  87.4465940  49.6311880
  74.0484120  84.1944320  49.1557850  73.9091890  85.0667120  49.5245250
  73.1665480  83.8517130  49.0105790  75.8464470  90.1366020  51.3643000
  75.8179900  90.5408970  50.4971430  75.6829440  89.2076380  51.2014600
  72.3617400  82.7926730  39.2660120  72.2415000  83.5188820  38.6541390
  72.0518290  82.0229640  38.7888030  70.0002770  85.9641870  45.0728760
  70.0783190  86.0990640  44.1284480  70.6144450  85.2557760  45.2656880
  71.2450400  87.6642060  41.4834940  70.8378480  87.8056650  40.6288540
  72.1363410  87.3802220  41.2806150  70.0562290  87.0056040  47.6123220
  70.2193330  86.5361400  46.7942590  70.5214740  86.4979600  48.2772060
  74.8281060  76.1361800  42.6483790  74.3849210  76.9171340  42.3168310
  75.3866050  76.4591690  43.3554730  79.1150870  79.0030320  48.2519110
  78.6530240  79.2113340  49.0639050  78.7128980  78.1889670  47.9489780
  77.9439880  75.7572500  37.5289620  77.3194060  75.7532370  38.2542930
  77.8570000  74.8903460  37.1325590  76.8656960  76.6809130  44.5073390
  77.1629290  77.5871960  44.4265410  77.4142520  76.1927910  43.8932960
  74.6195280  81.2595370  40.3765040  74.3936200  81.0432540  41.2811660
  73.8387810  81.6923830  40.0311010  77.0594490  82.1580950  51.0425310
  76.9638090  81.2175680  50.8925710  77.9026470  82.3796020  50.6473380
  72.1905030  78.5694620  49.1959090  71.7968420  79.4169830  49.4031870
  71.5023430  77.9320990  49.3867730  78.7650080  78.6529590  52.2655830
  78.0748400  78.4601790  52.9001920  79.5082380  78.9364230  52.7980130
  69.4922080  76.4923080  43.2289170  69.2035130  77.0625940  43.9414150
  70.2367840  76.0127530  43.5920400  69.6792310  80.4343200  34.4391890
  69.5966980  81.3773960  34.5806880  69.3275370  80.2918110  33.5604240
  77.4790440  79.1682230  43.5062240  77.4826500  78.7272180  42.6566780
  78.3741560  79.4899560  43.6134060  73.3292820  79.0508720  42.4656450
  72.9892870  79.5283950  43.2223500  72.5670140  78.5973840  42.1057550
  77.5410590  80.1694310  36.4969000  77.6623410  80.1280790  37.4454820
  77.1559100  81.0318460  36.3415730  76.5532090  82.4795450  35.8952300
  75.9848990  82.0313700  35.2688210  77.2621090  82.8388230  35.3617450
  71.6301270  86.3807470  49.7719030  71.2456060  85.7401140  50.3701990
  71.9413460  87.0843590  50.3413760  77.7798410  83.2284010  45.2527650
  78.1468540  82.7542580  45.9988990  77.5903470  84.1025580  45.5935990
  70.6438900  77.9727700  41.3821120  70.3585820  77.6083370  42.2199740
  70.5817760  77.2408160  40.7684260  75.5697780  82.2692650  47.5711860
  75.2654850  83.1484630  47.7962220  76.5244240  82.3292440  47.6069300
  74.0979570  86.4753640  38.1678710  73.3241830  85.9351260  38.0077430
  74.8274200  85.9560250  37.8296470  80.3177490  76.8656960  38.1034490
  79.5042100  76.3670130  38.0279800  80.1239440  77.7055210  37.6870840
  80.2386350  85.5428060  49.8474100  80.1723660  84.6223730  49.5931690
  79.6091490  85.6403500  50.5618740  74.1416970  86.1434020  41.8057520
  74.6595640  85.3402280  41.7514410  73.6900990  86.0813160  42.6474350
  79.0286470  87.4100300  37.0784820  79.3702170  88.1542530  36.5828140
  78.1999180  87.7231420  37.4409650  71.6261510  83.1095390  48.7183220
  71.2676450  83.7749240  49.3056560  71.3316070  82.2778940  49.0895840
  74.8274630  83.5679630  51.6022770  74.5274770  83.7136810  50.7050590
  75.5985870  83.0084920  51.5096160  80.1703080  88.3648630  49.5977900
  80.1847620  87.4329590  49.3796810  79.4628180  88.4508390  50.2367670
  77.9977160  87.4913830  39.8500740  78.6848290  88.0383040  40.2308330
  77.2109580  88.0354560  39.8850350  70.1369560  83.1086650  35.3417820
  71.0064410  83.3911450  35.6253740  69.6459880  83.9222520  35.2266630
  77.3004370  84.4959860  39.4626100  77.7567150  85.3065110  39.6886290
  76.9492580  84.1783000  40.2944590  79.6036980  90.0066200  46.6918400
  80.2479200  90.2125580  47.3691820  79.9666420  89.2454600  46.2389250
  73.2016150  74.8397510  39.9348620  73.0730780  74.8315410  40.8833540
  72.3778170  75.1780600  39.5839630  70.2010080  76.5988630  49.3955320
  69.4868600  76.7985550  50.0007930  70.6205120  75.8228200  49.7670120
  70.4882670  90.5868890  50.3821850  70.5973790  89.6463630  50.2417240
  69.8363230  90.8523640  49.7335580  78.4795260  88.8584780  51.7819970
  78.1592130  88.1394020  52.3265660  77.8053620  89.5339850  51.8556030
  76.5209430  89.7045230  36.7253120  76.5119530  90.4374920  36.1097630
  75.6007790  89.4576810  36.8180080  72.1216070  84.9260120  37.4699880
  71.5144020  85.6659020  37.4795180  72.5965420  85.0159480  36.6438080
  79.5069030  89.7673470  35.3878310  79.6081010  89.5637460  34.4580290
  78.6070770  89.5131750  35.5926090  77.0294920  80.3253830  39.3702210
  76.3211070  80.7940170  39.8115820  77.3139400  79.6675840  40.0047400
  78.6550850  81.7450530  47.3694740  79.1536100  82.2196350  48.0346590
  78.7973800  80.8214050  47.5764770  75.2329940  78.6338910  36.7452920
  76.0820470  79.0709060  36.6793110  74.8661210  78.9459170  37.5724980
  74.1321360  84.8871270  35.2188450  74.8984630  84.7752630  35.7813880
  74.2096050  84.1909240  34.5665220  72.8268120  82.3196340  35.9021340
  72.9071710  81.3723850  36.0138740  73.7187870  82.6503220  36.0082000
  70.5128310  88.5365300  38.8797390  69.5868090  88.7786440  38.8702800
  70.9784740  89.3639560  38.7582140  70.3538920  84.1411260  51.1377510
  70.8577940  83.5618540  51.7093740  69.6146340  84.4251490  51.6753880
  77.2562540  86.8625450  34.6923800  77.1513180  86.2477800  35.4185180
  77.0886760  86.3391340  33.9086810  77.4076860  85.5482250  50.6713030
  76.6422530  86.1167250  50.5867700  77.5892820  85.2558460  49.7781260
  72.3862000  82.2840850  52.0327580  72.4267340  81.9854720  52.9412810
  73.2407500  82.6848460  51.8735100  76.1640390  84.8836400  37.1931090
  76.5856810  84.7176270  38.0362480  76.2891230  84.0736630  36.6986230
  74.3267810  80.8632950  50.0002070  73.7964270  80.3723900  49.3725410
  74.9955880  81.2917150  49.4660000  78.6768030  83.9074010  34.4408190
  79.1973690  83.1923030  34.0749340  79.3236430  84.5459880  34.7408700
  74.8140110  77.8295320  50.0799360  74.7196980  77.2116070  49.3550230
  74.2337500  78.5561610  49.8529270  77.5801550  76.3868560  47.1126750
  77.1318850  76.4092820  46.2672300  76.9466750  75.9887580  47.7097050
  77.9861100  85.2822890  47.7339190  78.4049210  86.1255620  47.5615430
  77.0669730  85.4194930  47.5045970  75.0599290  80.9569630  34.1389250
  74.8588350  80.0936990  34.5002590  74.8891340  80.8702990  33.2010850
  77.0893770  79.5560420  50.3752850  77.6793460  79.2476270  51.0630670
  76.2714010  79.0840170  50.5312750  73.8582090  78.0570250  34.1267130
  74.1607990  78.0637680  33.2186280  74.5976680  77.7068110  34.6234790
  77.0767020  77.0004870  35.1123330  76.7289020  76.3228860  34.5325780
  77.2779790  76.5394380  35.9266720  72.8812220  87.3612670  34.9596930
  73.3187090  87.9042340  35.6154510  73.3659950  86.5359620  34.9693270
  70.0958020  90.1501700  42.4117190  70.4261030  89.2822760  42.1795830
  70.5249020  90.3560220  43.2422150  74.6919940  88.4810710  40.0719160
  74.3915480  88.3575680  40.9723070  74.5857430  87.6219300  39.6634890
  70.4172660  83.5292520  41.5087700  69.7621500  83.2604160  40.8647400
  71.2550610  83.4197000  41.0589680  71.4548590  83.9145090  46.0491040
  71.8221630  83.8272490  46.9287060  70.8859410  83.1511640  45.9497900
  71.0064590  80.8254180  49.9549460  70.1120640  80.7920940  50.2943170
  71.5462140  81.0240970  50.7200710  69.6310740  80.7391450  37.4513030
  68.7274820  81.0021650  37.2764690  70.1151360  81.0102620  36.6712990
  72.1737950  79.7956990  35.3607410  72.8829650  79.3740210  34.8754690
  71.4577890  79.8632220  34.7290760  71.8212110  75.8496320  34.4010060
  72.5440240  76.3905260  34.7191280  72.0936630  75.5759740  33.5251600
  71.5104300  75.1002510  44.3032680  72.1580490  74.5499890  43.8627840
  71.9306140  75.3545660  45.1248490  71.2636300  75.2558180  47.0458000
  70.9151120  75.7122000  47.8116180  70.9324000  74.3615310  47.1280430
  72.8700670  88.4277780  51.2111190  72.8270300  88.0570690  52.0925650
  73.0011680  89.3655350  51.3513010  76.5706700  89.9837370  46.8120910
  76.3298060  90.2511930  45.9251430  77.5109340  90.1543100  46.8671770
  78.7761120  76.4470060  50.5677420  78.7150010  77.0391890  51.3172830
  79.7161500  76.3396020  50.4227680  71.9356940  74.7834380  50.3208770
  72.4839930  74.6022430  49.5574880  72.0012250  73.9928490  50.8565080
  72.3400930  88.7398410  47.2817010  71.6134990  88.1203700  47.2142960
  72.4010080  89.1339020  46.4115090  79.9018540  75.5842100  45.4731910
  79.1190330  76.0587600  45.7528670  79.6081470  74.6796930  45.3645090
  71.2458950  75.8889580  37.9945630  72.0038310  76.0018460  37.4209660
  70.7836120  76.7258780  37.9489060  77.7872760  78.0028850  40.9847940
  76.9747270  77.6285740  40.6443820  78.2914400  77.2473930  41.2869130
  73.6184100  76.4153630  36.5347600  74.1476860  75.6283430  36.4055550
  74.2512420  77.0944820  36.7683130  75.8121940  76.1528770  39.5892990
  75.1824680  75.4516080  39.7563120  75.2727080  76.9132900  39.3726150
  75.9377500  75.4312750  52.0245480  75.6561770  75.9346350  51.2606300
  76.3197200  74.6334500  51.6587610  73.9901390  88.8153140  36.8159490
  73.3610270  89.2838240  37.3645320  74.1049220  87.9702360  37.2505680
  79.5769150  84.6437820  24.8469960  78.8011250  84.1638260  25.1368530
  80.2282080  83.9643470  24.6726120  73.5934980  84.9557630  25.7245720
  72.7619860  84.7006340  26.1242230  74.2015960  85.0268400  26.4603640
  73.5736240  88.9897720  25.9203740  73.8764280  88.0995460  25.7413960
  74.3179830  89.5467940  25.6925990  72.0026930  79.9159520  19.5088110
  71.1143630  80.2575490  19.4067990  72.2868120  79.7159840  18.6168940
  69.9659940  82.5165170  25.3927810  70.5376050  81.7487370  25.3931450
  69.9661480  82.8153930  24.4834420  79.0178140  87.3195010  24.8540120
  78.9486420  86.3784950  24.6929250  79.7798000  87.4096420  25.4262690
  71.2084810  77.9249530  27.1796740  71.0287650  77.0275280  27.4599500
  70.8064890  78.4721400  27.8543690  80.0483310  80.1265390  25.0809050
  80.4248130  79.2537270  24.9682720  79.9502820  80.4624090  24.1899490
  74.1788320  78.4991020  20.5426490  74.2855070  79.3994750  20.8495250
  73.2680680  78.4508990  20.2521140  71.8271480  80.4210030  25.7879080
  72.5081590  80.6848400  26.4066480  71.5119530  79.5810900  26.1217090
  76.0196050  81.4677390  24.8751670  76.5274270  81.9658360  25.5156690
  76.5509290  80.6912590  24.6991030  74.3032150  76.1075950  29.1415090
  74.3050590  76.6248340  28.3360990  73.4736460  75.6306130  29.1185020
  75.5535000  85.7471130  27.3188590  75.2204380  86.3740050  27.9609660
  75.7301680  86.2733010  26.5390260  73.9847480  77.8185910  27.1485540
  74.3264290  78.6627960  26.8539410  73.0463290  77.9669650  27.2650880
  74.7654100  87.7151930  29.1337770  75.3828100  88.3903010  28.8522220
  73.9047220  88.1239910  29.0425270  70.0586440  86.9051790  18.0144620
  69.6814420  87.3938890  17.2829520  70.3159510  87.5777070  18.6451150
  77.6675370  75.3068180  23.4730130  77.9750350  74.7515070  22.7565630
  76.7376070  75.4412640  23.2903120  80.0556130  83.3717010  20.2090250
  79.1285410  83.3054390  20.4378720  80.2080950  84.3097140  20.0945490
  80.0425210  79.6434010  17.2057410  79.1028880  79.8047970  17.2909870
  80.3608470  80.3619690  16.6593400  75.6612770  83.8981750  22.9909980
  75.2569770  83.1859000  22.4955880  75.7475890  83.5534990  23.8798020
  76.1294470  87.5849310  25.1549190  75.8322760  86.9794780  24.4756970
  77.0794290  87.6226620  25.0438550  74.3741390  80.6724960  26.7709020
  74.9255980  80.7820300  25.9962270  74.8884900  81.0462560  27.4864250
  75.2212900  87.3231000  31.8056990  74.3241430  87.5470970  32.0530390
  75.2465770  87.4465940  30.8568390  74.0484120  84.1944320  30.3814360
  73.9091890  85.0667120  30.7501760  73.1665480  83.8517130  30.2362300
  75.8464470  90.1366020  32.5899510  75.8179900  90.5408970  31.7227940
  75.6829440  89.2076380  32.4271110  72.3617400  82.7926730  20.4916630
  72.2415000  83.5188820  19.8797900  72.0518290  82.0229640  20.0144540
  70.0002770  85.9641870  26.2985270  70.0783190  86.0990640  25.3540990
  70.6144450  85.2557760  26.4913390  71.2450400  87.6642060  22.7091450
  70.8378480  87.8056650  21.8545050  72.1363410  87.3802220  22.5062660
  70.0562290  87.0056040  28.8379730  70.2193330  86.5361400  28.0199100
  70.5214740  86.4979600  29.5028570  74.8281060  76.1361800  23.8740300
  74.3849210  76.9171340  23.5424820  75.3866050  76.4591690  24.5811240
  79.1150870  79.0030320  29.4775620  78.6530240  79.2113340  30.2895560
  78.7128980  78.1889670  29.1746290  77.9439880  75.7572500  18.7546130
  77.3194060  75.7532370  19.4799440  77.8570000  74.8903460  18.3582100
  76.8656960  76.6809130  25.7329900  77.1629290  77.5871960  25.6521920
  77.4142520  76.1927910  25.1189470  74.6195280  81.2595370  21.6021550
  74.3936200  81.0432540  22.5068170  73.8387810  81.6923830  21.2567520
  77.0594490  82.1580950  32.2681820  76.9638090  81.2175680  32.1182220
  77.9026470  82.3796020  31.8729890  72.1905030  78.5694620  30.4215600
  71.7968420  79.4169830  30.6288380  71.5023430  77.9320990  30.6124240
  78.7650080  78.6529590  33.4912340  78.0748400  78.4601790  34.1258430
  79.5082380  78.9364230  34.0236640  69.4922080  76.4923080  24.4545680
  69.2035130  77.0625940  25.1670660  70.2367840  76.0127530  24.8176910
  69.6792310  80.4343200  15.6648400  69.5966980  81.3773960  15.8063390
  69.3275370  80.2918110  14.7860750  77.4790440  79.1682230  24.7318750
  77.4826500  78.7272180  23.8823290  78.3741560  79.4899560  24.8390570
  73.3292820  79.0508720  23.6912960  72.9892870  79.5283950  24.4480010
  72.5670140  78.5973840  23.3314060  77.5410590  80.1694310  17.7225510
  77.6623410  80.1280790  18.6711330  77.1559100  81.0318460  17.5672240
  76.5532090  82.4795450  17.1208810  75.9848990  82.0313700  16.4944720
  77.2621090  82.8388230  16.5873960  71.6301270  86.3807470  30.9975540
  71.2456060  85.7401140  31.5958500  71.9413460  87.0843590  31.5670270
  77.7798410  83.2284010  26.4784160  78.1468540  82.7542580  27.2245500
  77.5903470  84.1025580  26.8192500  70.6438900  77.9727700  22.6077630
  70.3585820  77.6083370  23.4456250  70.5817760  77.2408160  21.9940770
  75.5697780  82.2692650  28.7968370  75.2654850  83.1484630  29.0218730
  76.5244240  82.3292440  28.8325810  74.0979570  86.4753640  19.3935220
  73.3241830  85.9351260  19.2333940  74.8274200  85.9560250  19.0552980
  80.3177490  76.8656960  19.3291000  79.5042100  76.3670130  19.2536310
  80.1239440  77.7055210  18.9127350  80.2386350  85.5428060  31.0730610
  80.1723660  84.6223730  30.8188200  79.6091490  85.6403500  31.7875250
  74.1416970  86.1434020  23.0314030  74.6595640  85.3402280  22.9770920
  73.6900990  86.0813160  23.8730860  79.0286470  87.4100300  18.3041330
  79.3702170  88.1542530  17.8084650  78.1999180  87.7231420  18.6666160
  71.6261510  83.1095390  29.9439730  71.2676450  83.7749240  30.5313070
  71.3316070  82.2778940  30.3152350  74.8274630  83.5679630  32.8279280
  74.5274770  83.7136810  31.9307100  75.5985870  83.0084920  32.7352670
  80.1703080  88.3648630  30.8234410  80.1847620  87.4329590  30.6053320
  79.4628180  88.4508390  31.4624180  77.9977160  87.4913830  21.0757250
  78.6848290  88.0383040  21.4564840  77.2109580  88.0354560  21.1106860
  70.1369560  83.1086650  16.5674330  71.0064410  83.3911450  16.8510250
  69.6459880  83.9222520  16.4523140  77.3004370  84.4959860  20.6882610
  77.7567150  85.3065110  20.9142800  76.9492580  84.1783000  21.5201100
  79.6036980  90.0066200  27.9174910  80.2479200  90.2125580  28.5948330
  79.9666420  89.2454600  27.4645760  73.2016150  74.8397510  21.1605130
  73.0730780  74.8315410  22.1090050  72.3778170  75.1780600  20.8096140
  70.2010080  76.5988630  30.6211830  69.4868600  76.7985550  31.2264440
  70.6205120  75.8228200  30.9926630  70.4882670  90.5868890  31.6078360
  70.5973790  89.6463630  31.4673750  69.8363230  90.8523640  30.9592090
  78.4795260  88.8584780  33.0076480  78.1592130  88.1394020  33.5522170
  77.8053620  89.5339850  33.0812540  76.5209430  89.7045230  17.9509630
  76.5119530  90.4374920  17.3354140  75.6007790  89.4576810  18.0436590
  72.1216070  84.9260120  18.6956390  71.5144020  85.6659020  18.7051690
  72.5965420  85.0159480  17.8694590  79.5069030  89.7673470  16.6134820
  79.6081010  89.5637460  15.6836800  78.6070770  89.5131750  16.8182600
  77.0294920  80.3253830  20.5958720  76.3211070  80.7940170  21.0372330
  77.3139400  79.6675840  21.2303910  78.6550850  81.7450530  28.5951250
  79.1536100  82.2196350  29.2603100  78.7973800  80.8214050  28.8021280
  75.2329940  78.6338910  17.9709430  76.0820470  79.0709060  17.9049620
  74.8661210  78.9459170  18.7981490  74.1321360  84.8871270  16.4444960
  74.8984630  84.7752630  17.0070390  74.2096050  84.1909240  15.7921730
  72.8268120  82.3196340  17.1277850  72.9071710  81.3723850  17.2395250
  73.7187870  82.6503220  17.2338510  70.5128310  88.5365300  20.1053900
  69.5868090  88.7786440  20.0959310  70.9784740  89.3639560  19.9838650
  70.3538920  84.1411260  32.3634020  70.8577940  83.5618540  32.9350250
  69.6146340  84.4251490  32.9010390  77.2562540  86.8625450  15.9180310
  77.1513180  86.2477800  16.6441690  77.0886760  86.3391340  15.1343320
  77.4076860  85.5482250  31.8969540  76.6422530  86.1167250  31.8124210
  77.5892820  85.2558460  31.0037770  72.3862000  82.2840850  33.2584090
  72.4267340  81.9854720  34.1669320  73.2407500  82.6848460  33.0991610
  76.1640390  84.8836400  18.4187600  76.5856810  84.7176270  19.2618990
  76.2891230  84.0736630  17.9242740  74.3267810  80.8632950  31.2258580
  73.7964270  80.3723900  30.5981920  74.9955880  81.2917150  30.6916510
  78.6768030  83.9074010  15.6664700  79.1973690  83.1923030  15.3005850
  79.3236430  84.5459880  15.9665210  74.8140110  77.8295320  31.3055870
  74.7196980  77.2116070  30.5806740  74.2337500  78.5561610  31.0785780
  77.5801550  76.3868560  28.3383260  77.1318850  76.4092820  27.4928810
  76.9466750  75.9887580  28.9353560  77.9861100  85.2822890  28.9595700
  78.4049210  86.1255620  28.7871940  77.0669730  85.4194930  28.7302480
  75.0599290  80.9569630  15.3645760  74.8588350  80.0936990  15.7259100
  74.8891340  80.8702990  14.4267360  77.0893770  79.5560420  31.6009360
  77.6793460  79.2476270  32.2887180  76.2714010  79.0840170  31.7569260
  73.8582090  78.0570250  15.3523640  74.1607990  78.0637680  14.4442790
  74.5976680  77.7068110  15.8491300  77.0767020  77.0004870  16.3379840
  76.7289020  76.3228860  15.7582290  77.2779790  76.5394380  17.1523230
  72.8812220  87.3612670  16.1853440  73.3187090  87.9042340  16.8411020
  73.3659950  86.5359620  16.1949780  70.0958020  90.1501700  23.6373700
  70.4261030  89.2822760  23.4052340  70.5249020  90.3560220  24.4678660
  74.6919940  88.4810710  21.2975670  74.3915480  88.3575680  22.1979580
  74.5857430  87.6219300  20.8891400  70.4172660  83.5292520  22.7344210
  69.7621500  83.2604160  22.0903910  71.2550610  83.4197000  22.2846190
  71.4548590  83.9145090  27.2747550  71.8221630  83.8272490  28.1543570
  70.8859410  83.1511640  27.1754410  71.0064590  80.8254180  31.1805970
  70.1120640  80.7920940  31.5199680  71.5462140  81.0240970  31.9457220
  69.6310740  80.7391450  18.6769540  68.7274820  81.0021650  18.5021200
  70.1151360  81.0102620  17.8969500  72.1737950  79.7956990  16.5863920
  72.8829650  79.3740210  16.1011200  71.4577890  79.8632220  15.9547270
  71.8212110  75.8496320  15.6266570  72.5440240  76.3905260  15.9447790
  72.0936630  75.5759740  14.7508110  71.5104300  75.1002510  25.5289190
  72.1580490  74.5499890  25.0884350  71.9306140  75.3545660  26.3505000
  71.2636300  75.2558180  28.2714510  70.9151120  75.7122000  29.0372690
  70.9324000  74.3615310  28.3536940  72.8700670  88.4277780  32.4367700
  72.8270300  88.0570690  33.3182160  73.0011680  89.3655350  32.5769520
  76.5706700  89.9837370  28.0377420  76.3298060  90.2511930  27.1507940
  77.5109340  90.1543100  28.0928280  78.7761120  76.4470060  31.7933930
  78.7150010  77.0391890  32.5429340  79.7161500  76.3396020  31.6484190
  71.9356940  74.7834380  31.5465280  72.4839930  74.6022430  30.7831390
  72.0012250  73.9928490  32.0821590  72.3400930  88.7398410  28.5073520
  71.6134990  88.1203700  28.4399470  72.4010080  89.1339020  27.6371600
  79.9018540  75.5842100  26.6988420  79.1190330  76.0587600  26.9785180
  79.6081470  74.6796930  26.5901600  71.2458950  75.8889580  19.2202140
  72.0038310  76.0018460  18.6466170  70.7836120  76.7258780  19.1745570
  77.7872760  78.0028850  22.2104450  76.9747270  77.6285740  21.8700330
  78.2914400  77.2473930  22.5125640  73.6184100  76.4153630  17.7604110
  74.1476860  75.6283430  17.6312060  74.2512420  77.0944820  17.9939640
  75.8121940  76.1528770  20.8149500  75.1824680  75.4516080  20.9819630
  75.2727080  76.9132900  20.5982660  75.9377500  75.4312750  33.2501990
  75.6561770  75.9346350  32.4862810  76.3197200  74.6334500  32.8844120
  73.9901390  88.8153140  18.0416000  73.3610270  89.2838240  18.5901830
  74.1049220  87.9702360  18.4762190  79.5769150  84.6437820   6.0726470
  78.8011250  84.1638260   6.3625040  80.2282080  83.9643470   5.8982630
  73.5934980  84.9557630   6.9502230  72.7619860  84.7006340   7.3498740
  74.2015960  85.0268400   7.6860150  73.5736240  88.9897720   7.1460250
  73.8764280  88.0995460   6.9670470  74.3179830  89.5467940   6.9182500
  69.9659940  82.5165170   6.6184320  70.5376050  81.7487370   6.6187960
  69.9661480  82.8153930   5.7090930  79.0178140  87.3195010   6.0796630
  78.9486420  86.3784950   5.9185760  79.7798000  87.4096420   6.6519200
  71.2084810  77.9249530   8.4053250  71.0287650  77.0275280   8.6856010
  70.8064890  78.4721400   9.0800200  80.0483310  80.1265390   6.3065560
  80.4248130  79.2537270   6.1939230  79.9502820  80.4624090   5.4156000
  74.1788320  78.4991020   1.7683000  74.2855070  79.3994750   2.0751760
  73.2680680  78.4508990   1.4777650  71.8271480  80.4210030   7.0135590
  72.5081590  80.6848400   7.6322990  71.5119530  79.5810900   7.3473600
  76.0196050  81.4677390   6.1008180  76.5274270  81.9658360   6.7413200
  76.5509290  80.6912590   5.9247540  74.3032150  76.1075950  10.3671600
  74.3050590  76.6248340   9.5617500  73.4736460  75.6306130  10.3441530
  75.5535000  85.7471130   8.5445100  75.2204380  86.3740050   9.1866170
  75.7301680  86.2733010   7.7646770  73.9847480  77.8185910   8.3742050
  74.3264290  78.6627960   8.0795920  73.0463290  77.9669650   8.4907390
  74.7654100  87.7151930  10.3594280  75.3828100  88.3903010  10.0778730
  73.9047220  88.1239910  10.2681780  77.6675370  75.3068180   4.6986640
  77.9750350  74.7515070   3.9822140  76.7376070  75.4412640   4.5159630
  75.6612770  83.8981750   4.2166490  75.2569770  83.1859000   3.7212390
  75.7475890  83.5534990   5.1054530  76.1294470  87.5849310   6.3805700
  75.8322760  86.9794780   5.7013480  77.0794290  87.6226620   6.2695060
  74.3741390  80.6724960   7.9965530  74.9255980  80.7820300   7.2218780
  74.8884900  81.0462560   8.7120760  75.2212900  87.3231000  13.0313500
  74.3241430  87.5470970  13.2786900  75.2465770  87.4465940  12.0824900
  74.0484120  84.1944320  11.6070870  73.9091890  85.0667120  11.9758270
  73.1665480  83.8517130  11.4618810  75.8464470  90.1366020  13.8156020
  75.8179900  90.5408970  12.9484450  75.6829440  89.2076380  13.6527620
  70.0002770  85.9641870   7.5241780  70.0783190  86.0990640   6.5797500
  70.6144450  85.2557760   7.7169900  71.2450400  87.6642060   3.9347960
  70.8378480  87.8056650   3.0801560  72.1363410  87.3802220   3.7319170
  70.0562290  87.0056040  10.0636240  70.2193330  86.5361400   9.2455610
  70.5214740  86.4979600  10.7285080  74.8281060  76.1361800   5.0996810
  74.3849210  76.9171340   4.7681330  75.3866050  76.4591690   5.8067750
  79.1150870  79.0030320  10.7032130  78.6530240  79.2113340  11.5152070
  78.7128980  78.1889670  10.4002800  76.8656960  76.6809130   6.9586410
  77.1629290  77.5871960   6.8778430  77.4142520  76.1927910   6.3445980
  74.6195280  81.2595370   2.8278060  74.3936200  81.0432540   3.7324680
  73.8387810  81.6923830   2.4824030  77.0594490  82.1580950  13.4938330
  76.9638090  81.2175680  13.3438730  77.9026470  82.3796020  13.0986400
  72.1905030  78.5694620  11.6472110  71.7968420  79.4169830  11.8544890
  71.5023430  77.9320990  11.8380750  78.7650080  78.6529590  14.7168850
  78.0748400  78.4601790  15.3514940  79.5082380  78.9364230  15.2493150
  69.4922080  76.4923080   5.6802190  69.2035130  77.0625940   6.3927170
  70.2367840  76.0127530   6.0433420  77.4790440  79.1682230   5.9575260
  77.4826500  78.7272180   5.1079800  78.3741560  79.4899560   6.0647080
  73.3292820  79.0508720   4.9169470  72.9892870  79.5283950   5.6736520
  72.5670140  78.5973840   4.5570570  71.6301270  86.3807470  12.2232050
  71.2456060  85.7401140  12.8215010  71.9413460  87.0843590  12.7926780
  77.7798410  83.2284010   7.7040670  78.1468540  82.7542580   8.4502010
  77.5903470  84.1025580   8.0449010  70.6438900  77.9727700   3.8334140
  70.3585820  77.6083370   4.6712760  70.5817760  77.2408160   3.2197280
  75.5697780  82.2692650  10.0224880  75.2654850  83.1484630  10.2475240
  76.5244240  82.3292440  10.0582320  80.2386350  85.5428060  12.2987120
  80.1723660  84.6223730  12.0444710  79.6091490  85.6403500  13.0131760
  74.1416970  86.1434020   4.2570540  74.6595640  85.3402280   4.2027430
  73.6900990  86.0813160   5.0987370  71.6261510  83.1095390  11.1696240
  71.2676450  83.7749240  11.7569580  71.3316070  82.2778940  11.5408860
  74.8274630  83.5679630  14.0535790  74.5274770  83.7136810  13.1563610
  75.5985870  83.0084920  13.9609180  80.1703080  88.3648630  12.0490920
  80.1847620  87.4329590  11.8309830  79.4628180  88.4508390  12.6880690
  77.9977160  87.4913830   2.3013760  78.6848290  88.0383040   2.6821350
  77.2109580  88.0354560   2.3363370  77.3004370  84.4959860   1.9139120
  77.7567150  85.3065110   2.1399310  76.9492580  84.1783000   2.7457610
  79.6036980  90.0066200   9.1431420  80.2479200  90.2125580   9.8204840
  79.9666420  89.2454600   8.6902270  73.2016150  74.8397510   2.3861640
  73.0730780  74.8315410   3.3346560  72.3778170  75.1780600   2.0352650
  70.2010080  76.5988630  11.8468340  69.4868600  76.7985550  12.4520950
  70.6205120  75.8228200  12.2183140  70.4882670  90.5868890  12.8334870
  70.5973790  89.6463630  12.6930260  69.8363230  90.8523640  12.1848600
  78.4795260  88.8584780  14.2332990  78.1592130  88.1394020  14.7778680
  77.8053620  89.5339850  14.3069050  77.0294920  80.3253830   1.8215230
  76.3211070  80.7940170   2.2628840  77.3139400  79.6675840   2.4560420
  78.6550850  81.7450530   9.8207760  79.1536100  82.2196350  10.4859610
  78.7973800  80.8214050  10.0277790  70.3538920  84.1411260  13.5890530
  70.8577940  83.5618540  14.1606760  69.6146340  84.4251490  14.1266900
  77.4076860  85.5482250  13.1226050  76.6422530  86.1167250  13.0380720
  77.5892820  85.2558460  12.2294280  72.3862000  82.2840850  14.4840600
  72.4267340  81.9854720  15.3925830  73.2407500  82.6848460  14.3248120
  74.3267810  80.8632950  12.4515090  73.7964270  80.3723900  11.8238430
  74.9955880  81.2917150  11.9173020  74.8140110  77.8295320  12.5312380
  74.7196980  77.2116070  11.8063250  74.2337500  78.5561610  12.3042290
  77.5801550  76.3868560   9.5639770  77.1318850  76.4092820   8.7185320
  76.9466750  75.9887580  10.1610070  77.9861100  85.2822890  10.1852210
  78.4049210  86.1255620  10.0128450  77.0669730  85.4194930   9.9558990
  77.0893770  79.5560420  12.8265870  77.6793460  79.2476270  13.5143690
  76.2714010  79.0840170  12.9825770  70.0958020  90.1501700   4.8630210
  70.4261030  89.2822760   4.6308850  70.5249020  90.3560220   5.6935170
  74.6919940  88.4810710   2.5232180  74.3915480  88.3575680   3.4236090
  74.5857430  87.6219300   2.1147910  70.4172660  83.5292520   3.9600720
  69.7621500  83.2604160   3.3160420  71.2550610  83.4197000   3.5102700
  71.4548590  83.9145090   8.5004060  71.8221630  83.8272490   9.3800080
  70.8859410  83.1511640   8.4010920  71.0064590  80.8254180  12.4062480
  70.1120640  80.7920940  12.7456190  71.5462140  81.0240970  13.1713730
  71.5104300  75.1002510   6.7545700  72.1580490  74.5499890   6.3140860
  71.9306140  75.3545660   7.5761510  71.2636300  75.2558180   9.4971020
  70.9151120  75.7122000  10.2629200  70.9324000  74.3615310   9.5793450
  72.8700670  88.4277780  13.6624210  72.8270300  88.0570690  14.5438670
  73.0011680  89.3655350  13.8026030  76.5706700  89.9837370   9.2633930
  76.3298060  90.2511930   8.3764450  77.5109340  90.1543100   9.3184790
  78.7761120  76.4470060  13.0190440  78.7150010  77.0391890  13.7685850
  79.7161500  76.3396020  12.8740700  71.9356940  74.7834380  12.7721790
  72.4839930  74.6022430  12.0087900  72.0012250  73.9928490  13.3078100
  72.3400930  88.7398410   9.7330030  71.6134990  88.1203700   9.6655980
  72.4010080  89.1339020   8.8628110  79.9018540  75.5842100   7.9244930
  79.1190330  76.0587600   8.2041690  79.6081470  74.6796930   7.8158110
  77.7872760  78.0028850   3.4360960  76.9747270  77.6285740   3.0956840
  78.2914400  77.2473930   3.7382150  75.8121940  76.1528770   2.0406010
  75.1824680  75.4516080   2.2076140  75.2727080  76.9132900   1.8239170
  75.9377500  75.4312750  14.4758500  75.6561770  75.9346350  13.7119320
  76.3197200  74.6334500  14.1100630  79.5769150  65.8694330  62.3956940
  78.8011250  65.3894770  62.6855510  80.2282080  65.1899980  62.2213100
  73.5934980  66.1814140  63.2732700  72.7619860  65.9262850  63.6729210
  74.2015960  66.2524910  64.0090620  73.5736240  70.2154230  63.4690720
  73.8764280  69.3251970  63.2900940  74.3179830  70.7724450  63.2412970
  72.0026930  61.1416030  57.0575090  71.1143630  61.4832000  56.9554970
  72.2868120  60.9416350  56.1655920  69.9659940  63.7421680  62.9414790
  70.5376050  62.9743880  62.9418430  69.9661480  64.0410440  62.0321400
  79.8239890  72.5612530  60.7960060  79.2051330  73.0170030  60.2254500
  80.6791670  72.7163990  60.3949760  79.0178140  68.5451520  62.4027100
  78.9486420  67.6041460  62.2416230  79.7798000  68.6352930  62.9749670
  71.2084810  59.1506040  64.7283720  71.0287650  58.2531790  65.0086480
  70.8064890  59.6977910  65.4030670  80.0483310  61.3521900  62.6296030
  80.4248130  60.4793780  62.5169700  79.9502820  61.6880600  61.7386470
  74.1788320  59.7247530  58.0913470  74.2855070  60.6251260  58.3982230
  73.2680680  59.6765500  57.8008120  71.8271480  61.6466540  63.3366060
  72.5081590  61.9104910  63.9553460  71.5119530  60.8067410  63.6704070
  76.0196050  62.6933900  62.4238650  76.5274270  63.1914870  63.0643670
  76.5509290  61.9169100  62.2478010  75.5535000  66.9727640  64.8675570
  75.2204380  67.5996560  65.5096640  75.7301680  67.4989520  64.0877240
  73.9847480  59.0442420  64.6972520  74.3264290  59.8884470  64.4026390
  73.0463290  59.1926160  64.8137860  70.0586440  68.1308300  55.5631600
  69.6814420  68.6195400  54.8316500  70.3159510  68.8033580  56.1938130
  77.6675370  56.5324690  61.0217110  77.9750350  55.9771580  60.3052610
  76.7376070  56.6669150  60.8390100  80.0556130  64.5973520  57.7577230
  79.1285410  64.5310900  57.9865700  80.2080950  65.5353650  57.6432470
  80.0425210  60.8690520  54.7544390  79.1028880  61.0304480  54.8396850
  80.3608470  61.5876200  54.2080380  75.6612770  65.1238260  60.5396960
  75.2569770  64.4115510  60.0442860  75.7475890  64.7791500  61.4285000
  76.1294470  68.8105820  62.7036170  75.8322760  68.2051290  62.0243950
  77.0794290  68.8483130  62.5925530  74.3741390  61.8981470  64.3196000
  74.9255980  62.0076810  63.5449250  74.8884900  62.2719070  65.0351230
  72.3617400  64.0183240  58.0403610  72.2415000  64.7445330  57.4284880
  72.0518290  63.2486150  57.5631520  70.0002770  67.1898380  63.8472250
  70.0783190  67.3247150  62.9027970  70.6144450  66.4814270  64.0400370
  71.2450400  68.8898570  60.2578430  70.8378480  69.0313160  59.4032030
  72.1363410  68.6058730  60.0549640  75.5172060  73.1044350  58.3701100
  75.3414540  72.1879890  58.1568900  74.6627800  73.4631640  58.6098900
  74.8281060  57.3618310  61.4227280  74.3849210  58.1427850  61.0911800
  75.3866050  57.6848200  62.1298220  77.9439880  56.9829010  56.3033110
  77.3194060  56.9788880  57.0286420  77.8570000  56.1159970  55.9069080
  76.8656960  57.9065640  63.2816880  77.1629290  58.8128470  63.2008900
  77.4142520  57.4184420  62.6676450  74.6195280  62.4851880  59.1508530
  74.3936200  62.2689050  60.0555150  73.8387810  62.9180340  58.8054500
  69.4922080  57.7179590  62.0032660  69.2035130  58.2882450  62.7157640
  70.2367840  57.2384040  62.3663890  69.6792310  61.6599710  53.2135380
  69.5966980  62.6030470  53.3550370  69.3275370  61.5174620  52.3347730
  77.4790440  60.3938740  62.2805730  77.4826500  59.9528690  61.4310270
  78.3741560  60.7156070  62.3877550  73.3292820  60.2765230  61.2399940
  72.9892870  60.7540460  61.9966990  72.5670140  59.8230350  60.8801040
  77.5410590  61.3950820  55.2712490  77.6623410  61.3537300  56.2198310
  77.1559100  62.2574970  55.1159220  76.5532090  63.7051960  54.6695790
  75.9848990  63.2570210  54.0431700  77.2621090  64.0644740  54.1360940
  77.7798410  64.4540520  64.0271140  78.1468540  63.9799090  64.7732480
  77.5903470  65.3282090  64.3679480  70.6438900  59.1984210  60.1564610
  70.3585820  58.8339880  60.9943230  70.5817760  58.4664670  59.5427750
  74.0979570  67.7010150  56.9422200  73.3241830  67.1607770  56.7820920
  74.8274200  67.1816760  56.6039960  80.3177490  58.0913470  56.8777980
  79.5042100  57.5926640  56.8023290  80.1239440  58.9311720  56.4614330
  74.1416970  67.3690530  60.5801010  74.6595640  66.5658790  60.5257900
  73.6900990  67.3069670  61.4217840  79.0286470  68.6356810  55.8528310
  79.3702170  69.3799040  55.3571630  78.1999180  68.9487930  56.2153140
  77.9977160  68.7170340  58.6244230  78.6848290  69.2639550  59.0051820
  77.2109580  69.2611070  58.6593840  70.1369560  64.3343160  54.1161310
  71.0064410  64.6167960  54.3997230  69.6459880  65.1479030  54.0010120
  77.3004370  65.7216370  58.2369590  77.7567150  66.5321620  58.4629780
  76.9492580  65.4039510  59.0688080  79.6036980  71.2322710  65.4661890
  80.2479200  71.4382090  66.1435310  79.9666420  70.4711110  65.0132740
  73.2016150  56.0654020  58.7092110  73.0730780  56.0571920  59.6577030
  72.3778170  56.4037110  58.3583120  70.5040810  73.5470540  54.6822940
  70.8638450  74.1459880  54.0280210  70.3633150  74.0930430  55.4557970
  76.5209430  70.9301740  55.4996610  76.5119530  71.6631430  54.8841120
  75.6007790  70.6833320  55.5923570  72.1216070  66.1516630  56.2443370
  71.5144020  66.8915530  56.2538670  72.5965420  66.2415990  55.4181570
  79.5069030  70.9929980  54.1621800  79.6081010  70.7893970  53.2323780
  78.6070770  70.7388260  54.3669580  77.0294920  61.5510340  58.1445700
  76.3211070  62.0196680  58.5859310  77.3139400  60.8932350  58.7790890
  78.1487140  73.5116300  58.8569470  78.4028640  73.4737690  57.9348840
  77.1999620  73.3849630  58.8497720  75.2329940  59.8595420  55.5196410
  76.0820470  60.2965570  55.4536600  74.8661210  60.1715680  56.3468470
  74.1321360  66.1127780  53.9931940  74.8984630  66.0009140  54.5557370
  74.2096050  65.4165750  53.3408710  72.8268120  63.5452850  54.6764830
  72.9071710  62.5980360  54.7882230  73.7187870  63.8759730  54.7825490
  73.6282830  73.6948240  61.7799370  74.3645310  73.1463700  62.0507940
  74.0123750  74.5604250  61.6405360  70.5128310  69.7621810  57.6540880
  69.5868090  70.0042950  57.6446290  70.9784740  70.5896070  57.5325630
  76.7385140  72.8678550  53.6024940  77.5313750  73.1567380  53.1506730
  76.2189490  72.4370720  52.9237420  77.2562540  68.0881960  53.4667290
  77.1513180  67.4734310  54.1928670  77.0886760  67.5647850  52.6830300
  76.1640390  66.1092910  55.9674580  76.5856810  65.9432780  56.8105970
  76.2891230  65.2993140  55.4729720  78.6768030  65.1330520  53.2151680
  79.1973690  64.4179540  52.8492830  79.3236430  65.7716390  53.5152190
  77.5801550  57.6125070  65.8870240  77.1318850  57.6349330  65.0415790
  76.9466750  57.2144090  66.4840540  77.9861100  66.5079400  66.5082680
  78.4049210  67.3512130  66.3358920  77.0669730  66.6451440  66.2789460
  75.0599290  62.1826140  52.9132740  74.8588350  61.3193500  53.2746080
  74.8891340  62.0959500  51.9754340  73.8582090  59.2826760  52.9010620
  74.1607990  59.2894190  51.9929770  74.5976680  58.9324620  53.3978280
  77.0767020  58.2261380  53.8866820  76.7289020  57.5485370  53.3069270
  77.2779790  57.7650890  54.7010210  79.2416060  73.2142130  55.5053420
  80.1366850  73.5527100  55.5272180  79.2733690  72.4921540  54.8777700
  72.8812220  68.5869180  53.7340420  73.3187090  69.1298850  54.3898000
  73.3659950  67.7616130  53.7436760  70.0958020  71.3758210  61.1860680
  70.4261030  70.5079270  60.9539320  70.5249020  71.5816730  62.0165640
  74.6919940  69.7067220  58.8462650  74.3915480  69.5832190  59.7466560
  74.5857430  68.8475810  58.4378380  70.5848230  72.2428800  63.9242310
  70.1479220  72.4229600  64.7566460  71.1525910  73.0003420  63.7824030
  70.4172660  64.7549030  60.2831190  69.7621500  64.4860670  59.6390890
  71.2550610  64.6453510  59.8333170  71.4548590  65.1401600  64.8234530
  71.8221630  65.0529000  65.7030550  70.8859410  64.3768150  64.7241390
  69.6310740  61.9647960  56.2256520  68.7274820  62.2278160  56.0508180
  70.1151360  62.2359130  55.4456480  72.1737950  61.0213500  54.1350900
  72.8829650  60.5996720  53.6498180  71.4577890  61.0888730  53.5034250
  71.8212110  57.0752830  53.1753550  72.5440240  57.6161770  53.4934770
  72.0936630  56.8016250  52.2995090  71.5104300  56.3259020  63.0776170
  72.1580490  55.7756400  62.6371330  71.9306140  56.5802170  63.8991980
  76.5706700  71.2093880  65.5864400  76.3298060  71.4768440  64.6994920
  77.5109340  71.3799610  65.6415260  72.3400930  69.9654920  66.0560500
  71.6134990  69.3460210  65.9886450  72.4010080  70.3595530  65.1858580
  75.9446030  72.1799920  62.8409910  76.4611050  71.5687280  62.3158170
  76.5943410  72.6828700  63.3320920  78.6841530  73.0708410  63.6678890
  78.9719340  72.8162710  62.7911900  79.1964750  72.5185770  64.2584460
  79.9018540  56.8098610  64.2475400  79.1190330  57.2844110  64.5272160
  79.6081470  55.9053440  64.1388580  70.6230930  73.2829310  59.2657260
  70.4552970  72.6499990  59.9639150  69.7565440  73.4888710  58.9151450
  71.2458950  57.1146090  56.7689120  72.0038310  57.2274970  56.1953150
  70.7836120  57.9515290  56.7232550  77.7872760  59.2285360  59.7591430
  76.9747270  58.8542250  59.4187310  78.2914400  58.4730440  60.0612620
  72.2293630  71.9762540  56.7107400  71.7041250  72.3570570  56.0069360
  72.1538210  72.6013310  57.4317110  73.6184100  57.6410140  55.3091090
  74.1476860  56.8539940  55.1799040  74.2512420  58.3201330  55.5426620
  75.8121940  57.3785280  58.3636480  75.1824680  56.6772590  58.5306610
  75.2727080  58.1389410  58.1469640  74.8286600  73.9244920  55.5856650
  75.5605420  73.6404200  55.0380540  75.0880270  73.6858200  56.4756030
  73.9901390  70.0409650  55.5902980  73.3610270  70.5094750  56.1388810
  74.1049220  69.1958870  56.0249170  79.5769150  65.8694330  43.6213450
  78.8011250  65.3894770  43.9112020  80.2282080  65.1899980  43.4469610
  73.5934980  66.1814140  44.4989210  72.7619860  65.9262850  44.8985720
  74.2015960  66.2524910  45.2347130  73.5736240  70.2154230  44.6947230
  73.8764280  69.3251970  44.5157450  74.3179830  70.7724450  44.4669480
  72.0026930  61.1416030  38.2831600  71.1143630  61.4832000  38.1811480
  72.2868120  60.9416350  37.3912430  69.9659940  63.7421680  44.1671300
  70.5376050  62.9743880  44.1674940  69.9661480  64.0410440  43.2577910
  79.8239890  72.5612530  42.0216570  79.2051330  73.0170030  41.4511010
  80.6791670  72.7163990  41.6206270  79.0178140  68.5451520  43.6283610
  78.9486420  67.6041460  43.4672740  79.7798000  68.6352930  44.2006180
  71.2084810  59.1506040  45.9540230  71.0287650  58.2531790  46.2342990
  70.8064890  59.6977910  46.6287180  80.0483310  61.3521900  43.8552540
  80.4248130  60.4793780  43.7426210  79.9502820  61.6880600  42.9642980
  74.1788320  59.7247530  39.3169980  74.2855070  60.6251260  39.6238740
  73.2680680  59.6765500  39.0264630  71.8271480  61.6466540  44.5622570
  72.5081590  61.9104910  45.1809970  71.5119530  60.8067410  44.8960580
  76.0196050  62.6933900  43.6495160  76.5274270  63.1914870  44.2900180
  76.5509290  61.9169100  43.4734520  74.3032150  57.3332460  47.9158580
  74.3050590  57.8504850  47.1104480  73.4736460  56.8562640  47.8928510
  75.5535000  66.9727640  46.0932080  75.2204380  67.5996560  46.7353150
  75.7301680  67.4989520  45.3133750  73.9847480  59.0442420  45.9229030
  74.3264290  59.8884470  45.6282900  73.0463290  59.1926160  46.0394370
  74.7654100  68.9408440  47.9081260  75.3828100  69.6159520  47.6265710
  73.9047220  69.3496420  47.8168760  70.0586440  68.1308300  36.7888110
  69.6814420  68.6195400  36.0573010  70.3159510  68.8033580  37.4194640
  77.6675370  56.5324690  42.2473620  77.9750350  55.9771580  41.5309120
  76.7376070  56.6669150  42.0646610  80.0556130  64.5973520  38.9833740
  79.1285410  64.5310900  39.2122210  80.2080950  65.5353650  38.8688980
  80.0425210  60.8690520  35.9800900  79.1028880  61.0304480  36.0653360
  80.3608470  61.5876200  35.4336890  75.6612770  65.1238260  41.7653470
  75.2569770  64.4115510  41.2699370  75.7475890  64.7791500  42.6541510
  76.1294470  68.8105820  43.9292680  75.8322760  68.2051290  43.2500460
  77.0794290  68.8483130  43.8182040  74.3741390  61.8981470  45.5452510
  74.9255980  62.0076810  44.7705760  74.8884900  62.2719070  46.2607740
  75.2212900  68.5487510  50.5800480  74.3241430  68.7727480  50.8273880
  75.2465770  68.6722450  49.6311880  74.0484120  65.4200830  49.1557850
  73.9091890  66.2923630  49.5245250  73.1665480  65.0773640  49.0105790
  75.8464470  71.3622530  51.3643000  75.8179900  71.7665480  50.4971430
  75.6829440  70.4332890  51.2014600  72.3617400  64.0183240  39.2660120
  72.2415000  64.7445330  38.6541390  72.0518290  63.2486150  38.7888030
  70.0002770  67.1898380  45.0728760  70.0783190  67.3247150  44.1284480
  70.6144450  66.4814270  45.2656880  71.2450400  68.8898570  41.4834940
  70.8378480  69.0313160  40.6288540  72.1363410  68.6058730  41.2806150
  75.5172060  73.1044350  39.5957610  75.3414540  72.1879890  39.3825410
  74.6627800  73.4631640  39.8355410  70.0562290  68.2312550  47.6123220
  70.2193330  67.7617910  46.7942590  70.5214740  67.7236110  48.2772060
  74.8281060  57.3618310  42.6483790  74.3849210  58.1427850  42.3168310
  75.3866050  57.6848200  43.3554730  79.1150870  60.2286830  48.2519110
  78.6530240  60.4369850  49.0639050  78.7128980  59.4146180  47.9489780
  77.9439880  56.9829010  37.5289620  77.3194060  56.9788880  38.2542930
  77.8570000  56.1159970  37.1325590  76.8656960  57.9065640  44.5073390
  77.1629290  58.8128470  44.4265410  77.4142520  57.4184420  43.8932960
  74.6195280  62.4851880  40.3765040  74.3936200  62.2689050  41.2811660
  73.8387810  62.9180340  40.0311010  77.0594490  63.3837460  51.0425310
  76.9638090  62.4432190  50.8925710  77.9026470  63.6052530  50.6473380
  72.1905030  59.7951130  49.1959090  71.7968420  60.6426340  49.4031870
  71.5023430  59.1577500  49.3867730  78.7650080  59.8786100  52.2655830
  78.0748400  59.6858300  52.9001920  79.5082380  60.1620740  52.7980130
  69.4922080  57.7179590  43.2289170  69.2035130  58.2882450  43.9414150
  70.2367840  57.2384040  43.5920400  69.6792310  61.6599710  34.4391890
  69.5966980  62.6030470  34.5806880  69.3275370  61.5174620  33.5604240
  77.4790440  60.3938740  43.5062240  77.4826500  59.9528690  42.6566780
  78.3741560  60.7156070  43.6134060  73.3292820  60.2765230  42.4656450
  72.9892870  60.7540460  43.2223500  72.5670140  59.8230350  42.1057550
  77.5410590  61.3950820  36.4969000  77.6623410  61.3537300  37.4454820
  77.1559100  62.2574970  36.3415730  76.5532090  63.7051960  35.8952300
  75.9848990  63.2570210  35.2688210  77.2621090  64.0644740  35.3617450
  71.6301270  67.6063980  49.7719030  71.2456060  66.9657650  50.3701990
  71.9413460  68.3100100  50.3413760  77.7798410  64.4540520  45.2527650
  78.1468540  63.9799090  45.9988990  77.5903470  65.3282090  45.5935990
  70.6438900  59.1984210  41.3821120  70.3585820  58.8339880  42.2199740
  70.5817760  58.4664670  40.7684260  75.5697780  63.4949160  47.5711860
  75.2654850  64.3741140  47.7962220  76.5244240  63.5548950  47.6069300
  74.0979570  67.7010150  38.1678710  73.3241830  67.1607770  38.0077430
  74.8274200  67.1816760  37.8296470  80.3177490  58.0913470  38.1034490
  79.5042100  57.5926640  38.0279800  80.1239440  58.9311720  37.6870840
  80.2386350  66.7684570  49.8474100  80.1723660  65.8480240  49.5931690
  79.6091490  66.8660010  50.5618740  74.1416970  67.3690530  41.8057520
  74.6595640  66.5658790  41.7514410  73.6900990  67.3069670  42.6474350
  79.0286470  68.6356810  37.0784820  79.3702170  69.3799040  36.5828140
  78.1999180  68.9487930  37.4409650  71.6261510  64.3351900  48.7183220
  71.2676450  65.0005750  49.3056560  71.3316070  63.5035450  49.0895840
  74.8274630  64.7936140  51.6022770  74.5274770  64.9393320  50.7050590
  75.5985870  64.2341430  51.5096160  80.1703080  69.5905140  49.5977900
  80.1847620  68.6586100  49.3796810  79.4628180  69.6764900  50.2367670
  77.9977160  68.7170340  39.8500740  78.6848290  69.2639550  40.2308330
  77.2109580  69.2611070  39.8850350  70.1369560  64.3343160  35.3417820
  71.0064410  64.6167960  35.6253740  69.6459880  65.1479030  35.2266630
  77.3004370  65.7216370  39.4626100  77.7567150  66.5321620  39.6886290
  76.9492580  65.4039510  40.2944590  79.6036980  71.2322710  46.6918400
  80.2479200  71.4382090  47.3691820  79.9666420  70.4711110  46.2389250
  73.2016150  56.0654020  39.9348620  73.0730780  56.0571920  40.8833540
  72.3778170  56.4037110  39.5839630  70.5040810  73.5470540  35.9079450
  70.8638450  74.1459880  35.2536720  70.3633150  74.0930430  36.6814480
  70.2010080  57.8245140  49.3955320  69.4868600  58.0242060  50.0007930
  70.6205120  57.0484710  49.7670120  70.4882670  71.8125400  50.3821850
  70.5973790  70.8720140  50.2417240  69.8363230  72.0780150  49.7335580
  78.4795260  70.0841290  51.7819970  78.1592130  69.3650530  52.3265660
  77.8053620  70.7596360  51.8556030  76.5209430  70.9301740  36.7253120
  76.5119530  71.6631430  36.1097630  75.6007790  70.6833320  36.8180080
  72.1216070  66.1516630  37.4699880  71.5144020  66.8915530  37.4795180
  72.5965420  66.2415990  36.6438080  79.5069030  70.9929980  35.3878310
  79.6081010  70.7893970  34.4580290  78.6070770  70.7388260  35.5926090
  77.0294920  61.5510340  39.3702210  76.3211070  62.0196680  39.8115820
  77.3139400  60.8932350  40.0047400  78.6550850  62.9707040  47.3694740
  79.1536100  63.4452860  48.0346590  78.7973800  62.0470560  47.5764770
  78.1487140  73.5116300  40.0825980  78.4028640  73.4737690  39.1605350
  77.1999620  73.3849630  40.0754230  75.2329940  59.8595420  36.7452920
  76.0820470  60.2965570  36.6793110  74.8661210  60.1715680  37.5724980
  74.1321360  66.1127780  35.2188450  74.8984630  66.0009140  35.7813880
  74.2096050  65.4165750  34.5665220  72.8268120  63.5452850  35.9021340
  72.9071710  62.5980360  36.0138740  73.7187870  63.8759730  36.0082000
  73.6282830  73.6948240  43.0055880  74.3645310  73.1463700  43.2764450
  74.0123750  74.5604250  42.8661870  70.5128310  69.7621810  38.8797390
  69.5868090  70.0042950  38.8702800  70.9784740  70.5896070  38.7582140
  72.6341110  72.8794310  52.1941460  73.4353840  73.2006360  52.6076860
  72.1192930  72.5189890  52.9161370  76.7385140  72.8678550  34.8281450
  77.5313750  73.1567380  34.3763240  76.2189490  72.4370720  34.1493930
  70.3538920  65.3667770  51.1377510  70.8577940  64.7875050  51.7093740
  69.6146340  65.6508000  51.6753880  77.2562540  68.0881960  34.6923800
  77.1513180  67.4734310  35.4185180  77.0886760  67.5647850  33.9086810
  77.4076860  66.7738760  50.6713030  76.6422530  67.3423760  50.5867700
  77.5892820  66.4814970  49.7781260  72.3862000  63.5097360  52.0327580
  72.4267340  63.2111230  52.9412810  73.2407500  63.9104970  51.8735100
  76.1640390  66.1092910  37.1931090  76.5856810  65.9432780  38.0362480
  76.2891230  65.2993140  36.6986230  74.3267810  62.0889460  50.0002070
  73.7964270  61.5980410  49.3725410  74.9955880  62.5173660  49.4660000
  78.6768030  65.1330520  34.4408190  79.1973690  64.4179540  34.0749340
  79.3236430  65.7716390  34.7408700  74.8140110  59.0551830  50.0799360
  74.7196980  58.4372580  49.3550230  74.2337500  59.7818120  49.8529270
  77.5801550  57.6125070  47.1126750  77.1318850  57.6349330  46.2672300
  76.9466750  57.2144090  47.7097050  77.9861100  66.5079400  47.7339190
  78.4049210  67.3512130  47.5615430  77.0669730  66.6451440  47.5045970
  75.0599290  62.1826140  34.1389250  74.8588350  61.3193500  34.5002590
  74.8891340  62.0959500  33.2010850  75.8368520  72.8132410  48.8496920
  75.2989610  73.5378470  48.5305620  76.0902480  72.3362750  48.0594260
  77.0893770  60.7816930  50.3752850  77.6793460  60.4732780  51.0630670
  76.2714010  60.3096680  50.5312750  73.8582090  59.2826760  34.1267130
  74.1607990  59.2894190  33.2186280  74.5976680  58.9324620  34.6234790
  78.6930730  74.0483620  49.1083570  78.6189430  74.9518760  49.4155940
  77.7909570  73.7295520  49.0805640  77.0767020  58.2261380  35.1123330
  76.7289020  57.5485370  34.5325780  77.2779790  57.7650890  35.9266720
  79.2416060  73.2142130  36.7309930  80.1366850  73.5527100  36.7528690
  79.2733690  72.4921540  36.1034210  72.8812220  68.5869180  34.9596930
  73.3187090  69.1298850  35.6154510  73.3659950  67.7616130  34.9693270
  70.0958020  71.3758210  42.4117190  70.4261030  70.5079270  42.1795830
  70.5249020  71.5816730  43.2422150  74.6919940  69.7067220  40.0719160
  74.3915480  69.5832190  40.9723070  74.5857430  68.8475810  39.6634890
  70.5848230  72.2428800  45.1498820  70.1479220  72.4229600  45.9822970
  71.1525910  73.0003420  45.0080540  70.4172660  64.7549030  41.5087700
  69.7621500  64.4860670  40.8647400  71.2550610  64.6453510  41.0589680
  71.4548590  65.1401600  46.0491040  71.8221630  65.0529000  46.9287060
  70.8859410  64.3768150  45.9497900  71.0064590  62.0510690  49.9549460
  70.1120640  62.0177450  50.2943170  71.5462140  62.2497480  50.7200710
  69.6310740  61.9647960  37.4513030  68.7274820  62.2278160  37.2764690
  70.1151360  62.2359130  36.6712990  72.1737950  61.0213500  35.3607410
  72.8829650  60.5996720  34.8754690  71.4577890  61.0888730  34.7290760
  71.8212110  57.0752830  34.4010060  72.5440240  57.6161770  34.7191280
  72.0936630  56.8016250  33.5251600  71.5104300  56.3259020  44.3032680
  72.1580490  55.7756400  43.8627840  71.9306140  56.5802170  45.1248490
  71.2636300  56.4814690  47.0458000  70.9151120  56.9378510  47.8116180
  70.9324000  55.5871820  47.1280430  72.8700670  69.6534290  51.2111190
  72.8270300  69.2827200  52.0925650  73.0011680  70.5911860  51.3513010
  76.5706700  71.2093880  46.8120910  76.3298060  71.4768440  45.9251430
  77.5109340  71.3799610  46.8671770  78.7761120  57.6726570  50.5677420
  78.7150010  58.2648400  51.3172830  79.7161500  57.5652530  50.4227680
  71.9356940  56.0090890  50.3208770  72.4839930  55.8278940  49.5574880
  72.0012250  55.2185000  50.8565080  72.7088700  72.5996540  48.3308970
  72.1149020  72.4681240  49.0699010  72.7012540  71.7634680  47.8651070
  72.3400930  69.9654920  47.2817010  71.6134990  69.3460210  47.2142960
  72.4010080  70.3595530  46.4115090  75.9446030  72.1799920  44.0666420
  76.4611050  71.5687280  43.5414680  76.5943410  72.6828700  44.5577430
  78.6841530  73.0708410  44.8935400  78.9719340  72.8162710  44.0168410
  79.1964750  72.5185770  45.4840970  79.9018540  56.8098610  45.4731910
  79.1190330  57.2844110  45.7528670  79.6081470  55.9053440  45.3645090
  70.6230930  73.2829310  40.4913770  70.4552970  72.6499990  41.1895660
  69.7565440  73.4888710  40.1407960  71.2458950  57.1146090  37.9945630
  72.0038310  57.2274970  37.4209660  70.7836120  57.9515290  37.9489060
  77.7872760  59.2285360  40.9847940  76.9747270  58.8542250  40.6443820
  78.2914400  58.4730440  41.2869130  72.2293630  71.9762540  37.9363910
  71.7041250  72.3570570  37.2325870  72.1538210  72.6013310  38.6573620
  73.6184100  57.6410140  36.5347600  74.1476860  56.8539940  36.4055550
  74.2512420  58.3201330  36.7683130  75.8121940  57.3785280  39.5892990
  75.1824680  56.6772590  39.7563120  75.2727080  58.1389410  39.3726150
  78.7513890  73.9924510  52.2603600  79.6781200  73.7568780  52.3039560
  78.7364320  74.8196510  51.7789630  75.9377500  56.6569260  52.0245480
  75.6561770  57.1602860  51.2606300  76.3197200  55.8591010  51.6587610
  74.8286600  73.9244920  36.8113160  75.5605420  73.6404200  36.2637050
  75.0880270  73.6858200  37.7012540  73.9901390  70.0409650  36.8159490
  73.3610270  70.5094750  37.3645320  74.1049220  69.1958870  37.2505680
  79.5769150  65.8694330  24.8469960  78.8011250  65.3894770  25.1368530
  80.2282080  65.1899980  24.6726120  73.5934980  66.1814140  25.7245720
  72.7619860  65.9262850  26.1242230  74.2015960  66.2524910  26.4603640
  73.5736240  70.2154230  25.9203740  73.8764280  69.3251970  25.7413960
  74.3179830  70.7724450  25.6925990  72.0026930  61.1416030  19.5088110
  71.1143630  61.4832000  19.4067990  72.2868120  60.9416350  18.6168940
  69.9659940  63.7421680  25.3927810  70.5376050  62.9743880  25.3931450
  69.9661480  64.0410440  24.4834420  79.8239890  72.5612530  23.2473080
  79.2051330  73.0170030  22.6767520  80.6791670  72.7163990  22.8462780
  79.0178140  68.5451520  24.8540120  78.9486420  67.6041460  24.6929250
  79.7798000  68.6352930  25.4262690  71.2084810  59.1506040  27.1796740
  71.0287650  58.2531790  27.4599500  70.8064890  59.6977910  27.8543690
  80.0483310  61.3521900  25.0809050  80.4248130  60.4793780  24.9682720
  79.9502820  61.6880600  24.1899490  74.1788320  59.7247530  20.5426490
  74.2855070  60.6251260  20.8495250  73.2680680  59.6765500  20.2521140
  71.8271480  61.6466540  25.7879080  72.5081590  61.9104910  26.4066480
  71.5119530  60.8067410  26.1217090  76.0196050  62.6933900  24.8751670
  76.5274270  63.1914870  25.5156690  76.5509290  61.9169100  24.6991030
  74.3032150  57.3332460  29.1415090  74.3050590  57.8504850  28.3360990
  73.4736460  56.8562640  29.1185020  75.5535000  66.9727640  27.3188590
  75.2204380  67.5996560  27.9609660  75.7301680  67.4989520  26.5390260
  73.9847480  59.0442420  27.1485540  74.3264290  59.8884470  26.8539410
  73.0463290  59.1926160  27.2650880  74.7654100  68.9408440  29.1337770
  75.3828100  69.6159520  28.8522220  73.9047220  69.3496420  29.0425270
  70.0586440  68.1308300  18.0144620  69.6814420  68.6195400  17.2829520
  70.3159510  68.8033580  18.6451150  77.6675370  56.5324690  23.4730130
  77.9750350  55.9771580  22.7565630  76.7376070  56.6669150  23.2903120
  80.0556130  64.5973520  20.2090250  79.1285410  64.5310900  20.4378720
  80.2080950  65.5353650  20.0945490  80.0425210  60.8690520  17.2057410
  79.1028880  61.0304480  17.2909870  80.3608470  61.5876200  16.6593400
  75.6612770  65.1238260  22.9909980  75.2569770  64.4115510  22.4955880
  75.7475890  64.7791500  23.8798020  76.1294470  68.8105820  25.1549190
  75.8322760  68.2051290  24.4756970  77.0794290  68.8483130  25.0438550
  74.3741390  61.8981470  26.7709020  74.9255980  62.0076810  25.9962270
  74.8884900  62.2719070  27.4864250  75.2212900  68.5487510  31.8056990
  74.3241430  68.7727480  32.0530390  75.2465770  68.6722450  30.8568390
  74.0484120  65.4200830  30.3814360  73.9091890  66.2923630  30.7501760
  73.1665480  65.0773640  30.2362300  75.8464470  71.3622530  32.5899510
  75.8179900  71.7665480  31.7227940  75.6829440  70.4332890  32.4271110
  72.3617400  64.0183240  20.4916630  72.2415000  64.7445330  19.8797900
  72.0518290  63.2486150  20.0144540  70.0002770  67.1898380  26.2985270
  70.0783190  67.3247150  25.3540990  70.6144450  66.4814270  26.4913390
  71.2450400  68.8898570  22.7091450  70.8378480  69.0313160  21.8545050
  72.1363410  68.6058730  22.5062660  75.5172060  73.1044350  20.8214120
  75.3414540  72.1879890  20.6081920  74.6627800  73.4631640  21.0611920
  70.0562290  68.2312550  28.8379730  70.2193330  67.7617910  28.0199100
  70.5214740  67.7236110  29.5028570  74.8281060  57.3618310  23.8740300
  74.3849210  58.1427850  23.5424820  75.3866050  57.6848200  24.5811240
  79.1150870  60.2286830  29.4775620  78.6530240  60.4369850  30.2895560
  78.7128980  59.4146180  29.1746290  77.9439880  56.9829010  18.7546130
  77.3194060  56.9788880  19.4799440  77.8570000  56.1159970  18.3582100
  76.8656960  57.9065640  25.7329900  77.1629290  58.8128470  25.6521920
  77.4142520  57.4184420  25.1189470  74.6195280  62.4851880  21.6021550
  74.3936200  62.2689050  22.5068170  73.8387810  62.9180340  21.2567520
  77.0594490  63.3837460  32.2681820  76.9638090  62.4432190  32.1182220
  77.9026470  63.6052530  31.8729890  72.1905030  59.7951130  30.4215600
  71.7968420  60.6426340  30.6288380  71.5023430  59.1577500  30.6124240
  78.7650080  59.8786100  33.4912340  78.0748400  59.6858300  34.1258430
  79.5082380  60.1620740  34.0236640  69.4922080  57.7179590  24.4545680
  69.2035130  58.2882450  25.1670660  70.2367840  57.2384040  24.8176910
  69.6792310  61.6599710  15.6648400  69.5966980  62.6030470  15.8063390
  69.3275370  61.5174620  14.7860750  77.4790440  60.3938740  24.7318750
  77.4826500  59.9528690  23.8823290  78.3741560  60.7156070  24.8390570
  73.3292820  60.2765230  23.6912960  72.9892870  60.7540460  24.4480010
  72.5670140  59.8230350  23.3314060  77.5410590  61.3950820  17.7225510
  77.6623410  61.3537300  18.6711330  77.1559100  62.2574970  17.5672240
  76.5532090  63.7051960  17.1208810  75.9848990  63.2570210  16.4944720
  77.2621090  64.0644740  16.5873960  71.6301270  67.6063980  30.9975540
  71.2456060  66.9657650  31.5958500  71.9413460  68.3100100  31.5670270
  77.7798410  64.4540520  26.4784160  78.1468540  63.9799090  27.2245500
  77.5903470  65.3282090  26.8192500  70.6438900  59.1984210  22.6077630
  70.3585820  58.8339880  23.4456250  70.5817760  58.4664670  21.9940770
  75.5697780  63.4949160  28.7968370  75.2654850  64.3741140  29.0218730
  76.5244240  63.5548950  28.8325810  74.0979570  67.7010150  19.3935220
  73.3241830  67.1607770  19.2333940  74.8274200  67.1816760  19.0552980
  80.3177490  58.0913470  19.3291000  79.5042100  57.5926640  19.2536310
  80.1239440  58.9311720  18.9127350  80.2386350  66.7684570  31.0730610
  80.1723660  65.8480240  30.8188200  79.6091490  66.8660010  31.7875250
  74.1416970  67.3690530  23.0314030  74.6595640  66.5658790  22.9770920
  73.6900990  67.3069670  23.8730860  79.0286470  68.6356810  18.3041330
  79.3702170  69.3799040  17.8084650  78.1999180  68.9487930  18.6666160
  71.6261510  64.3351900  29.9439730  71.2676450  65.0005750  30.5313070
  71.3316070  63.5035450  30.3152350  74.8274630  64.7936140  32.8279280
  74.5274770  64.9393320  31.9307100  75.5985870  64.2341430  32.7352670
  80.1703080  69.5905140  30.8234410  80.1847620  68.6586100  30.6053320
  79.4628180  69.6764900  31.4624180  77.9977160  68.7170340  21.0757250
  78.6848290  69.2639550  21.4564840  77.2109580  69.2611070  21.1106860
  70.1369560  64.3343160  16.5674330  71.0064410  64.6167960  16.8510250
  69.6459880  65.1479030  16.4523140  77.3004370  65.7216370  20.6882610
  77.7567150  66.5321620  20.9142800  76.9492580  65.4039510  21.5201100
  79.6036980  71.2322710  27.9174910  80.2479200  71.4382090  28.5948330
  79.9666420  70.4711110  27.4645760  73.2016150  56.0654020  21.1605130
  73.0730780  56.0571920  22.1090050  72.3778170  56.4037110  20.8096140
  70.5040810  73.5470540  17.1335960  70.8638450  74.1459880  16.4793230
  70.3633150  74.0930430  17.9070990  70.2010080  57.8245140  30.6211830
  69.4868600  58.0242060  31.2264440  70.6205120  57.0484710  30.9926630
  70.4882670  71.8125400  31.6078360  70.5973790  70.8720140  31.4673750
  69.8363230  72.0780150  30.9592090  78.4795260  70.0841290  33.0076480
  78.1592130  69.3650530  33.5522170  77.8053620  70.7596360  33.0812540
  76.5209430  70.9301740  17.9509630  76.5119530  71.6631430  17.3354140
  75.6007790  70.6833320  18.0436590  72.1216070  66.1516630  18.6956390
  71.5144020  66.8915530  18.7051690  72.5965420  66.2415990  17.8694590
  79.5069030  70.9929980  16.6134820  79.6081010  70.7893970  15.6836800
  78.6070770  70.7388260  16.8182600  77.0294920  61.5510340  20.5958720
  76.3211070  62.0196680  21.0372330  77.3139400  60.8932350  21.2303910
  78.6550850  62.9707040  28.5951250  79.1536100  63.4452860  29.2603100
  78.7973800  62.0470560  28.8021280  78.1487140  73.5116300  21.3082490
  78.4028640  73.4737690  20.3861860  77.1999620  73.3849630  21.3010740
  75.2329940  59.8595420  17.9709430  76.0820470  60.2965570  17.9049620
  74.8661210  60.1715680  18.7981490  74.1321360  66.1127780  16.4444960
  74.8984630  66.0009140  17.0070390  74.2096050  65.4165750  15.7921730
  72.8268120  63.5452850  17.1277850  72.9071710  62.5980360  17.2395250
  73.7187870  63.8759730  17.2338510  73.6282830  73.6948240  24.2312390
  74.3645310  73.1463700  24.5020960  74.0123750  74.5604250  24.0918380
  70.5128310  69.7621810  20.1053900  69.5868090  70.0042950  20.0959310
  70.9784740  70.5896070  19.9838650  72.6341110  72.8794310  33.4197970
  73.4353840  73.2006360  33.8333370  72.1192930  72.5189890  34.1417880
  76.7385140  72.8678550  16.0537960  77.5313750  73.1567380  15.6019750
  76.2189490  72.4370720  15.3750440  70.3538920  65.3667770  32.3634020
  70.8577940  64.7875050  32.9350250  69.6146340  65.6508000  32.9010390
  77.2562540  68.0881960  15.9180310  77.1513180  67.4734310  16.6441690
  77.0886760  67.5647850  15.1343320  77.4076860  66.7738760  31.8969540
  76.6422530  67.3423760  31.8124210  77.5892820  66.4814970  31.0037770
  72.3862000  63.5097360  33.2584090  72.4267340  63.2111230  34.1669320
  73.2407500  63.9104970  33.0991610  76.1640390  66.1092910  18.4187600
  76.5856810  65.9432780  19.2618990  76.2891230  65.2993140  17.9242740
  74.3267810  62.0889460  31.2258580  73.7964270  61.5980410  30.5981920
  74.9955880  62.5173660  30.6916510  78.6768030  65.1330520  15.6664700
  79.1973690  64.4179540  15.3005850  79.3236430  65.7716390  15.9665210
  74.8140110  59.0551830  31.3055870  74.7196980  58.4372580  30.5806740
  74.2337500  59.7818120  31.0785780  77.5801550  57.6125070  28.3383260
  77.1318850  57.6349330  27.4928810  76.9466750  57.2144090  28.9353560
  77.9861100  66.5079400  28.9595700  78.4049210  67.3512130  28.7871940
  77.0669730  66.6451440  28.7302480  75.0599290  62.1826140  15.3645760
  74.8588350  61.3193500  15.7259100  74.8891340  62.0959500  14.4267360
  75.8368520  72.8132410  30.0753430  75.2989610  73.5378470  29.7562130
  76.0902480  72.3362750  29.2850770  77.0893770  60.7816930  31.6009360
  77.6793460  60.4732780  32.2887180  76.2714010  60.3096680  31.7569260
  73.8582090  59.2826760  15.3523640  74.1607990  59.2894190  14.4442790
  74.5976680  58.9324620  15.8491300  78.6930730  74.0483620  30.3340080
  78.6189430  74.9518760  30.6412450  77.7909570  73.7295520  30.3062150
  77.0767020  58.2261380  16.3379840  76.7289020  57.5485370  15.7582290
  77.2779790  57.7650890  17.1523230  79.2416060  73.2142130  17.9566440
  80.1366850  73.5527100  17.9785200  79.2733690  72.4921540  17.3290720
  72.8812220  68.5869180  16.1853440  73.3187090  69.1298850  16.8411020
  73.3659950  67.7616130  16.1949780  70.0958020  71.3758210  23.6373700
  70.4261030  70.5079270  23.4052340  70.5249020  71.5816730  24.4678660
  74.6919940  69.7067220  21.2975670  74.3915480  69.5832190  22.1979580
  74.5857430  68.8475810  20.8891400  70.5848230  72.2428800  26.3755330
  70.1479220  72.4229600  27.2079480  71.1525910  73.0003420  26.2337050
  70.4172660  64.7549030  22.7344210  69.7621500  64.4860670  22.0903910
  71.2550610  64.6453510  22.2846190  71.4548590  65.1401600  27.2747550
  71.8221630  65.0529000  28.1543570  70.8859410  64.3768150  27.1754410
  71.0064590  62.0510690  31.1805970  70.1120640  62.0177450  31.5199680
  71.5462140  62.2497480  31.9457220  69.6310740  61.9647960  18.6769540
  68.7274820  62.2278160  18.5021200  70.1151360  62.2359130  17.8969500
  72.1737950  61.0213500  16.5863920  72.8829650  60.5996720  16.1011200
  71.4577890  61.0888730  15.9547270  71.8212110  57.0752830  15.6266570
  72.5440240  57.6161770  15.9447790  72.0936630  56.8016250  14.7508110
  71.5104300  56.3259020  25.5289190  72.1580490  55.7756400  25.0884350
  71.9306140  56.5802170  26.3505000  71.2636300  56.4814690  28.2714510
  70.9151120  56.9378510  29.0372690  70.9324000  55.5871820  28.3536940
  72.8700670  69.6534290  32.4367700  72.8270300  69.2827200  33.3182160
  73.0011680  70.5911860  32.5769520  76.5706700  71.2093880  28.0377420
  76.3298060  71.4768440  27.1507940  77.5109340  71.3799610  28.0928280
  78.7761120  57.6726570  31.7933930  78.7150010  58.2648400  32.5429340
  79.7161500  57.5652530  31.6484190  71.9356940  56.0090890  31.5465280
  72.4839930  55.8278940  30.7831390  72.0012250  55.2185000  32.0821590
  72.7088700  72.5996540  29.5565480  72.1149020  72.4681240  30.2955520
  72.7012540  71.7634680  29.0907580  72.3400930  69.9654920  28.5073520
  71.6134990  69.3460210  28.4399470  72.4010080  70.3595530  27.6371600
  75.9446030  72.1799920  25.2922930  76.4611050  71.5687280  24.7671190
  76.5943410  72.6828700  25.7833940  78.6841530  73.0708410  26.1191910
  78.9719340  72.8162710  25.2424920  79.1964750  72.5185770  26.7097480
  79.9018540  56.8098610  26.6988420  79.1190330  57.2844110  26.9785180
  79.6081470  55.9053440  26.5901600  70.6230930  73.2829310  21.7170280
  70.4552970  72.6499990  22.4152170  69.7565440  73.4888710  21.3664470
  71.2458950  57.1146090  19.2202140  72.0038310  57.2274970  18.6466170
  70.7836120  57.9515290  19.1745570  77.7872760  59.2285360  22.2104450
  76.9747270  58.8542250  21.8700330  78.2914400  58.4730440  22.5125640
  72.2293630  71.9762540  19.1620420  71.7041250  72.3570570  18.4582380
  72.1538210  72.6013310  19.8830130  73.6184100  57.6410140  17.7604110
  74.1476860  56.8539940  17.6312060  74.2512420  58.3201330  17.9939640
  75.8121940  57.3785280  20.8149500  75.1824680  56.6772590  20.9819630
  75.2727080  58.1389410  20.5982660  78.7513890  73.9924510  33.4860110
  79.6781200  73.7568780  33.5296070  78.7364320  74.8196510  33.0046140
  75.9377500  56.6569260  33.2501990  75.6561770  57.1602860  32.4862810
  76.3197200  55.8591010  32.8844120  74.8286600  73.9244920  18.0369670
  75.5605420  73.6404200  17.4893560  75.0880270  73.6858200  18.9269050
  73.9901390  70.0409650  18.0416000  73.3610270  70.5094750  18.5901830
  74.1049220  69.1958870  18.4762190  79.5769150  65.8694330   6.0726470
  78.8011250  65.3894770   6.3625040  80.2282080  65.1899980   5.8982630
  73.5934980  66.1814140   6.9502230  72.7619860  65.9262850   7.3498740
  74.2015960  66.2524910   7.6860150  73.5736240  70.2154230   7.1460250
  73.8764280  69.3251970   6.9670470  74.3179830  70.7724450   6.9182500
  69.9659940  63.7421680   6.6184320  70.5376050  62.9743880   6.6187960
  69.9661480  64.0410440   5.7090930  79.8239890  72.5612530   4.4729590
  79.2051330  73.0170030   3.9024030  80.6791670  72.7163990   4.0719290
  79.0178140  68.5451520   6.0796630  78.9486420  67.6041460   5.9185760
  79.7798000  68.6352930   6.6519200  71.2084810  59.1506040   8.4053250
  71.0287650  58.2531790   8.6856010  70.8064890  59.6977910   9.0800200
  80.0483310  61.3521900   6.3065560  80.4248130  60.4793780   6.1939230
  79.9502820  61.6880600   5.4156000  74.1788320  59.7247530   1.7683000
  74.2855070  60.6251260   2.0751760  73.2680680  59.6765500   1.4777650
  71.8271480  61.6466540   7.0135590  72.5081590  61.9104910   7.6322990
  71.5119530  60.8067410   7.3473600  76.0196050  62.6933900   6.1008180
  76.5274270  63.1914870   6.7413200  76.5509290  61.9169100   5.9247540
  74.3032150  57.3332460  10.3671600  74.3050590  57.8504850   9.5617500
  73.4736460  56.8562640  10.3441530  75.5535000  66.9727640   8.5445100
  75.2204380  67.5996560   9.1866170  75.7301680  67.4989520   7.7646770
  73.9847480  59.0442420   8.3742050  74.3264290  59.8884470   8.0795920
  73.0463290  59.1926160   8.4907390  74.7654100  68.9408440  10.3594280
  75.3828100  69.6159520  10.0778730  73.9047220  69.3496420  10.2681780
  77.6675370  56.5324690   4.6986640  77.9750350  55.9771580   3.9822140
  76.7376070  56.6669150   4.5159630  75.6612770  65.1238260   4.2166490
  75.2569770  64.4115510   3.7212390  75.7475890  64.7791500   5.1054530
  76.1294470  68.8105820   6.3805700  75.8322760  68.2051290   5.7013480
  77.0794290  68.8483130   6.2695060  74.3741390  61.8981470   7.9965530
  74.9255980  62.0076810   7.2218780  74.8884900  62.2719070   8.7120760
  75.2212900  68.5487510  13.0313500  74.3241430  68.7727480  13.2786900
  75.2465770  68.6722450  12.0824900  74.0484120  65.4200830  11.6070870
  73.9091890  66.2923630  11.9758270  73.1665480  65.0773640  11.4618810
  75.8464470  71.3622530  13.8156020  75.8179900  71.7665480  12.9484450
  75.6829440  70.4332890  13.6527620  70.0002770  67.1898380   7.5241780
  70.0783190  67.3247150   6.5797500  70.6144450  66.4814270   7.7169900
  71.2450400  68.8898570   3.9347960  70.8378480  69.0313160   3.0801560
  72.1363410  68.6058730   3.7319170  75.5172060  73.1044350   2.0470630
  75.3414540  72.1879890   1.8338430  74.6627800  73.4631640   2.2868430
  70.0562290  68.2312550  10.0636240  70.2193330  67.7617910   9.2455610
  70.5214740  67.7236110  10.7285080  74.8281060  57.3618310   5.0996810
  74.3849210  58.1427850   4.7681330  75.3866050  57.6848200   5.8067750
  79.1150870  60.2286830  10.7032130  78.6530240  60.4369850  11.5152070
  78.7128980  59.4146180  10.4002800  76.8656960  57.9065640   6.9586410
  77.1629290  58.8128470   6.8778430  77.4142520  57.4184420   6.3445980
  74.6195280  62.4851880   2.8278060  74.3936200  62.2689050   3.7324680
  73.8387810  62.9180340   2.4824030  77.0594490  63.3837460  13.4938330
  76.9638090  62.4432190  13.3438730  77.9026470  63.6052530  13.0986400
  72.1905030  59.7951130  11.6472110  71.7968420  60.6426340  11.8544890
  71.5023430  59.1577500  11.8380750  78.7650080  59.8786100  14.7168850
  78.0748400  59.6858300  15.3514940  79.5082380  60.1620740  15.2493150
  69.4922080  57.7179590   5.6802190  69.2035130  58.2882450   6.3927170
  70.2367840  57.2384040   6.0433420  77.4790440  60.3938740   5.9575260
  77.4826500  59.9528690   5.1079800  78.3741560  60.7156070   6.0647080
  73.3292820  60.2765230   4.9169470  72.9892870  60.7540460   5.6736520
  72.5670140  59.8230350   4.5570570  71.6301270  67.6063980  12.2232050
  71.2456060  66.9657650  12.8215010  71.9413460  68.3100100  12.7926780
  77.7798410  64.4540520   7.7040670  78.1468540  63.9799090   8.4502010
  77.5903470  65.3282090   8.0449010  70.6438900  59.1984210   3.8334140
  70.3585820  58.8339880   4.6712760  70.5817760  58.4664670   3.2197280
  75.5697780  63.4949160  10.0224880  75.2654850  64.3741140  10.2475240
  76.5244240  63.5548950  10.0582320  80.2386350  66.7684570  12.2987120
  80.1723660  65.8480240  12.0444710  79.6091490  66.8660010  13.0131760
  74.1416970  67.3690530   4.2570540  74.6595640  66.5658790   4.2027430
  73.6900990  67.3069670   5.0987370  71.6261510  64.3351900  11.1696240
  71.2676450  65.0005750  11.7569580  71.3316070  63.5035450  11.5408860
  74.8274630  64.7936140  14.0535790  74.5274770  64.9393320  13.1563610
  75.5985870  64.2341430  13.9609180  80.1703080  69.5905140  12.0490920
  80.1847620  68.6586100  11.8309830  79.4628180  69.6764900  12.6880690
  77.9977160  68.7170340   2.3013760  78.6848290  69.2639550   2.6821350
  77.2109580  69.2611070   2.3363370  77.3004370  65.7216370   1.9139120
  77.7567150  66.5321620   2.1399310  76.9492580  65.4039510   2.7457610
  79.6036980  71.2322710   9.1431420  80.2479200  71.4382090   9.8204840
  79.9666420  70.4711110   8.6902270  73.2016150  56.0654020   2.3861640
  73.0730780  56.0571920   3.3346560  72.3778170  56.4037110   2.0352650
  70.2010080  57.8245140  11.8468340  69.4868600  58.0242060  12.4520950
  70.6205120  57.0484710  12.2183140  70.4882670  71.8125400  12.8334870
  70.5973790  70.8720140  12.6930260  69.8363230  72.0780150  12.1848600
  78.4795260  70.0841290  14.2332990  78.1592130  69.3650530  14.7778680
  77.8053620  70.7596360  14.3069050  77.0294920  61.5510340   1.8215230
  76.3211070  62.0196680   2.2628840  77.3139400  60.8932350   2.4560420
  78.6550850  62.9707040   9.8207760  79.1536100  63.4452860  10.4859610
  78.7973800  62.0470560  10.0277790  78.1487140  73.5116300   2.5339000
  78.4028640  73.4737690   1.6118370  77.1999620  73.3849630   2.5267250
  73.6282830  73.6948240   5.4568900  74.3645310  73.1463700   5.7277470
  74.0123750  74.5604250   5.3174890  72.6341110  72.8794310  14.6454480
  73.4353840  73.2006360  15.0589880  72.1192930  72.5189890  15.3674390
  70.3538920  65.3667770  13.5890530  70.8577940  64.7875050  14.1606760
  69.6146340  65.6508000  14.1266900  77.4076860  66.7738760  13.1226050
  76.6422530  67.3423760  13.0380720  77.5892820  66.4814970  12.2294280
  72.3862000  63.5097360  14.4840600  72.4267340  63.2111230  15.3925830
  73.2407500  63.9104970  14.3248120  74.3267810  62.0889460  12.4515090
  73.7964270  61.5980410  11.8238430  74.9955880  62.5173660  11.9173020
  74.8140110  59.0551830  12.5312380  74.7196980  58.4372580  11.8063250
  74.2337500  59.7818120  12.3042290  77.5801550  57.6125070   9.5639770
  77.1318850  57.6349330   8.7185320  76.9466750  57.2144090  10.1610070
  77.9861100  66.5079400  10.1852210  78.4049210  67.3512130  10.0128450
  77.0669730  66.6451440   9.9558990  75.8368520  72.8132410  11.3009940
  75.2989610  73.5378470  10.9818640  76.0902480  72.3362750  10.5107280
  77.0893770  60.7816930  12.8265870  77.6793460  60.4732780  13.5143690
  76.2714010  60.3096680  12.9825770  78.6930730  74.0483620  11.5596590
  78.6189430  74.9518760  11.8668960  77.7909570  73.7295520  11.5318660
  70.0958020  71.3758210   4.8630210  70.4261030  70.5079270   4.6308850
  70.5249020  71.5816730   5.6935170  74.6919940  69.7067220   2.5232180
  74.3915480  69.5832190   3.4236090  74.5857430  68.8475810   2.1147910
  70.5848230  72.2428800   7.6011840  70.1479220  72.4229600   8.4335990
  71.1525910  73.0003420   7.4593560  70.4172660  64.7549030   3.9600720
  69.7621500  64.4860670   3.3160420  71.2550610  64.6453510   3.5102700
  71.4548590  65.1401600   8.5004060  71.8221630  65.0529000   9.3800080
  70.8859410  64.3768150   8.4010920  71.0064590  62.0510690  12.4062480
  70.1120640  62.0177450  12.7456190  71.5462140  62.2497480  13.1713730
  71.5104300  56.3259020   6.7545700  72.1580490  55.7756400   6.3140860
  71.9306140  56.5802170   7.5761510  71.2636300  56.4814690   9.4971020
  70.9151120  56.9378510  10.2629200  70.9324000  55.5871820   9.5793450
  72.8700670  69.6534290  13.6624210  72.8270300  69.2827200  14.5438670
  73.0011680  70.5911860  13.8026030  76.5706700  71.2093880   9.2633930
  76.3298060  71.4768440   8.3764450  77.5109340  71.3799610   9.3184790
  78.7761120  57.6726570  13.0190440  78.7150010  58.2648400  13.7685850
  79.7161500  57.5652530  12.8740700  71.9356940  56.0090890  12.7721790
  72.4839930  55.8278940  12.0087900  72.0012250  55.2185000  13.3078100
  72.7088700  72.5996540  10.7821990  72.1149020  72.4681240  11.5212030
  72.7012540  71.7634680  10.3164090  72.3400930  69.9654920   9.7330030
  71.6134990  69.3460210   9.6655980  72.4010080  70.3595530   8.8628110
  75.9446030  72.1799920   6.5179440  76.4611050  71.5687280   5.9927700
  76.5943410  72.6828700   7.0090450  78.6841530  73.0708410   7.3448420
  78.9719340  72.8162710   6.4681430  79.1964750  72.5185770   7.9353990
  79.9018540  56.8098610   7.9244930  79.1190330  57.2844110   8.2041690
  79.6081470  55.9053440   7.8158110  70.6230930  73.2829310   2.9426790
  70.4552970  72.6499990   3.6408680  69.7565440  73.4888710   2.5920980
  77.7872760  59.2285360   3.4360960  76.9747270  58.8542250   3.0956840
  78.2914400  58.4730440   3.7382150  75.8121940  57.3785280   2.0406010
  75.1824680  56.6772590   2.2076140  75.2727080  58.1389410   1.8239170
  78.7513890  73.9924510  14.7116620  79.6781200  73.7568780  14.7552580
  78.7364320  74.8196510  14.2302650  75.9377500  56.6569260  14.4758500
  75.6561770  57.1602860  13.7119320  76.3197200  55.8591010  14.1100630
  79.5769150  47.0950840  62.3956940  78.8011250  46.6151280  62.6855510
  80.2282080  46.4156490  62.2213100  73.5934980  47.4070650  63.2732700
  72.7619860  47.1519360  63.6729210  74.2015960  47.4781420  64.0090620
  73.5736240  51.4410740  63.4690720  73.8764280  50.5508480  63.2900940
  74.3179830  51.9980960  63.2412970  72.0026930  42.3672540  57.0575090
  71.1143630  42.7088510  56.9554970  72.2868120  42.1672860  56.1655920
  69.9659940  44.9678190  62.9414790  70.5376050  44.2000390  62.9418430
  69.9661480  45.2666950  62.0321400  79.8239890  53.7869040  60.7960060
  79.2051330  54.2426540  60.2254500  80.6791670  53.9420500  60.3949760
  79.0178140  49.7708030  62.4027100  78.9486420  48.8297970  62.2416230
  79.7798000  49.8609440  62.9749670  71.2084810  40.3762550  64.7283720
  71.0287650  39.4788300  65.0086480  70.8064890  40.9234420  65.4030670
  80.0483310  42.5778410  62.6296030  80.4248130  41.7050290  62.5169700
  79.9502820  42.9137110  61.7386470  74.1788320  40.9504040  58.0913470
  74.2855070  41.8507770  58.3982230  73.2680680  40.9022010  57.8008120
  71.8271480  42.8723050  63.3366060  72.5081590  43.1361420  63.9553460
  71.5119530  42.0323920  63.6704070  76.0196050  43.9190410  62.4238650
  76.5274270  44.4171380  63.0643670  76.5509290  43.1425610  62.2478010
  75.5535000  48.1984150  64.8675570  75.2204380  48.8253070  65.5096640
  75.7301680  48.7246030  64.0877240  73.9847480  40.2698930  64.6972520
  74.3264290  41.1140980  64.4026390  73.0463290  40.4182670  64.8137860
  70.0586440  49.3564810  55.5631600  69.6814420  49.8451910  54.8316500
  70.3159510  50.0290090  56.1938130  77.6675370  37.7581200  61.0217110
  77.9750350  37.2028090  60.3052610  76.7376070  37.8925660  60.8390100
  80.0556130  45.8230030  57.7577230  79.1285410  45.7567410  57.9865700
  80.2080950  46.7610160  57.6432470  80.0425210  42.0947030  54.7544390
  79.1028880  42.2560990  54.8396850  80.3608470  42.8132710  54.2080380
  75.6612770  46.3494770  60.5396960  75.2569770  45.6372020  60.0442860
  75.7475890  46.0048010  61.4285000  76.1294470  50.0362330  62.7036170
  75.8322760  49.4307800  62.0243950  77.0794290  50.0739640  62.5925530
  74.3741390  43.1237980  64.3196000  74.9255980  43.2333320  63.5449250
  74.8884900  43.4975580  65.0351230  72.3617400  45.2439750  58.0403610
  72.2415000  45.9701840  57.4284880  72.0518290  44.4742660  57.5631520
  70.0002770  48.4154890  63.8472250  70.0783190  48.5503660  62.9027970
  70.6144450  47.7070780  64.0400370  71.2450400  50.1155080  60.2578430
  70.8378480  50.2569670  59.4032030  72.1363410  49.8315240  60.0549640
  75.5172060  54.3300860  58.3701100  75.3414540  53.4136400  58.1568900
  74.6627800  54.6888150  58.6098900  74.8281060  38.5874820  61.4227280
  74.3849210  39.3684360  61.0911800  75.3866050  38.9104710  62.1298220
  77.9439880  38.2085520  56.3033110  77.3194060  38.2045390  57.0286420
  77.8570000  37.3416480  55.9069080  76.8656960  39.1322150  63.2816880
  77.1629290  40.0384980  63.2008900  77.4142520  38.6440930  62.6676450
  74.6195280  43.7108390  59.1508530  74.3936200  43.4945560  60.0555150
  73.8387810  44.1436850  58.8054500  69.4922080  38.9436100  62.0032660
  69.2035130  39.5138960  62.7157640  70.2367840  38.4640550  62.3663890
  69.6792310  42.8856220  53.2135380  69.5966980  43.8286980  53.3550370
  69.3275370  42.7431130  52.3347730  77.4790440  41.6195250  62.2805730
  77.4826500  41.1785200  61.4310270  78.3741560  41.9412580  62.3877550
  73.3292820  41.5021740  61.2399940  72.9892870  41.9796970  61.9966990
  72.5670140  41.0486860  60.8801040  77.5410590  42.6207330  55.2712490
  77.6623410  42.5793810  56.2198310  77.1559100  43.4831480  55.1159220
  76.5532090  44.9308470  54.6695790  75.9848990  44.4826720  54.0431700
  77.2621090  45.2901250  54.1360940  77.7798410  45.6797030  64.0271140
  78.1468540  45.2055600  64.7732480  77.5903470  46.5538600  64.3679480
  70.6438900  40.4240720  60.1564610  70.3585820  40.0596390  60.9943230
  70.5817760  39.6921180  59.5427750  74.0979570  48.9266660  56.9422200
  73.3241830  48.3864280  56.7820920  74.8274200  48.4073270  56.6039960
  80.3177490  39.3169980  56.8777980  79.5042100  38.8183150  56.8023290
  80.1239440  40.1568230  56.4614330  74.1416970  48.5947040  60.5801010
  74.6595640  47.7915300  60.5257900  73.6900990  48.5326180  61.4217840
  79.0286470  49.8613320  55.8528310  79.3702170  50.6055550  55.3571630
  78.1999180  50.1744440  56.2153140  77.9977160  49.9426850  58.6244230
  78.6848290  50.4896060  59.0051820  77.2109580  50.4867580  58.6593840
  70.1369560  45.5599670  54.1161310  71.0064410  45.8424470  54.3997230
  69.6459880  46.3735540  54.0010120  77.3004370  46.9472880  58.2369590
  77.7567150  47.7578130  58.4629780  76.9492580  46.6296020  59.0688080
  79.6036980  52.4579220  65.4661890  80.2479200  52.6638600  66.1435310
  79.9666420  51.6967620  65.0132740  73.2016150  37.2910530  58.7092110
  73.0730780  37.2828430  59.6577030  72.3778170  37.6293620  58.3583120
  70.5040810  54.7727050  54.6822940  70.8638450  55.3716390  54.0280210
  70.3633150  55.3186940  55.4557970  76.5209430  52.1558250  55.4996610
  76.5119530  52.8887940  54.8841120  75.6007790  51.9089830  55.5923570
  72.1216070  47.3773140  56.2443370  71.5144020  48.1172040  56.2538670
  72.5965420  47.4672500  55.4181570  79.5069030  52.2186490  54.1621800
  79.6081010  52.0150480  53.2323780  78.6070770  51.9644770  54.3669580
  77.0294920  42.7766850  58.1445700  76.3211070  43.2453190  58.5859310
  77.3139400  42.1188860  58.7790890  78.1487140  54.7372810  58.8569470
  78.4028640  54.6994200  57.9348840  77.1999620  54.6106140  58.8497720
  75.2329940  41.0851930  55.5196410  76.0820470  41.5222080  55.4536600
  74.8661210  41.3972190  56.3468470  74.1321360  47.3384290  53.9931940
  74.8984630  47.2265650  54.5557370  74.2096050  46.6422260  53.3408710
  72.8268120  44.7709360  54.6764830  72.9071710  43.8236870  54.7882230
  73.7187870  45.1016240  54.7825490  73.6282830  54.9204750  61.7799370
  74.3645310  54.3720210  62.0507940  74.0123750  55.7860760  61.6405360
  70.5128310  50.9878320  57.6540880  69.5868090  51.2299460  57.6446290
  70.9784740  51.8152580  57.5325630  76.7385140  54.0935060  53.6024940
  77.5313750  54.3823890  53.1506730  76.2189490  53.6627230  52.9237420
  77.2562540  49.3138470  53.4667290  77.1513180  48.6990820  54.1928670
  77.0886760  48.7904360  52.6830300  76.1640390  47.3349420  55.9674580
  76.5856810  47.1689290  56.8105970  76.2891230  46.5249650  55.4729720
  78.6768030  46.3587030  53.2151680  79.1973690  45.6436050  52.8492830
  79.3236430  46.9972900  53.5152190  77.5801550  38.8381580  65.8870240
  77.1318850  38.8605840  65.0415790  76.9466750  38.4400600  66.4840540
  77.9861100  47.7335910  66.5082680  78.4049210  48.5768640  66.3358920
  77.0669730  47.8707950  66.2789460  75.0599290  43.4082650  52.9132740
  74.8588350  42.5450010  53.2746080  74.8891340  43.3216010  51.9754340
  73.8582090  40.5083270  52.9010620  74.1607990  40.5150700  51.9929770
  74.5976680  40.1581130  53.3978280  77.0767020  39.4517890  53.8866820
  76.7289020  38.7741880  53.3069270  77.2779790  38.9907400  54.7010210
  79.2416060  54.4398640  55.5053420  80.1366850  54.7783610  55.5272180
  79.2733690  53.7178050  54.8777700  72.8812220  49.8125690  53.7340420
  73.3187090  50.3555360  54.3898000  73.3659950  48.9872640  53.7436760
  70.0958020  52.6014720  61.1860680  70.4261030  51.7335780  60.9539320
  70.5249020  52.8073240  62.0165640  74.6919940  50.9323730  58.8462650
  74.3915480  50.8088700  59.7466560  74.5857430  50.0732320  58.4378380
  70.5848230  53.4685310  63.9242310  70.1479220  53.6486110  64.7566460
  71.1525910  54.2259930  63.7824030  70.4172660  45.9805540  60.2831190
  69.7621500  45.7117180  59.6390890  71.2550610  45.8710020  59.8333170
  71.4548590  46.3658110  64.8234530  71.8221630  46.2785510  65.7030550
  70.8859410  45.6024660  64.7241390  69.6310740  43.1904470  56.2256520
  68.7274820  43.4534670  56.0508180  70.1151360  43.4615640  55.4456480
  72.1737950  42.2470010  54.1350900  72.8829650  41.8253230  53.6498180
  71.4577890  42.3145240  53.5034250  71.8212110  38.3009340  53.1753550
  72.5440240  38.8418280  53.4934770  72.0936630  38.0272760  52.2995090
  71.5104300  37.5515530  63.0776170  72.1580490  37.0012910  62.6371330
  71.9306140  37.8058680  63.8991980  76.5706700  52.4350390  65.5864400
  76.3298060  52.7024950  64.6994920  77.5109340  52.6056120  65.6415260
  72.3400930  51.1911430  66.0560500  71.6134990  50.5716720  65.9886450
  72.4010080  51.5852040  65.1858580  75.9446030  53.4056430  62.8409910
  76.4611050  52.7943790  62.3158170  76.5943410  53.9085210  63.3320920
  78.6841530  54.2964920  63.6678890  78.9719340  54.0419220  62.7911900
  79.1964750  53.7442280  64.2584460  79.9018540  38.0355120  64.2475400
  79.1190330  38.5100620  64.5272160  79.6081470  37.1309950  64.1388580
  70.6230930  54.5085820  59.2657260  70.4552970  53.8756500  59.9639150
  69.7565440  54.7145220  58.9151450  71.2458950  38.3402600  56.7689120
  72.0038310  38.4531480  56.1953150  70.7836120  39.1771800  56.7232550
  77.7872760  40.4541870  59.7591430  76.9747270  40.0798760  59.4187310
  78.2914400  39.6986950  60.0612620  72.2293630  53.2019050  56.7107400
  71.7041250  53.5827080  56.0069360  72.1538210  53.8269820  57.4317110
  73.6184100  38.8666650  55.3091090  74.1476860  38.0796450  55.1799040
  74.2512420  39.5457840  55.5426620  75.8121940  38.6041790  58.3636480
  75.1824680  37.9029100  58.5306610  75.2727080  39.3645920  58.1469640
  74.8286600  55.1501430  55.5856650  75.5605420  54.8660710  55.0380540
  75.0880270  54.9114710  56.4756030  73.9901390  51.2666160  55.5902980
  73.3610270  51.7351260  56.1388810  74.1049220  50.4215380  56.0249170
  79.5769150  47.0950840  43.6213450  78.8011250  46.6151280  43.9112020
  80.2282080  46.4156490  43.4469610  73.5934980  47.4070650  44.4989210
  72.7619860  47.1519360  44.8985720  74.2015960  47.4781420  45.2347130
  73.5736240  51.4410740  44.6947230  73.8764280  50.5508480  44.5157450
  74.3179830  51.9980960  44.4669480  72.0026930  42.3672540  38.2831600
  71.1143630  42.7088510  38.1811480  72.2868120  42.1672860  37.3912430
  69.9659940  44.9678190  44.1671300  70.5376050  44.2000390  44.1674940
  69.9661480  45.2666950  43.2577910  79.8239890  53.7869040  42.0216570
  79.2051330  54.2426540  41.4511010  80.6791670  53.9420500  41.6206270
  79.0178140  49.7708030  43.6283610  78.9486420  48.8297970  43.4672740
  79.7798000  49.8609440  44.2006180  71.2084810  40.3762550  45.9540230
  71.0287650  39.4788300  46.2342990  70.8064890  40.9234420  46.6287180
  80.0483310  42.5778410  43.8552540  80.4248130  41.7050290  43.7426210
  79.9502820  42.9137110  42.9642980  74.1788320  40.9504040  39.3169980
  74.2855070  41.8507770  39.6238740  73.2680680  40.9022010  39.0264630
  71.8271480  42.8723050  44.5622570  72.5081590  43.1361420  45.1809970
  71.5119530  42.0323920  44.8960580  76.0196050  43.9190410  43.6495160
  76.5274270  44.4171380  44.2900180  76.5509290  43.1425610  43.4734520
  74.3032150  38.5588970  47.9158580  74.3050590  39.0761360  47.1104480
  73.4736460  38.0819150  47.8928510  75.5535000  48.1984150  46.0932080
  75.2204380  48.8253070  46.7353150  75.7301680  48.7246030  45.3133750
  73.9847480  40.2698930  45.9229030  74.3264290  41.1140980  45.6282900
  73.0463290  40.4182670  46.0394370  74.7654100  50.1664950  47.9081260
  75.3828100  50.8416030  47.6265710  73.9047220  50.5752930  47.8168760
  70.0586440  49.3564810  36.7888110  69.6814420  49.8451910  36.0573010
  70.3159510  50.0290090  37.4194640  77.6675370  37.7581200  42.2473620
  77.9750350  37.2028090  41.5309120  76.7376070  37.8925660  42.0646610
  80.0556130  45.8230030  38.9833740  79.1285410  45.7567410  39.2122210
  80.2080950  46.7610160  38.8688980  80.0425210  42.0947030  35.9800900
  79.1028880  42.2560990  36.0653360  80.3608470  42.8132710  35.4336890
  75.6612770  46.3494770  41.7653470  75.2569770  45.6372020  41.2699370
  75.7475890  46.0048010  42.6541510  76.1294470  50.0362330  43.9292680
  75.8322760  49.4307800  43.2500460  77.0794290  50.0739640  43.8182040
  74.3741390  43.1237980  45.5452510  74.9255980  43.2333320  44.7705760
  74.8884900  43.4975580  46.2607740  75.2212900  49.7744020  50.5800480
  74.3241430  49.9983990  50.8273880  75.2465770  49.8978960  49.6311880
  74.0484120  46.6457340  49.1557850  73.9091890  47.5180140  49.5245250
  73.1665480  46.3030150  49.0105790  75.8464470  52.5879040  51.3643000
  75.8179900  52.9921990  50.4971430  75.6829440  51.6589400  51.2014600
  72.3617400  45.2439750  39.2660120  72.2415000  45.9701840  38.6541390
  72.0518290  44.4742660  38.7888030  70.0002770  48.4154890  45.0728760
  70.0783190  48.5503660  44.1284480  70.6144450  47.7070780  45.2656880
  71.2450400  50.1155080  41.4834940  70.8378480  50.2569670  40.6288540
  72.1363410  49.8315240  41.2806150  75.5172060  54.3300860  39.5957610
  75.3414540  53.4136400  39.3825410  74.6627800  54.6888150  39.8355410
  70.0562290  49.4569060  47.6123220  70.2193330  48.9874420  46.7942590
  70.5214740  48.9492620  48.2772060  74.8281060  38.5874820  42.6483790
  74.3849210  39.3684360  42.3168310  75.3866050  38.9104710  43.3554730
  79.1150870  41.4543340  48.2519110  78.6530240  41.6626360  49.0639050
  78.7128980  40.6402690  47.9489780  77.9439880  38.2085520  37.5289620
  77.3194060  38.2045390  38.2542930  77.8570000  37.3416480  37.1325590
  76.8656960  39.1322150  44.5073390  77.1629290  40.0384980  44.4265410
  77.4142520  38.6440930  43.8932960  74.6195280  43.7108390  40.3765040
  74.3936200  43.4945560  41.2811660  73.8387810  44.1436850  40.0311010
  77.0594490  44.6093970  51.0425310  76.9638090  43.6688700  50.8925710
  77.9026470  44.8309040  50.6473380  72.1905030  41.0207640  49.1959090
  71.7968420  41.8682850  49.4031870  71.5023430  40.3834010  49.3867730
  78.7650080  41.1042610  52.2655830  78.0748400  40.9114810  52.9001920
  79.5082380  41.3877250  52.7980130  69.4922080  38.9436100  43.2289170
  69.2035130  39.5138960  43.9414150  70.2367840  38.4640550  43.5920400
  69.6792310  42.8856220  34.4391890  69.5966980  43.8286980  34.5806880
  69.3275370  42.7431130  33.5604240  77.4790440  41.6195250  43.5062240
  77.4826500  41.1785200  42.6566780  78.3741560  41.9412580  43.6134060
  73.3292820  41.5021740  42.4656450  72.9892870  41.9796970  43.2223500
  72.5670140  41.0486860  42.1057550  77.5410590  42.6207330  36.4969000
  77.6623410  42.5793810  37.4454820  77.1559100  43.4831480  36.3415730
  76.5532090  44.9308470  35.8952300  75.9848990  44.4826720  35.2688210
  77.2621090  45.2901250  35.3617450  71.6301270  48.8320490  49.7719030
  71.2456060  48.1914160  50.3701990  71.9413460  49.5356610  50.3413760
  77.7798410  45.6797030  45.2527650  78.1468540  45.2055600  45.9988990
  77.5903470  46.5538600  45.5935990  70.6438900  40.4240720  41.3821120
  70.3585820  40.0596390  42.2199740  70.5817760  39.6921180  40.7684260
  75.5697780  44.7205670  47.5711860  75.2654850  45.5997650  47.7962220
  76.5244240  44.7805460  47.6069300  74.0979570  48.9266660  38.1678710
  73.3241830  48.3864280  38.0077430  74.8274200  48.4073270  37.8296470
  80.3177490  39.3169980  38.1034490  79.5042100  38.8183150  38.0279800
  80.1239440  40.1568230  37.6870840  80.2386350  47.9941080  49.8474100
  80.1723660  47.0736750  49.5931690  79.6091490  48.0916520  50.5618740
  74.1416970  48.5947040  41.8057520  74.6595640  47.7915300  41.7514410
  73.6900990  48.5326180  42.6474350  79.0286470  49.8613320  37.0784820
  79.3702170  50.6055550  36.5828140  78.1999180  50.1744440  37.4409650
  71.6261510  45.5608410  48.7183220  71.2676450  46.2262260  49.3056560
  71.3316070  44.7291960  49.0895840  74.8274630  46.0192650  51.6022770
  74.5274770  46.1649830  50.7050590  75.5985870  45.4597940  51.5096160
  80.1703080  50.8161650  49.5977900  80.1847620  49.8842610  49.3796810
  79.4628180  50.9021410  50.2367670  77.9977160  49.9426850  39.8500740
  78.6848290  50.4896060  40.2308330  77.2109580  50.4867580  39.8850350
  70.1369560  45.5599670  35.3417820  71.0064410  45.8424470  35.6253740
  69.6459880  46.3735540  35.2266630  77.3004370  46.9472880  39.4626100
  77.7567150  47.7578130  39.6886290  76.9492580  46.6296020  40.2944590
  79.6036980  52.4579220  46.6918400  80.2479200  52.6638600  47.3691820
  79.9666420  51.6967620  46.2389250  73.2016150  37.2910530  39.9348620
  73.0730780  37.2828430  40.8833540  72.3778170  37.6293620  39.5839630
  70.5040810  54.7727050  35.9079450  70.8638450  55.3716390  35.2536720
  70.3633150  55.3186940  36.6814480  70.2010080  39.0501650  49.3955320
  69.4868600  39.2498570  50.0007930  70.6205120  38.2741220  49.7670120
  70.4882670  53.0381910  50.3821850  70.5973790  52.0976650  50.2417240
  69.8363230  53.3036660  49.7335580  78.4795260  51.3097800  51.7819970
  78.1592130  50.5907040  52.3265660  77.8053620  51.9852870  51.8556030
  76.5209430  52.1558250  36.7253120  76.5119530  52.8887940  36.1097630
  75.6007790  51.9089830  36.8180080  72.1216070  47.3773140  37.4699880
  71.5144020  48.1172040  37.4795180  72.5965420  47.4672500  36.6438080
  79.5069030  52.2186490  35.3878310  79.6081010  52.0150480  34.4580290
  78.6070770  51.9644770  35.5926090  77.0294920  42.7766850  39.3702210
  76.3211070  43.2453190  39.8115820  77.3139400  42.1188860  40.0047400
  78.6550850  44.1963550  47.3694740  79.1536100  44.6709370  48.0346590
  78.7973800  43.2727070  47.5764770  78.1487140  54.7372810  40.0825980
  78.4028640  54.6994200  39.1605350  77.1999620  54.6106140  40.0754230
  75.2329940  41.0851930  36.7452920  76.0820470  41.5222080  36.6793110
  74.8661210  41.3972190  37.5724980  74.1321360  47.3384290  35.2188450
  74.8984630  47.2265650  35.7813880  74.2096050  46.6422260  34.5665220
  72.8268120  44.7709360  35.9021340  72.9071710  43.8236870  36.0138740
  73.7187870  45.1016240  36.0082000  73.6282830  54.9204750  43.0055880
  74.3645310  54.3720210  43.2764450  74.0123750  55.7860760  42.8661870
  70.5128310  50.9878320  38.8797390  69.5868090  51.2299460  38.8702800
  70.9784740  51.8152580  38.7582140  72.6341110  54.1050820  52.1941460
  73.4353840  54.4262870  52.6076860  72.1192930  53.7446400  52.9161370
  76.7385140  54.0935060  34.8281450  77.5313750  54.3823890  34.3763240
  76.2189490  53.6627230  34.1493930  70.3538920  46.5924280  51.1377510
  70.8577940  46.0131560  51.7093740  69.6146340  46.8764510  51.6753880
  77.2562540  49.3138470  34.6923800  77.1513180  48.6990820  35.4185180
  77.0886760  48.7904360  33.9086810  77.4076860  47.9995270  50.6713030
  76.6422530  48.5680270  50.5867700  77.5892820  47.7071480  49.7781260
  72.3862000  44.7353870  52.0327580  72.4267340  44.4367740  52.9412810
  73.2407500  45.1361480  51.8735100  76.1640390  47.3349420  37.1931090
  76.5856810  47.1689290  38.0362480  76.2891230  46.5249650  36.6986230
  74.3267810  43.3145970  50.0002070  73.7964270  42.8236920  49.3725410
  74.9955880  43.7430170  49.4660000  78.6768030  46.3587030  34.4408190
  79.1973690  45.6436050  34.0749340  79.3236430  46.9972900  34.7408700
  74.8140110  40.2808340  50.0799360  74.7196980  39.6629090  49.3550230
  74.2337500  41.0074630  49.8529270  77.5801550  38.8381580  47.1126750
  77.1318850  38.8605840  46.2672300  76.9466750  38.4400600  47.7097050
  77.9861100  47.7335910  47.7339190  78.4049210  48.5768640  47.5615430
  77.0669730  47.8707950  47.5045970  75.0599290  43.4082650  34.1389250
  74.8588350  42.5450010  34.5002590  74.8891340  43.3216010  33.2010850
  75.8368520  54.0388920  48.8496920  75.2989610  54.7634980  48.5305620
  76.0902480  53.5619260  48.0594260  77.0893770  42.0073440  50.3752850
  77.6793460  41.6989290  51.0630670  76.2714010  41.5353190  50.5312750
  73.8582090  40.5083270  34.1267130  74.1607990  40.5150700  33.2186280
  74.5976680  40.1581130  34.6234790  78.6930730  55.2740130  49.1083570
  78.6189430  56.1775270  49.4155940  77.7909570  54.9552030  49.0805640
  77.0767020  39.4517890  35.1123330  76.7289020  38.7741880  34.5325780
  77.2779790  38.9907400  35.9266720  79.2416060  54.4398640  36.7309930
  80.1366850  54.7783610  36.7528690  79.2733690  53.7178050  36.1034210
  72.8812220  49.8125690  34.9596930  73.3187090  50.3555360  35.6154510
  73.3659950  48.9872640  34.9693270  70.0958020  52.6014720  42.4117190
  70.4261030  51.7335780  42.1795830  70.5249020  52.8073240  43.2422150
  74.6919940  50.9323730  40.0719160  74.3915480  50.8088700  40.9723070
  74.5857430  50.0732320  39.6634890  70.5848230  53.4685310  45.1498820
  70.1479220  53.6486110  45.9822970  71.1525910  54.2259930  45.0080540
  70.4172660  45.9805540  41.5087700  69.7621500  45.7117180  40.8647400
  71.2550610  45.8710020  41.0589680  71.4548590  46.3658110  46.0491040
  71.8221630  46.2785510  46.9287060  70.8859410  45.6024660  45.9497900
  71.0064590  43.2767200  49.9549460  70.1120640  43.2433960  50.2943170
  71.5462140  43.4753990  50.7200710  69.6310740  43.1904470  37.4513030
  68.7274820  43.4534670  37.2764690  70.1151360  43.4615640  36.6712990
  72.1737950  42.2470010  35.3607410  72.8829650  41.8253230  34.8754690
  71.4577890  42.3145240  34.7290760  71.8212110  38.3009340  34.4010060
  72.5440240  38.8418280  34.7191280  72.0936630  38.0272760  33.5251600
  71.5104300  37.5515530  44.3032680  72.1580490  37.0012910  43.8627840
  71.9306140  37.8058680  45.1248490  71.2636300  37.7071200  47.0458000
  70.9151120  38.1635020  47.8116180  70.9324000  36.8128330  47.1280430
  72.8700670  50.8790800  51.2111190  72.8270300  50.5083710  52.0925650
  73.0011680  51.8168370  51.3513010  76.5706700  52.4350390  46.8120910
  76.3298060  52.7024950  45.9251430  77.5109340  52.6056120  46.8671770
  78.7761120  38.8983080  50.5677420  78.7150010  39.4904910  51.3172830
  79.7161500  38.7909040  50.4227680  71.9356940  37.2347400  50.3208770
  72.4839930  37.0535450  49.5574880  72.0012250  36.4441510  50.8565080
  72.7088700  53.8253050  48.3308970  72.1149020  53.6937750  49.0699010
  72.7012540  52.9891190  47.8651070  72.3400930  51.1911430  47.2817010
  71.6134990  50.5716720  47.2142960  72.4010080  51.5852040  46.4115090
  75.9446030  53.4056430  44.0666420  76.4611050  52.7943790  43.5414680
  76.5943410  53.9085210  44.5577430  78.6841530  54.2964920  44.8935400
  78.9719340  54.0419220  44.0168410  79.1964750  53.7442280  45.4840970
  79.9018540  38.0355120  45.4731910  79.1190330  38.5100620  45.7528670
  79.6081470  37.1309950  45.3645090  70.6230930  54.5085820  40.4913770
  70.4552970  53.8756500  41.1895660  69.7565440  54.7145220  40.1407960
  71.2458950  38.3402600  37.9945630  72.0038310  38.4531480  37.4209660
  70.7836120  39.1771800  37.9489060  77.7872760  40.4541870  40.9847940
  76.9747270  40.0798760  40.6443820  78.2914400  39.6986950  41.2869130
  72.2293630  53.2019050  37.9363910  71.7041250  53.5827080  37.2325870
  72.1538210  53.8269820  38.6573620  73.6184100  38.8666650  36.5347600
  74.1476860  38.0796450  36.4055550  74.2512420  39.5457840  36.7683130
  75.8121940  38.6041790  39.5892990  75.1824680  37.9029100  39.7563120
  75.2727080  39.3645920  39.3726150  78.7513890  55.2181020  52.2603600
  79.6781200  54.9825290  52.3039560  78.7364320  56.0453020  51.7789630
  75.9377500  37.8825770  52.0245480  75.6561770  38.3859370  51.2606300
  76.3197200  37.0847520  51.6587610  74.8286600  55.1501430  36.8113160
  75.5605420  54.8660710  36.2637050  75.0880270  54.9114710  37.7012540
  73.9901390  51.2666160  36.8159490  73.3610270  51.7351260  37.3645320
  74.1049220  50.4215380  37.2505680  79.5769150  47.0950840  24.8469960
  78.8011250  46.6151280  25.1368530  80.2282080  46.4156490  24.6726120
  73.5934980  47.4070650  25.7245720  72.7619860  47.1519360  26.1242230
  74.2015960  47.4781420  26.4603640  73.5736240  51.4410740  25.9203740
  73.8764280  50.5508480  25.7413960  74.3179830  51.9980960  25.6925990
  72.0026930  42.3672540  19.5088110  71.1143630  42.7088510  19.4067990
  72.2868120  42.1672860  18.6168940  69.9659940  44.9678190  25.3927810
  70.5376050  44.2000390  25.3931450  69.9661480  45.2666950  24.4834420
  79.8239890  53.7869040  23.2473080  79.2051330  54.2426540  22.6767520
  80.6791670  53.9420500  22.8462780  79.0178140  49.7708030  24.8540120
  78.9486420  48.8297970  24.6929250  79.7798000  49.8609440  25.4262690
  71.2084810  40.3762550  27.1796740  71.0287650  39.4788300  27.4599500
  70.8064890  40.9234420  27.8543690  80.0483310  42.5778410  25.0809050
  80.4248130  41.7050290  24.9682720  79.9502820  42.9137110  24.1899490
  74.1788320  40.9504040  20.5426490  74.2855070  41.8507770  20.8495250
  73.2680680  40.9022010  20.2521140  71.8271480  42.8723050  25.7879080
  72.5081590  43.1361420  26.4066480  71.5119530  42.0323920  26.1217090
  76.0196050  43.9190410  24.8751670  76.5274270  44.4171380  25.5156690
  76.5509290  43.1425610  24.6991030  74.3032150  38.5588970  29.1415090
  74.3050590  39.0761360  28.3360990  73.4736460  38.0819150  29.1185020
  75.5535000  48.1984150  27.3188590  75.2204380  48.8253070  27.9609660
  75.7301680  48.7246030  26.5390260  73.9847480  40.2698930  27.1485540
  74.3264290  41.1140980  26.8539410  73.0463290  40.4182670  27.2650880
  74.7654100  50.1664950  29.1337770  75.3828100  50.8416030  28.8522220
  73.9047220  50.5752930  29.0425270  70.0586440  49.3564810  18.0144620
  69.6814420  49.8451910  17.2829520  70.3159510  50.0290090  18.6451150
  77.6675370  37.7581200  23.4730130  77.9750350  37.2028090  22.7565630
  76.7376070  37.8925660  23.2903120  80.0556130  45.8230030  20.2090250
  79.1285410  45.7567410  20.4378720  80.2080950  46.7610160  20.0945490
  80.0425210  42.0947030  17.2057410  79.1028880  42.2560990  17.2909870
  80.3608470  42.8132710  16.6593400  75.6612770  46.3494770  22.9909980
  75.2569770  45.6372020  22.4955880  75.7475890  46.0048010  23.8798020
  76.1294470  50.0362330  25.1549190  75.8322760  49.4307800  24.4756970
  77.0794290  50.0739640  25.0438550  74.3741390  43.1237980  26.7709020
  74.9255980  43.2333320  25.9962270  74.8884900  43.4975580  27.4864250
  75.2212900  49.7744020  31.8056990  74.3241430  49.9983990  32.0530390
  75.2465770  49.8978960  30.8568390  74.0484120  46.6457340  30.3814360
  73.9091890  47.5180140  30.7501760  73.1665480  46.3030150  30.2362300
  75.8464470  52.5879040  32.5899510  75.8179900  52.9921990  31.7227940
  75.6829440  51.6589400  32.4271110  72.3617400  45.2439750  20.4916630
  72.2415000  45.9701840  19.8797900  72.0518290  44.4742660  20.0144540
  70.0002770  48.4154890  26.2985270  70.0783190  48.5503660  25.3540990
  70.6144450  47.7070780  26.4913390  71.2450400  50.1155080  22.7091450
  70.8378480  50.2569670  21.8545050  72.1363410  49.8315240  22.5062660
  75.5172060  54.3300860  20.8214120  75.3414540  53.4136400  20.6081920
  74.6627800  54.6888150  21.0611920  70.0562290  49.4569060  28.8379730
  70.2193330  48.9874420  28.0199100  70.5214740  48.9492620  29.5028570
  74.8281060  38.5874820  23.8740300  74.3849210  39.3684360  23.5424820
  75.3866050  38.9104710  24.5811240  79.1150870  41.4543340  29.4775620
  78.6530240  41.6626360  30.2895560  78.7128980  40.6402690  29.1746290
  77.9439880  38.2085520  18.7546130  77.3194060  38.2045390  19.4799440
  77.8570000  37.3416480  18.3582100  76.8656960  39.1322150  25.7329900
  77.1629290  40.0384980  25.6521920  77.4142520  38.6440930  25.1189470
  74.6195280  43.7108390  21.6021550  74.3936200  43.4945560  22.5068170
  73.8387810  44.1436850  21.2567520  77.0594490  44.6093970  32.2681820
  76.9638090  43.6688700  32.1182220  77.9026470  44.8309040  31.8729890
  72.1905030  41.0207640  30.4215600  71.7968420  41.8682850  30.6288380
  71.5023430  40.3834010  30.6124240  78.7650080  41.1042610  33.4912340
  78.0748400  40.9114810  34.1258430  79.5082380  41.3877250  34.0236640
  69.4922080  38.9436100  24.4545680  69.2035130  39.5138960  25.1670660
  70.2367840  38.4640550  24.8176910  69.6792310  42.8856220  15.6648400
  69.5966980  43.8286980  15.8063390  69.3275370  42.7431130  14.7860750
  77.4790440  41.6195250  24.7318750  77.4826500  41.1785200  23.8823290
  78.3741560  41.9412580  24.8390570  73.3292820  41.5021740  23.6912960
  72.9892870  41.9796970  24.4480010  72.5670140  41.0486860  23.3314060
  77.5410590  42.6207330  17.7225510  77.6623410  42.5793810  18.6711330
  77.1559100  43.4831480  17.5672240  76.5532090  44.9308470  17.1208810
  75.9848990  44.4826720  16.4944720  77.2621090  45.2901250  16.5873960
  71.6301270  48.8320490  30.9975540  71.2456060  48.1914160  31.5958500
  71.9413460  49.5356610  31.5670270  77.7798410  45.6797030  26.4784160
  78.1468540  45.2055600  27.2245500  77.5903470  46.5538600  26.8192500
  70.6438900  40.4240720  22.6077630  70.3585820  40.0596390  23.4456250
  70.5817760  39.6921180  21.9940770  75.5697780  44.7205670  28.7968370
  75.2654850  45.5997650  29.0218730  76.5244240  44.7805460  28.8325810
  74.0979570  48.9266660  19.3935220  73.3241830  48.3864280  19.2333940
  74.8274200  48.4073270  19.0552980  80.3177490  39.3169980  19.3291000
  79.5042100  38.8183150  19.2536310  80.1239440  40.1568230  18.9127350
  80.2386350  47.9941080  31.0730610  80.1723660  47.0736750  30.8188200
  79.6091490  48.0916520  31.7875250  74.1416970  48.5947040  23.0314030
  74.6595640  47.7915300  22.9770920  73.6900990  48.5326180  23.8730860
  79.0286470  49.8613320  18.3041330  79.3702170  50.6055550  17.8084650
  78.1999180  50.1744440  18.6666160  71.6261510  45.5608410  29.9439730
  71.2676450  46.2262260  30.5313070  71.3316070  44.7291960  30.3152350
  74.8274630  46.0192650  32.8279280  74.5274770  46.1649830  31.9307100
  75.5985870  45.4597940  32.7352670  80.1703080  50.8161650  30.8234410
  80.1847620  49.8842610  30.6053320  79.4628180  50.9021410  31.4624180
  77.9977160  49.9426850  21.0757250  78.6848290  50.4896060  21.4564840
  77.2109580  50.4867580  21.1106860  70.1369560  45.5599670  16.5674330
  71.0064410  45.8424470  16.8510250  69.6459880  46.3735540  16.4523140
  77.3004370  46.9472880  20.6882610  77.7567150  47.7578130  20.9142800
  76.9492580  46.6296020  21.5201100  79.6036980  52.4579220  27.9174910
  80.2479200  52.6638600  28.5948330  79.9666420  51.6967620  27.4645760
  73.2016150  37.2910530  21.1605130  73.0730780  37.2828430  22.1090050
  72.3778170  37.6293620  20.8096140  70.5040810  54.7727050  17.1335960
  70.8638450  55.3716390  16.4793230  70.3633150  55.3186940  17.9070990
  70.2010080  39.0501650  30.6211830  69.4868600  39.2498570  31.2264440
  70.6205120  38.2741220  30.9926630  70.4882670  53.0381910  31.6078360
  70.5973790  52.0976650  31.4673750  69.8363230  53.3036660  30.9592090
  78.4795260  51.3097800  33.0076480  78.1592130  50.5907040  33.5522170
  77.8053620  51.9852870  33.0812540  76.5209430  52.1558250  17.9509630
  76.5119530  52.8887940  17.3354140  75.6007790  51.9089830  18.0436590
  72.1216070  47.3773140  18.6956390  71.5144020  48.1172040  18.7051690
  72.5965420  47.4672500  17.8694590  79.5069030  52.2186490  16.6134820
  79.6081010  52.0150480  15.6836800  78.6070770  51.9644770  16.8182600
  77.0294920  42.7766850  20.5958720  76.3211070  43.2453190  21.0372330
  77.3139400  42.1188860  21.2303910  78.6550850  44.1963550  28.5951250
  79.1536100  44.6709370  29.2603100  78.7973800  43.2727070  28.8021280
  78.1487140  54.7372810  21.3082490  78.4028640  54.6994200  20.3861860
  77.1999620  54.6106140  21.3010740  75.2329940  41.0851930  17.9709430
  76.0820470  41.5222080  17.9049620  74.8661210  41.3972190  18.7981490
  74.1321360  47.3384290  16.4444960  74.8984630  47.2265650  17.0070390
  74.2096050  46.6422260  15.7921730  72.8268120  44.7709360  17.1277850
  72.9071710  43.8236870  17.2395250  73.7187870  45.1016240  17.2338510
  73.6282830  54.9204750  24.2312390  74.3645310  54.3720210  24.5020960
  74.0123750  55.7860760  24.0918380  70.5128310  50.9878320  20.1053900
  69.5868090  51.2299460  20.0959310  70.9784740  51.8152580  19.9838650
  72.6341110  54.1050820  33.4197970  73.4353840  54.4262870  33.8333370
  72.1192930  53.7446400  34.1417880  76.7385140  54.0935060  16.0537960
  77.5313750  54.3823890  15.6019750  76.2189490  53.6627230  15.3750440
  70.3538920  46.5924280  32.3634020  70.8577940  46.0131560  32.9350250
  69.6146340  46.8764510  32.9010390  77.2562540  49.3138470  15.9180310
  77.1513180  48.6990820  16.6441690  77.0886760  48.7904360  15.1343320
  77.4076860  47.9995270  31.8969540  76.6422530  48.5680270  31.8124210
  77.5892820  47.7071480  31.0037770  72.3862000  44.7353870  33.2584090
  72.4267340  44.4367740  34.1669320  73.2407500  45.1361480  33.0991610
  76.1640390  47.3349420  18.4187600  76.5856810  47.1689290  19.2618990
  76.2891230  46.5249650  17.9242740  74.3267810  43.3145970  31.2258580
  73.7964270  42.8236920  30.5981920  74.9955880  43.7430170  30.6916510
  78.6768030  46.3587030  15.6664700  79.1973690  45.6436050  15.3005850
  79.3236430  46.9972900  15.9665210  74.8140110  40.2808340  31.3055870
  74.7196980  39.6629090  30.5806740  74.2337500  41.0074630  31.0785780
  77.5801550  38.8381580  28.3383260  77.1318850  38.8605840  27.4928810
  76.9466750  38.4400600  28.9353560  77.9861100  47.7335910  28.9595700
  78.4049210  48.5768640  28.7871940  77.0669730  47.8707950  28.7302480
  75.0599290  43.4082650  15.3645760  74.8588350  42.5450010  15.7259100
  74.8891340  43.3216010  14.4267360  75.8368520  54.0388920  30.0753430
  75.2989610  54.7634980  29.7562130  76.0902480  53.5619260  29.2850770
  77.0893770  42.0073440  31.6009360  77.6793460  41.6989290  32.2887180
  76.2714010  41.5353190  31.7569260  73.8582090  40.5083270  15.3523640
  74.1607990  40.5150700  14.4442790  74.5976680  40.1581130  15.8491300
  78.6930730  55.2740130  30.3340080  78.6189430  56.1775270  30.6412450
  77.7909570  54.9552030  30.3062150  77.0767020  39.4517890  16.3379840
  76.7289020  38.7741880  15.7582290  77.2779790  38.9907400  17.1523230
  79.2416060  54.4398640  17.9566440  80.1366850  54.7783610  17.9785200
  79.2733690  53.7178050  17.3290720  72.8812220  49.8125690  16.1853440
  73.3187090  50.3555360  16.8411020  73.3659950  48.9872640  16.1949780
  70.0958020  52.6014720  23.6373700  70.4261030  51.7335780  23.4052340
  70.5249020  52.8073240  24.4678660  74.6919940  50.9323730  21.2975670
  74.3915480  50.8088700  22.1979580  74.5857430  50.0732320  20.8891400
  70.5848230  53.4685310  26.3755330  70.1479220  53.6486110  27.2079480
  71.1525910  54.2259930  26.2337050  70.4172660  45.9805540  22.7344210
  69.7621500  45.7117180  22.0903910  71.2550610  45.8710020  22.2846190
  71.4548590  46.3658110  27.2747550  71.8221630  46.2785510  28.1543570
  70.8859410  45.6024660  27.1754410  71.0064590  43.2767200  31.1805970
  70.1120640  43.2433960  31.5199680  71.5462140  43.4753990  31.9457220
  69.6310740  43.1904470  18.6769540  68.7274820  43.4534670  18.5021200
  70.1151360  43.4615640  17.8969500  72.1737950  42.2470010  16.5863920
  72.8829650  41.8253230  16.1011200  71.4577890  42.3145240  15.9547270
  71.8212110  38.3009340  15.6266570  72.5440240  38.8418280  15.9447790
  72.0936630  38.0272760  14.7508110  71.5104300  37.5515530  25.5289190
  72.1580490  37.0012910  25.0884350  71.9306140  37.8058680  26.3505000
  71.2636300  37.7071200  28.2714510  70.9151120  38.1635020  29.0372690
  70.9324000  36.8128330  28.3536940  72.8700670  50.8790800  32.4367700
  72.8270300  50.5083710  33.3182160  73.0011680  51.8168370  32.5769520
  76.5706700  52.4350390  28.0377420  76.3298060  52.7024950  27.1507940
  77.5109340  52.6056120  28.0928280  78.7761120  38.8983080  31.7933930
  78.7150010  39.4904910  32.5429340  79.7161500  38.7909040  31.6484190
  71.9356940  37.2347400  31.5465280  72.4839930  37.0535450  30.7831390
  72.0012250  36.4441510  32.0821590  72.7088700  53.8253050  29.5565480
  72.1149020  53.6937750  30.2955520  72.7012540  52.9891190  29.0907580
  72.3400930  51.1911430  28.5073520  71.6134990  50.5716720  28.4399470
  72.4010080  51.5852040  27.6371600  75.9446030  53.4056430  25.2922930
  76.4611050  52.7943790  24.7671190  76.5943410  53.9085210  25.7833940
  78.6841530  54.2964920  26.1191910  78.9719340  54.0419220  25.2424920
  79.1964750  53.7442280  26.7097480  79.9018540  38.0355120  26.6988420
  79.1190330  38.5100620  26.9785180  79.6081470  37.1309950  26.5901600
  70.6230930  54.5085820  21.7170280  70.4552970  53.8756500  22.4152170
  69.7565440  54.7145220  21.3664470  71.2458950  38.3402600  19.2202140
  72.0038310  38.4531480  18.6466170  70.7836120  39.1771800  19.1745570
  77.7872760  40.4541870  22.2104450  76.9747270  40.0798760  21.8700330
  78.2914400  39.6986950  22.5125640  72.2293630  53.2019050  19.1620420
  71.7041250  53.5827080  18.4582380  72.1538210  53.8269820  19.8830130
  73.6184100  38.8666650  17.7604110  74.1476860  38.0796450  17.6312060
  74.2512420  39.5457840  17.9939640  75.8121940  38.6041790  20.8149500
  75.1824680  37.9029100  20.9819630  75.2727080  39.3645920  20.5982660
  78.7513890  55.2181020  33.4860110  79.6781200  54.9825290  33.5296070
  78.7364320  56.0453020  33.0046140  75.9377500  37.8825770  33.2501990
  75.6561770  38.3859370  32.4862810  76.3197200  37.0847520  32.8844120
  74.8286600  55.1501430  18.0369670  75.5605420  54.8660710  17.4893560
  75.0880270  54.9114710  18.9269050  73.9901390  51.2666160  18.0416000
  73.3610270  51.7351260  18.5901830  74.1049220  50.4215380  18.4762190
  79.5769150  47.0950840   6.0726470  78.8011250  46.6151280   6.3625040
  80.2282080  46.4156490   5.8982630  73.5934980  47.4070650   6.9502230
  72.7619860  47.1519360   7.3498740  74.2015960  47.4781420   7.6860150
  73.5736240  51.4410740   7.1460250  73.8764280  50.5508480   6.9670470
  74.3179830  51.9980960   6.9182500  69.9659940  44.9678190   6.6184320
  70.5376050  44.2000390   6.6187960  69.9661480  45.2666950   5.7090930
  79.8239890  53.7869040   4.4729590  79.2051330  54.2426540   3.9024030
  80.6791670  53.9420500   4.0719290  79.0178140  49.7708030   6.0796630
  78.9486420  48.8297970   5.9185760  79.7798000  49.8609440   6.6519200
  71.2084810  40.3762550   8.4053250  71.0287650  39.4788300   8.6856010
  70.8064890  40.9234420   9.0800200  80.0483310  42.5778410   6.3065560
  80.4248130  41.7050290   6.1939230  79.9502820  42.9137110   5.4156000
  74.1788320  40.9504040   1.7683000  74.2855070  41.8507770   2.0751760
  73.2680680  40.9022010   1.4777650  71.8271480  42.8723050   7.0135590
  72.5081590  43.1361420   7.6322990  71.5119530  42.0323920   7.3473600
  76.0196050  43.9190410   6.1008180  76.5274270  44.4171380   6.7413200
  76.5509290  43.1425610   5.9247540  74.3032150  38.5588970  10.3671600
  74.3050590  39.0761360   9.5617500  73.4736460  38.0819150  10.3441530
  75.5535000  48.1984150   8.5445100  75.2204380  48.8253070   9.1866170
  75.7301680  48.7246030   7.7646770  73.9847480  40.2698930   8.3742050
  74.3264290  41.1140980   8.0795920  73.0463290  40.4182670   8.4907390
  74.7654100  50.1664950  10.3594280  75.3828100  50.8416030  10.0778730
  73.9047220  50.5752930  10.2681780  77.6675370  37.7581200   4.6986640
  77.9750350  37.2028090   3.9822140  76.7376070  37.8925660   4.5159630
  75.6612770  46.3494770   4.2166490  75.2569770  45.6372020   3.7212390
  75.7475890  46.0048010   5.1054530  76.1294470  50.0362330   6.3805700
  75.8322760  49.4307800   5.7013480  77.0794290  50.0739640   6.2695060
  74.3741390  43.1237980   7.9965530  74.9255980  43.2333320   7.2218780
  74.8884900  43.4975580   8.7120760  75.2212900  49.7744020  13.0313500
  74.3241430  49.9983990  13.2786900  75.2465770  49.8978960  12.0824900
  74.0484120  46.6457340  11.6070870  73.9091890  47.5180140  11.9758270
  73.1665480  46.3030150  11.4618810  75.8464470  52.5879040  13.8156020
  75.8179900  52.9921990  12.9484450  75.6829440  51.6589400  13.6527620
  70.0002770  48.4154890   7.5241780  70.0783190  48.5503660   6.5797500
  70.6144450  47.7070780   7.7169900  71.2450400  50.1155080   3.9347960
  70.8378480  50.2569670   3.0801560  72.1363410  49.8315240   3.7319170
  75.5172060  54.3300860   2.0470630  75.3414540  53.4136400   1.8338430
  74.6627800  54.6888150   2.2868430  70.0562290  49.4569060  10.0636240
  70.2193330  48.9874420   9.2455610  70.5214740  48.9492620  10.7285080
  74.8281060  38.5874820   5.0996810  74.3849210  39.3684360   4.7681330
  75.3866050  38.9104710   5.8067750  79.1150870  41.4543340  10.7032130
  78.6530240  41.6626360  11.5152070  78.7128980  40.6402690  10.4002800
  76.8656960  39.1322150   6.9586410  77.1629290  40.0384980   6.8778430
  77.4142520  38.6440930   6.3445980  74.6195280  43.7108390   2.8278060
  74.3936200  43.4945560   3.7324680  73.8387810  44.1436850   2.4824030
  77.0594490  44.6093970  13.4938330  76.9638090  43.6688700  13.3438730
  77.9026470  44.8309040  13.0986400  72.1905030  41.0207640  11.6472110
  71.7968420  41.8682850  11.8544890  71.5023430  40.3834010  11.8380750
  78.7650080  41.1042610  14.7168850  78.0748400  40.9114810  15.3514940
  79.5082380  41.3877250  15.2493150  69.4922080  38.9436100   5.6802190
  69.2035130  39.5138960   6.3927170  70.2367840  38.4640550   6.0433420
  77.4790440  41.6195250   5.9575260  77.4826500  41.1785200   5.1079800
  78.3741560  41.9412580   6.0647080  73.3292820  41.5021740   4.9169470
  72.9892870  41.9796970   5.6736520  72.5670140  41.0486860   4.5570570
  71.6301270  48.8320490  12.2232050  71.2456060  48.1914160  12.8215010
  71.9413460  49.5356610  12.7926780  77.7798410  45.6797030   7.7040670
  78.1468540  45.2055600   8.4502010  77.5903470  46.5538600   8.0449010
  70.6438900  40.4240720   3.8334140  70.3585820  40.0596390   4.6712760
  70.5817760  39.6921180   3.2197280  75.5697780  44.7205670  10.0224880
  75.2654850  45.5997650  10.2475240  76.5244240  44.7805460  10.0582320
  80.2386350  47.9941080  12.2987120  80.1723660  47.0736750  12.0444710
  79.6091490  48.0916520  13.0131760  74.1416970  48.5947040   4.2570540
  74.6595640  47.7915300   4.2027430  73.6900990  48.5326180   5.0987370
  71.6261510  45.5608410  11.1696240  71.2676450  46.2262260  11.7569580
  71.3316070  44.7291960  11.5408860  74.8274630  46.0192650  14.0535790
  74.5274770  46.1649830  13.1563610  75.5985870  45.4597940  13.9609180
  80.1703080  50.8161650  12.0490920  80.1847620  49.8842610  11.8309830
  79.4628180  50.9021410  12.6880690  77.9977160  49.9426850   2.3013760
  78.6848290  50.4896060   2.6821350  77.2109580  50.4867580   2.3363370
  77.3004370  46.9472880   1.9139120  77.7567150  47.7578130   2.1399310
  76.9492580  46.6296020   2.7457610  79.6036980  52.4579220   9.1431420
  80.2479200  52.6638600   9.8204840  79.9666420  51.6967620   8.6902270
  73.2016150  37.2910530   2.3861640  73.0730780  37.2828430   3.3346560
  72.3778170  37.6293620   2.0352650  70.2010080  39.0501650  11.8468340
  69.4868600  39.2498570  12.4520950  70.6205120  38.2741220  12.2183140
  70.4882670  53.0381910  12.8334870  70.5973790  52.0976650  12.6930260
  69.8363230  53.3036660  12.1848600  78.4795260  51.3097800  14.2332990
  78.1592130  50.5907040  14.7778680  77.8053620  51.9852870  14.3069050
  77.0294920  42.7766850   1.8215230  76.3211070  43.2453190   2.2628840
  77.3139400  42.1188860   2.4560420  78.6550850  44.1963550   9.8207760
  79.1536100  44.6709370  10.4859610  78.7973800  43.2727070  10.0277790
  78.1487140  54.7372810   2.5339000  78.4028640  54.6994200   1.6118370
  77.1999620  54.6106140   2.5267250  73.6282830  54.9204750   5.4568900
  74.3645310  54.3720210   5.7277470  74.0123750  55.7860760   5.3174890
  72.6341110  54.1050820  14.6454480  73.4353840  54.4262870  15.0589880
  72.1192930  53.7446400  15.3674390  70.3538920  46.5924280  13.5890530
  70.8577940  46.0131560  14.1606760  69.6146340  46.8764510  14.1266900
  77.4076860  47.9995270  13.1226050  76.6422530  48.5680270  13.0380720
  77.5892820  47.7071480  12.2294280  72.3862000  44.7353870  14.4840600
  72.4267340  44.4367740  15.3925830  73.2407500  45.1361480  14.3248120
  74.3267810  43.3145970  12.4515090  73.7964270  42.8236920  11.8238430
  74.9955880  43.7430170  11.9173020  74.8140110  40.2808340  12.5312380
  74.7196980  39.6629090  11.8063250  74.2337500  41.0074630  12.3042290
  77.5801550  38.8381580   9.5639770  77.1318850  38.8605840   8.7185320
  76.9466750  38.4400600  10.1610070  77.9861100  47.7335910  10.1852210
  78.4049210  48.5768640  10.0128450  77.0669730  47.8707950   9.9558990
  75.8368520  54.0388920  11.3009940  75.2989610  54.7634980  10.9818640
  76.0902480  53.5619260  10.5107280  77.0893770  42.0073440  12.8265870
  77.6793460  41.6989290  13.5143690  76.2714010  41.5353190  12.9825770
  78.6930730  55.2740130  11.5596590  78.6189430  56.1775270  11.8668960
  77.7909570  54.9552030  11.5318660  70.0958020  52.6014720   4.8630210
  70.4261030  51.7335780   4.6308850  70.5249020  52.8073240   5.6935170
  74.6919940  50.9323730   2.5232180  74.3915480  50.8088700   3.4236090
  74.5857430  50.0732320   2.1147910  70.5848230  53.4685310   7.6011840
  70.1479220  53.6486110   8.4335990  71.1525910  54.2259930   7.4593560
  70.4172660  45.9805540   3.9600720  69.7621500  45.7117180   3.3160420
  71.2550610  45.8710020   3.5102700  71.4548590  46.3658110   8.5004060
  71.8221630  46.2785510   9.3800080  70.8859410  45.6024660   8.4010920
  71.0064590  43.2767200  12.4062480  70.1120640  43.2433960  12.7456190
  71.5462140  43.4753990  13.1713730  71.5104300  37.5515530   6.7545700
  72.1580490  37.0012910   6.3140860  71.9306140  37.8058680   7.5761510
  71.2636300  37.7071200   9.4971020  70.9151120  38.1635020  10.2629200
  70.9324000  36.8128330   9.5793450  72.8700670  50.8790800  13.6624210
  72.8270300  50.5083710  14.5438670  73.0011680  51.8168370  13.8026030
  76.5706700  52.4350390   9.2633930  76.3298060  52.7024950   8.3764450
  77.5109340  52.6056120   9.3184790  78.7761120  38.8983080  13.0190440
  78.7150010  39.4904910  13.7685850  79.7161500  38.7909040  12.8740700
  71.9356940  37.2347400  12.7721790  72.4839930  37.0535450  12.0087900
  72.0012250  36.4441510  13.3078100  72.7088700  53.8253050  10.7821990
  72.1149020  53.6937750  11.5212030  72.7012540  52.9891190  10.3164090
  72.3400930  51.1911430   9.7330030  71.6134990  50.5716720   9.6655980
  72.4010080  51.5852040   8.8628110  75.9446030  53.4056430   6.5179440
  76.4611050  52.7943790   5.9927700  76.5943410  53.9085210   7.0090450
  78.6841530  54.2964920   7.3448420  78.9719340  54.0419220   6.4681430
  79.1964750  53.7442280   7.9353990  79.9018540  38.0355120   7.9244930
  79.1190330  38.5100620   8.2041690  79.6081470  37.1309950   7.8158110
  70.6230930  54.5085820   2.9426790  70.4552970  53.8756500   3.6408680
  69.7565440  54.7145220   2.5920980  77.7872760  40.4541870   3.4360960
  76.9747270  40.0798760   3.0956840  78.2914400  39.6986950   3.7382150
  75.8121940  38.6041790   2.0406010  75.1824680  37.9029100   2.2076140
  75.2727080  39.3645920   1.8239170  78.7513890  55.2181020  14.7116620
  79.6781200  54.9825290  14.7552580  78.7364320  56.0453020  14.2302650
  75.9377500  37.8825770  14.4758500  75.6561770  38.3859370  13.7119320
  76.3197200  37.0847520  14.1100630  79.5769150  28.3207350  62.3956940
  78.8011250  27.8407790  62.6855510  80.2282080  27.6413000  62.2213100
  73.5934980  28.6327160  63.2732700  72.7619860  28.3775870  63.6729210
  74.2015960  28.7037930  64.0090620  73.5736240  32.6667250  63.4690720
  73.8764280  31.7764990  63.2900940  74.3179830  33.2237470  63.2412970
  72.0026930  23.5929050  57.0575090  71.1143630  23.9345020  56.9554970
  72.2868120  23.3929370  56.1655920  69.9659940  26.1934700  62.9414790
  70.5376050  25.4256900  62.9418430  69.9661480  26.4923460  62.0321400
  79.8239890  35.0125550  60.7960060  79.2051330  35.4683050  60.2254500
  80.6791670  35.1677010  60.3949760  79.0178140  30.9964540  62.4027100
  78.9486420  30.0554480  62.2416230  79.7798000  31.0865950  62.9749670
  71.2084810  21.6019060  64.7283720  71.0287650  20.7044810  65.0086480
  70.8064890  22.1490930  65.4030670  80.0483310  23.8034920  62.6296030
  80.4248130  22.9306800  62.5169700  79.9502820  24.1393620  61.7386470
  74.1788320  22.1760550  58.0913470  74.2855070  23.0764280  58.3982230
  73.2680680  22.1278520  57.8008120  71.8271480  24.0979560  63.3366060
  72.5081590  24.3617930  63.9553460  71.5119530  23.2580430  63.6704070
  76.0196050  25.1446920  62.4238650  76.5274270  25.6427890  63.0643670
  76.5509290  24.3682120  62.2478010  75.5535000  29.4240660  64.8675570
  75.2204380  30.0509580  65.5096640  75.7301680  29.9502540  64.0877240
  73.9847480  21.4955440  64.6972520  74.3264290  22.3397490  64.4026390
  73.0463290  21.6439180  64.8137860  70.0586440  30.5821320  55.5631600
  69.6814420  31.0708420  54.8316500  70.3159510  31.2546600  56.1938130
  77.6675370  18.9837710  61.0217110  77.9750350  18.4284600  60.3052610
  76.7376070  19.1182170  60.8390100  80.0556130  27.0486540  57.7577230
  79.1285410  26.9823920  57.9865700  80.2080950  27.9866670  57.6432470
  80.0425210  23.3203540  54.7544390  79.1028880  23.4817500  54.8396850
  80.3608470  24.0389220  54.2080380  75.6612770  27.5751280  60.5396960
  75.2569770  26.8628530  60.0442860  75.7475890  27.2304520  61.4285000
  76.1294470  31.2618840  62.7036170  75.8322760  30.6564310  62.0243950
  77.0794290  31.2996150  62.5925530  74.3741390  24.3494490  64.3196000
  74.9255980  24.4589830  63.5449250  74.8884900  24.7232090  65.0351230
  72.3617400  26.4696260  58.0403610  72.2415000  27.1958350  57.4284880
  72.0518290  25.6999170  57.5631520  70.0002770  29.6411400  63.8472250
  70.0783190  29.7760170  62.9027970  70.6144450  28.9327290  64.0400370
  71.2450400  31.3411590  60.2578430  70.8378480  31.4826180  59.4032030
  72.1363410  31.0571750  60.0549640  75.5172060  35.5557370  58.3701100
  75.3414540  34.6392910  58.1568900  74.6627800  35.9144660  58.6098900
  74.8281060  19.8131330  61.4227280  74.3849210  20.5940870  61.0911800
  75.3866050  20.1361220  62.1298220  77.9439880  19.4342030  56.3033110
  77.3194060  19.4301900  57.0286420  77.8570000  18.5672990  55.9069080
  76.8656960  20.3578660  63.2816880  77.1629290  21.2641490  63.2008900
  77.4142520  19.8697440  62.6676450  74.6195280  24.9364900  59.1508530
  74.3936200  24.7202070  60.0555150  73.8387810  25.3693360  58.8054500
  69.4922080  20.1692610  62.0032660  69.2035130  20.7395470  62.7157640
  70.2367840  19.6897060  62.3663890  69.6792310  24.1112730  53.2135380
  69.5966980  25.0543490  53.3550370  69.3275370  23.9687640  52.3347730
  77.4790440  22.8451760  62.2805730  77.4826500  22.4041710  61.4310270
  78.3741560  23.1669090  62.3877550  73.3292820  22.7278250  61.2399940
  72.9892870  23.2053480  61.9966990  72.5670140  22.2743370  60.8801040
  77.5410590  23.8463840  55.2712490  77.6623410  23.8050320  56.2198310
  77.1559100  24.7087990  55.1159220  76.5532090  26.1564980  54.6695790
  75.9848990  25.7083230  54.0431700  77.2621090  26.5157760  54.1360940
  77.7798410  26.9053540  64.0271140  78.1468540  26.4312110  64.7732480
  77.5903470  27.7795110  64.3679480  70.6438900  21.6497230  60.1564610
  70.3585820  21.2852900  60.9943230  70.5817760  20.9177690  59.5427750
  74.0979570  30.1523170  56.9422200  73.3241830  29.6120790  56.7820920
  74.8274200  29.6329780  56.6039960  80.3177490  20.5426490  56.8777980
  79.5042100  20.0439660  56.8023290  80.1239440  21.3824740  56.4614330
  74.1416970  29.8203550  60.5801010  74.6595640  29.0171810  60.5257900
  73.6900990  29.7582690  61.4217840  79.0286470  31.0869830  55.8528310
  79.3702170  31.8312060  55.3571630  78.1999180  31.4000950  56.2153140
  77.9977160  31.1683360  58.6244230  78.6848290  31.7152570  59.0051820
  77.2109580  31.7124090  58.6593840  70.1369560  26.7856180  54.1161310
  71.0064410  27.0680980  54.3997230  69.6459880  27.5992050  54.0010120
  77.3004370  28.1729390  58.2369590  77.7567150  28.9834640  58.4629780
  76.9492580  27.8552530  59.0688080  79.6036980  33.6835730  65.4661890
  80.2479200  33.8895110  66.1435310  79.9666420  32.9224130  65.0132740
  73.2016150  18.5167040  58.7092110  73.0730780  18.5084940  59.6577030
  72.3778170  18.8550130  58.3583120  70.5040810  35.9983560  54.6822940
  70.8638450  36.5972900  54.0280210  70.3633150  36.5443450  55.4557970
  76.5209430  33.3814760  55.4996610  76.5119530  34.1144450  54.8841120
  75.6007790  33.1346340  55.5923570  72.1216070  28.6029650  56.2443370
  71.5144020  29.3428550  56.2538670  72.5965420  28.6929010  55.4181570
  79.5069030  33.4443000  54.1621800  79.6081010  33.2406990  53.2323780
  78.6070770  33.1901280  54.3669580  77.0294920  24.0023360  58.1445700
  76.3211070  24.4709700  58.5859310  77.3139400  23.3445370  58.7790890
  78.1487140  35.9629320  58.8569470  78.4028640  35.9250710  57.9348840
  77.1999620  35.8362650  58.8497720  75.2329940  22.3108440  55.5196410
  76.0820470  22.7478590  55.4536600  74.8661210  22.6228700  56.3468470
  74.1321360  28.5640800  53.9931940  74.8984630  28.4522160  54.5557370
  74.2096050  27.8678770  53.3408710  72.8268120  25.9965870  54.6764830
  72.9071710  25.0493380  54.7882230  73.7187870  26.3272750  54.7825490
  73.6282830  36.1461260  61.7799370  74.3645310  35.5976720  62.0507940
  74.0123750  37.0117270  61.6405360  70.5128310  32.2134830  57.6540880
  69.5868090  32.4555970  57.6446290  70.9784740  33.0409090  57.5325630
  76.7385140  35.3191570  53.6024940  77.5313750  35.6080400  53.1506730
  76.2189490  34.8883740  52.9237420  77.2562540  30.5394980  53.4667290
  77.1513180  29.9247330  54.1928670  77.0886760  30.0160870  52.6830300
  76.1640390  28.5605930  55.9674580  76.5856810  28.3945800  56.8105970
  76.2891230  27.7506160  55.4729720  78.6768030  27.5843540  53.2151680
  79.1973690  26.8692560  52.8492830  79.3236430  28.2229410  53.5152190
  77.5801550  20.0638090  65.8870240  77.1318850  20.0862350  65.0415790
  76.9466750  19.6657110  66.4840540  77.9861100  28.9592420  66.5082680
  78.4049210  29.8025150  66.3358920  77.0669730  29.0964460  66.2789460
  75.0599290  24.6339160  52.9132740  74.8588350  23.7706520  53.2746080
  74.8891340  24.5472520  51.9754340  73.8582090  21.7339780  52.9010620
  74.1607990  21.7407210  51.9929770  74.5976680  21.3837640  53.3978280
  77.0767020  20.6774400  53.8866820  76.7289020  19.9998390  53.3069270
  77.2779790  20.2163910  54.7010210  79.2416060  35.6655150  55.5053420
  80.1366850  36.0040120  55.5272180  79.2733690  34.9434560  54.8777700
  72.8812220  31.0382200  53.7340420  73.3187090  31.5811870  54.3898000
  73.3659950  30.2129150  53.7436760  70.0958020  33.8271230  61.1860680
  70.4261030  32.9592290  60.9539320  70.5249020  34.0329750  62.0165640
  74.6919940  32.1580240  58.8462650  74.3915480  32.0345210  59.7466560
  74.5857430  31.2988830  58.4378380  70.5848230  34.6941820  63.9242310
  70.1479220  34.8742620  64.7566460  71.1525910  35.4516440  63.7824030
  70.4172660  27.2062050  60.2831190  69.7621500  26.9373690  59.6390890
  71.2550610  27.0966530  59.8333170  71.4548590  27.5914620  64.8234530
  71.8221630  27.5042020  65.7030550  70.8859410  26.8281170  64.7241390
  69.6310740  24.4160980  56.2256520  68.7274820  24.6791180  56.0508180
  70.1151360  24.6872150  55.4456480  72.1737950  23.4726520  54.1350900
  72.8829650  23.0509740  53.6498180  71.4577890  23.5401750  53.5034250
  71.8212110  19.5265850  53.1753550  72.5440240  20.0674790  53.4934770
  72.0936630  19.2529270  52.2995090  71.5104300  18.7772040  63.0776170
  72.1580490  18.2269420  62.6371330  71.9306140  19.0315190  63.8991980
  76.5706700  33.6606900  65.5864400  76.3298060  33.9281460  64.6994920
  77.5109340  33.8312630  65.6415260  72.3400930  32.4167940  66.0560500
  71.6134990  31.7973230  65.9886450  72.4010080  32.8108550  65.1858580
  75.9446030  34.6312940  62.8409910  76.4611050  34.0200300  62.3158170
  76.5943410  35.1341720  63.3320920  78.6841530  35.5221430  63.6678890
  78.9719340  35.2675730  62.7911900  79.1964750  34.9698790  64.2584460
  79.9018540  19.2611630  64.2475400  79.1190330  19.7357130  64.5272160
  79.6081470  18.3566460  64.1388580  70.6230930  35.7342330  59.2657260
  70.4552970  35.1013010  59.9639150  69.7565440  35.9401730  58.9151450
  71.2458950  19.5659110  56.7689120  72.0038310  19.6787990  56.1953150
  70.7836120  20.4028310  56.7232550  77.7872760  21.6798380  59.7591430
  76.9747270  21.3055270  59.4187310  78.2914400  20.9243460  60.0612620
  72.2293630  34.4275560  56.7107400  71.7041250  34.8083590  56.0069360
  72.1538210  35.0526330  57.4317110  73.6184100  20.0923160  55.3091090
  74.1476860  19.3052960  55.1799040  74.2512420  20.7714350  55.5426620
  75.8121940  19.8298300  58.3636480  75.1824680  19.1285610  58.5306610
  75.2727080  20.5902430  58.1469640  74.8286600  36.3757940  55.5856650
  75.5605420  36.0917220  55.0380540  75.0880270  36.1371220  56.4756030
  73.9901390  32.4922670  55.5902980  73.3610270  32.9607770  56.1388810
  74.1049220  31.6471890  56.0249170  79.5769150  28.3207350  43.6213450
  78.8011250  27.8407790  43.9112020  80.2282080  27.6413000  43.4469610
  73.5934980  28.6327160  44.4989210  72.7619860  28.3775870  44.8985720
  74.2015960  28.7037930  45.2347130  73.5736240  32.6667250  44.6947230
  73.8764280  31.7764990  44.5157450  74.3179830  33.2237470  44.4669480
  72.0026930  23.5929050  38.2831600  71.1143630  23.9345020  38.1811480
  72.2868120  23.3929370  37.3912430  69.9659940  26.1934700  44.1671300
  70.5376050  25.4256900  44.1674940  69.9661480  26.4923460  43.2577910
  79.8239890  35.0125550  42.0216570  79.2051330  35.4683050  41.4511010
  80.6791670  35.1677010  41.6206270  79.0178140  30.9964540  43.6283610
  78.9486420  30.0554480  43.4672740  79.7798000  31.0865950  44.2006180
  71.2084810  21.6019060  45.9540230  71.0287650  20.7044810  46.2342990
  70.8064890  22.1490930  46.6287180  80.0483310  23.8034920  43.8552540
  80.4248130  22.9306800  43.7426210  79.9502820  24.1393620  42.9642980
  74.1788320  22.1760550  39.3169980  74.2855070  23.0764280  39.6238740
  73.2680680  22.1278520  39.0264630  71.8271480  24.0979560  44.5622570
  72.5081590  24.3617930  45.1809970  71.5119530  23.2580430  44.8960580
  76.0196050  25.1446920  43.6495160  76.5274270  25.6427890  44.2900180
  76.5509290  24.3682120  43.4734520  74.3032150  19.7845480  47.9158580
  74.3050590  20.3017870  47.1104480  73.4736460  19.3075660  47.8928510
  75.5535000  29.4240660  46.0932080  75.2204380  30.0509580  46.7353150
  75.7301680  29.9502540  45.3133750  73.9847480  21.4955440  45.9229030
  74.3264290  22.3397490  45.6282900  73.0463290  21.6439180  46.0394370
  74.7654100  31.3921460  47.9081260  75.3828100  32.0672540  47.6265710
  73.9047220  31.8009440  47.8168760  70.0586440  30.5821320  36.7888110
  69.6814420  31.0708420  36.0573010  70.3159510  31.2546600  37.4194640
  77.6675370  18.9837710  42.2473620  77.9750350  18.4284600  41.5309120
  76.7376070  19.1182170  42.0646610  80.0556130  27.0486540  38.9833740
  79.1285410  26.9823920  39.2122210  80.2080950  27.9866670  38.8688980
  80.0425210  23.3203540  35.9800900  79.1028880  23.4817500  36.0653360
  80.3608470  24.0389220  35.4336890  75.6612770  27.5751280  41.7653470
  75.2569770  26.8628530  41.2699370  75.7475890  27.2304520  42.6541510
  76.1294470  31.2618840  43.9292680  75.8322760  30.6564310  43.2500460
  77.0794290  31.2996150  43.8182040  74.3741390  24.3494490  45.5452510
  74.9255980  24.4589830  44.7705760  74.8884900  24.7232090  46.2607740
  75.2212900  31.0000530  50.5800480  74.3241430  31.2240500  50.8273880
  75.2465770  31.1235470  49.6311880  74.0484120  27.8713850  49.1557850
  73.9091890  28.7436650  49.5245250  73.1665480  27.5286660  49.0105790
  75.8464470  33.8135550  51.3643000  75.8179900  34.2178500  50.4971430
  75.6829440  32.8845910  51.2014600  72.3617400  26.4696260  39.2660120
  72.2415000  27.1958350  38.6541390  72.0518290  25.6999170  38.7888030
  70.0002770  29.6411400  45.0728760  70.0783190  29.7760170  44.1284480
  70.6144450  28.9327290  45.2656880  71.2450400  31.3411590  41.4834940
  70.8378480  31.4826180  40.6288540  72.1363410  31.0571750  41.2806150
  75.5172060  35.5557370  39.5957610  75.3414540  34.6392910  39.3825410
  74.6627800  35.9144660  39.8355410  70.0562290  30.6825570  47.6123220
  70.2193330  30.2130930  46.7942590  70.5214740  30.1749130  48.2772060
  74.8281060  19.8131330  42.6483790  74.3849210  20.5940870  42.3168310
  75.3866050  20.1361220  43.3554730  79.1150870  22.6799850  48.2519110
  78.6530240  22.8882870  49.0639050  78.7128980  21.8659200  47.9489780
  77.9439880  19.4342030  37.5289620  77.3194060  19.4301900  38.2542930
  77.8570000  18.5672990  37.1325590  76.8656960  20.3578660  44.5073390
  77.1629290  21.2641490  44.4265410  77.4142520  19.8697440  43.8932960
  74.6195280  24.9364900  40.3765040  74.3936200  24.7202070  41.2811660
  73.8387810  25.3693360  40.0311010  77.0594490  25.8350480  51.0425310
  76.9638090  24.8945210  50.8925710  77.9026470  26.0565550  50.6473380
  72.1905030  22.2464150  49.1959090  71.7968420  23.0939360  49.4031870
  71.5023430  21.6090520  49.3867730  78.7650080  22.3299120  52.2655830
  78.0748400  22.1371320  52.9001920  79.5082380  22.6133760  52.7980130
  69.4922080  20.1692610  43.2289170  69.2035130  20.7395470  43.9414150
  70.2367840  19.6897060  43.5920400  69.6792310  24.1112730  34.4391890
  69.5966980  25.0543490  34.5806880  69.3275370  23.9687640  33.5604240
  77.4790440  22.8451760  43.5062240  77.4826500  22.4041710  42.6566780
  78.3741560  23.1669090  43.6134060  73.3292820  22.7278250  42.4656450
  72.9892870  23.2053480  43.2223500  72.5670140  22.2743370  42.1057550
  77.5410590  23.8463840  36.4969000  77.6623410  23.8050320  37.4454820
  77.1559100  24.7087990  36.3415730  76.5532090  26.1564980  35.8952300
  75.9848990  25.7083230  35.2688210  77.2621090  26.5157760  35.3617450
  71.6301270  30.0577000  49.7719030  71.2456060  29.4170670  50.3701990
  71.9413460  30.7613120  50.3413760  77.7798410  26.9053540  45.2527650
  78.1468540  26.4312110  45.9988990  77.5903470  27.7795110  45.5935990
  70.6438900  21.6497230  41.3821120  70.3585820  21.2852900  42.2199740
  70.5817760  20.9177690  40.7684260  75.5697780  25.9462180  47.5711860
  75.2654850  26.8254160  47.7962220  76.5244240  26.0061970  47.6069300
  74.0979570  30.1523170  38.1678710  73.3241830  29.6120790  38.0077430
  74.8274200  29.6329780  37.8296470  80.3177490  20.5426490  38.1034490
  79.5042100  20.0439660  38.0279800  80.1239440  21.3824740  37.6870840
  80.2386350  29.2197590  49.8474100  80.1723660  28.2993260  49.5931690
  79.6091490  29.3173030  50.5618740  74.1416970  29.8203550  41.8057520
  74.6595640  29.0171810  41.7514410  73.6900990  29.7582690  42.6474350
  79.0286470  31.0869830  37.0784820  79.3702170  31.8312060  36.5828140
  78.1999180  31.4000950  37.4409650  71.6261510  26.7864920  48.7183220
  71.2676450  27.4518770  49.3056560  71.3316070  25.9548470  49.0895840
  74.8274630  27.2449160  51.6022770  74.5274770  27.3906340  50.7050590
  75.5985870  26.6854450  51.5096160  80.1703080  32.0418160  49.5977900
  80.1847620  31.1099120  49.3796810  79.4628180  32.1277920  50.2367670
  77.9977160  31.1683360  39.8500740  78.6848290  31.7152570  40.2308330
  77.2109580  31.7124090  39.8850350  70.1369560  26.7856180  35.3417820
  71.0064410  27.0680980  35.6253740  69.6459880  27.5992050  35.2266630
  77.3004370  28.1729390  39.4626100  77.7567150  28.9834640  39.6886290
  76.9492580  27.8552530  40.2944590  79.6036980  33.6835730  46.6918400
  80.2479200  33.8895110  47.3691820  79.9666420  32.9224130  46.2389250
  73.2016150  18.5167040  39.9348620  73.0730780  18.5084940  40.8833540
  72.3778170  18.8550130  39.5839630  70.5040810  35.9983560  35.9079450
  70.8638450  36.5972900  35.2536720  70.3633150  36.5443450  36.6814480
  70.2010080  20.2758160  49.3955320  69.4868600  20.4755080  50.0007930
  70.6205120  19.4997730  49.7670120  70.4882670  34.2638420  50.3821850
  70.5973790  33.3233160  50.2417240  69.8363230  34.5293170  49.7335580
  78.4795260  32.5354310  51.7819970  78.1592130  31.8163550  52.3265660
  77.8053620  33.2109380  51.8556030  76.5209430  33.3814760  36.7253120
  76.5119530  34.1144450  36.1097630  75.6007790  33.1346340  36.8180080
  72.1216070  28.6029650  37.4699880  71.5144020  29.3428550  37.4795180
  72.5965420  28.6929010  36.6438080  79.5069030  33.4443000  35.3878310
  79.6081010  33.2406990  34.4580290  78.6070770  33.1901280  35.5926090
  77.0294920  24.0023360  39.3702210  76.3211070  24.4709700  39.8115820
  77.3139400  23.3445370  40.0047400  78.6550850  25.4220060  47.3694740
  79.1536100  25.8965880  48.0346590  78.7973800  24.4983580  47.5764770
  78.1487140  35.9629320  40.0825980  78.4028640  35.9250710  39.1605350
  77.1999620  35.8362650  40.0754230  75.2329940  22.3108440  36.7452920
  76.0820470  22.7478590  36.6793110  74.8661210  22.6228700  37.5724980
  74.1321360  28.5640800  35.2188450  74.8984630  28.4522160  35.7813880
  74.2096050  27.8678770  34.5665220  72.8268120  25.9965870  35.9021340
  72.9071710  25.0493380  36.0138740  73.7187870  26.3272750  36.0082000
  73.6282830  36.1461260  43.0055880  74.3645310  35.5976720  43.2764450
  74.0123750  37.0117270  42.8661870  70.5128310  32.2134830  38.8797390
  69.5868090  32.4555970  38.8702800  70.9784740  33.0409090  38.7582140
  72.6341110  35.3307330  52.1941460  73.4353840  35.6519380  52.6076860
  72.1192930  34.9702910  52.9161370  76.7385140  35.3191570  34.8281450
  77.5313750  35.6080400  34.3763240  76.2189490  34.8883740  34.1493930
  70.3538920  27.8180790  51.1377510  70.8577940  27.2388070  51.7093740
  69.6146340  28.1021020  51.6753880  77.2562540  30.5394980  34.6923800
  77.1513180  29.9247330  35.4185180  77.0886760  30.0160870  33.9086810
  77.4076860  29.2251780  50.6713030  76.6422530  29.7936780  50.5867700
  77.5892820  28.9327990  49.7781260  72.3862000  25.9610380  52.0327580
  72.4267340  25.6624250  52.9412810  73.2407500  26.3617990  51.8735100
  76.1640390  28.5605930  37.1931090  76.5856810  28.3945800  38.0362480
  76.2891230  27.7506160  36.6986230  74.3267810  24.5402480  50.0002070
  73.7964270  24.0493430  49.3725410  74.9955880  24.9686680  49.4660000
  78.6768030  27.5843540  34.4408190  79.1973690  26.8692560  34.0749340
  79.3236430  28.2229410  34.7408700  74.8140110  21.5064850  50.0799360
  74.7196980  20.8885600  49.3550230  74.2337500  22.2331140  49.8529270
  77.5801550  20.0638090  47.1126750  77.1318850  20.0862350  46.2672300
  76.9466750  19.6657110  47.7097050  77.9861100  28.9592420  47.7339190
  78.4049210  29.8025150  47.5615430  77.0669730  29.0964460  47.5045970
  75.0599290  24.6339160  34.1389250  74.8588350  23.7706520  34.5002590
  74.8891340  24.5472520  33.2010850  75.8368520  35.2645430  48.8496920
  75.2989610  35.9891490  48.5305620  76.0902480  34.7875770  48.0594260
  77.0893770  23.2329950  50.3752850  77.6793460  22.9245800  51.0630670
  76.2714010  22.7609700  50.5312750  73.8582090  21.7339780  34.1267130
  74.1607990  21.7407210  33.2186280  74.5976680  21.3837640  34.6234790
  78.6930730  36.4996640  49.1083570  78.6189430  37.4031780  49.4155940
  77.7909570  36.1808540  49.0805640  77.0767020  20.6774400  35.1123330
  76.7289020  19.9998390  34.5325780  77.2779790  20.2163910  35.9266720
  79.2416060  35.6655150  36.7309930  80.1366850  36.0040120  36.7528690
  79.2733690  34.9434560  36.1034210  72.8812220  31.0382200  34.9596930
  73.3187090  31.5811870  35.6154510  73.3659950  30.2129150  34.9693270
  70.0958020  33.8271230  42.4117190  70.4261030  32.9592290  42.1795830
  70.5249020  34.0329750  43.2422150  74.6919940  32.1580240  40.0719160
  74.3915480  32.0345210  40.9723070  74.5857430  31.2988830  39.6634890
  70.5848230  34.6941820  45.1498820  70.1479220  34.8742620  45.9822970
  71.1525910  35.4516440  45.0080540  70.4172660  27.2062050  41.5087700
  69.7621500  26.9373690  40.8647400  71.2550610  27.0966530  41.0589680
  71.4548590  27.5914620  46.0491040  71.8221630  27.5042020  46.9287060
  70.8859410  26.8281170  45.9497900  71.0064590  24.5023710  49.9549460
  70.1120640  24.4690470  50.2943170  71.5462140  24.7010500  50.7200710
  69.6310740  24.4160980  37.4513030  68.7274820  24.6791180  37.2764690
  70.1151360  24.6872150  36.6712990  72.1737950  23.4726520  35.3607410
  72.8829650  23.0509740  34.8754690  71.4577890  23.5401750  34.7290760
  71.8212110  19.5265850  34.4010060  72.5440240  20.0674790  34.7191280
  72.0936630  19.2529270  33.5251600  71.5104300  18.7772040  44.3032680
  72.1580490  18.2269420  43.8627840  71.9306140  19.0315190  45.1248490
  71.2636300  18.9327710  47.0458000  70.9151120  19.3891530  47.8116180
  70.9324000  18.0384840  47.1280430  72.8700670  32.1047310  51.2111190
  72.8270300  31.7340220  52.0925650  73.0011680  33.0424880  51.3513010
  76.5706700  33.6606900  46.8120910  76.3298060  33.9281460  45.9251430
  77.5109340  33.8312630  46.8671770  78.7761120  20.1239590  50.5677420
  78.7150010  20.7161420  51.3172830  79.7161500  20.0165550  50.4227680
  71.9356940  18.4603910  50.3208770  72.4839930  18.2791960  49.5574880
  72.0012250  17.6698020  50.8565080  72.7088700  35.0509560  48.3308970
  72.1149020  34.9194260  49.0699010  72.7012540  34.2147700  47.8651070
  72.3400930  32.4167940  47.2817010  71.6134990  31.7973230  47.2142960
  72.4010080  32.8108550  46.4115090  75.9446030  34.6312940  44.0666420
  76.4611050  34.0200300  43.5414680  76.5943410  35.1341720  44.5577430
  78.6841530  35.5221430  44.8935400  78.9719340  35.2675730  44.0168410
  79.1964750  34.9698790  45.4840970  79.9018540  19.2611630  45.4731910
  79.1190330  19.7357130  45.7528670  79.6081470  18.3566460  45.3645090
  70.6230930  35.7342330  40.4913770  70.4552970  35.1013010  41.1895660
  69.7565440  35.9401730  40.1407960  71.2458950  19.5659110  37.9945630
  72.0038310  19.6787990  37.4209660  70.7836120  20.4028310  37.9489060
  77.7872760  21.6798380  40.9847940  76.9747270  21.3055270  40.6443820
  78.2914400  20.9243460  41.2869130  72.2293630  34.4275560  37.9363910
  71.7041250  34.8083590  37.2325870  72.1538210  35.0526330  38.6573620
  73.6184100  20.0923160  36.5347600  74.1476860  19.3052960  36.4055550
  74.2512420  20.7714350  36.7683130  75.8121940  19.8298300  39.5892990
  75.1824680  19.1285610  39.7563120  75.2727080  20.5902430  39.3726150
  78.7513890  36.4437530  52.2603600  79.6781200  36.2081800  52.3039560
  78.7364320  37.2709530  51.7789630  75.9377500  19.1082280  52.0245480
  75.6561770  19.6115880  51.2606300  76.3197200  18.3104030  51.6587610
  74.8286600  36.3757940  36.8113160  75.5605420  36.0917220  36.2637050
  75.0880270  36.1371220  37.7012540  73.9901390  32.4922670  36.8159490
  73.3610270  32.9607770  37.3645320  74.1049220  31.6471890  37.2505680
  79.5769150  28.3207350  24.8469960  78.8011250  27.8407790  25.1368530
  80.2282080  27.6413000  24.6726120  73.5934980  28.6327160  25.7245720
  72.7619860  28.3775870  26.1242230  74.2015960  28.7037930  26.4603640
  73.5736240  32.6667250  25.9203740  73.8764280  31.7764990  25.7413960
  74.3179830  33.2237470  25.6925990  72.0026930  23.5929050  19.5088110
  71.1143630  23.9345020  19.4067990  72.2868120  23.3929370  18.6168940
  69.9659940  26.1934700  25.3927810  70.5376050  25.4256900  25.3931450
  69.9661480  26.4923460  24.4834420  79.8239890  35.0125550  23.2473080
  79.2051330  35.4683050  22.6767520  80.6791670  35.1677010  22.8462780
  79.0178140  30.9964540  24.8540120  78.9486420  30.0554480  24.6929250
  79.7798000  31.0865950  25.4262690  71.2084810  21.6019060  27.1796740
  71.0287650  20.7044810  27.4599500  70.8064890  22.1490930  27.8543690
  80.0483310  23.8034920  25.0809050  80.4248130  22.9306800  24.9682720
  79.9502820  24.1393620  24.1899490  74.1788320  22.1760550  20.5426490
  74.2855070  23.0764280  20.8495250  73.2680680  22.1278520  20.2521140
  71.8271480  24.0979560  25.7879080  72.5081590  24.3617930  26.4066480
  71.5119530  23.2580430  26.1217090  76.0196050  25.1446920  24.8751670
  76.5274270  25.6427890  25.5156690  76.5509290  24.3682120  24.6991030
  74.3032150  19.7845480  29.1415090  74.3050590  20.3017870  28.3360990
  73.4736460  19.3075660  29.1185020  75.5535000  29.4240660  27.3188590
  75.2204380  30.0509580  27.9609660  75.7301680  29.9502540  26.5390260
  73.9847480  21.4955440  27.1485540  74.3264290  22.3397490  26.8539410
  73.0463290  21.6439180  27.2650880  74.7654100  31.3921460  29.1337770
  75.3828100  32.0672540  28.8522220  73.9047220  31.8009440  29.0425270
  70.0586440  30.5821320  18.0144620  69.6814420  31.0708420  17.2829520
  70.3159510  31.2546600  18.6451150  77.6675370  18.9837710  23.4730130
  77.9750350  18.4284600  22.7565630  76.7376070  19.1182170  23.2903120
  80.0556130  27.0486540  20.2090250  79.1285410  26.9823920  20.4378720
  80.2080950  27.9866670  20.0945490  80.0425210  23.3203540  17.2057410
  79.1028880  23.4817500  17.2909870  80.3608470  24.0389220  16.6593400
  75.6612770  27.5751280  22.9909980  75.2569770  26.8628530  22.4955880
  75.7475890  27.2304520  23.8798020  76.1294470  31.2618840  25.1549190
  75.8322760  30.6564310  24.4756970  77.0794290  31.2996150  25.0438550
  74.3741390  24.3494490  26.7709020  74.9255980  24.4589830  25.9962270
  74.8884900  24.7232090  27.4864250  75.2212900  31.0000530  31.8056990
  74.3241430  31.2240500  32.0530390  75.2465770  31.1235470  30.8568390
  74.0484120  27.8713850  30.3814360  73.9091890  28.7436650  30.7501760
  73.1665480  27.5286660  30.2362300  75.8464470  33.8135550  32.5899510
  75.8179900  34.2178500  31.7227940  75.6829440  32.8845910  32.4271110
  72.3617400  26.4696260  20.4916630  72.2415000  27.1958350  19.8797900
  72.0518290  25.6999170  20.0144540  70.0002770  29.6411400  26.2985270
  70.0783190  29.7760170  25.3540990  70.6144450  28.9327290  26.4913390
  71.2450400  31.3411590  22.7091450  70.8378480  31.4826180  21.8545050
  72.1363410  31.0571750  22.5062660  75.5172060  35.5557370  20.8214120
  75.3414540  34.6392910  20.6081920  74.6627800  35.9144660  21.0611920
  70.0562290  30.6825570  28.8379730  70.2193330  30.2130930  28.0199100
  70.5214740  30.1749130  29.5028570  74.8281060  19.8131330  23.8740300
  74.3849210  20.5940870  23.5424820  75.3866050  20.1361220  24.5811240
  79.1150870  22.6799850  29.4775620  78.6530240  22.8882870  30.2895560
  78.7128980  21.8659200  29.1746290  77.9439880  19.4342030  18.7546130
  77.3194060  19.4301900  19.4799440  77.8570000  18.5672990  18.3582100
  76.8656960  20.3578660  25.7329900  77.1629290  21.2641490  25.6521920
  77.4142520  19.8697440  25.1189470  74.6195280  24.9364900  21.6021550
  74.3936200  24.7202070  22.5068170  73.8387810  25.3693360  21.2567520
  77.0594490  25.8350480  32.2681820  76.9638090  24.8945210  32.1182220
  77.9026470  26.0565550  31.8729890  72.1905030  22.2464150  30.4215600
  71.7968420  23.0939360  30.6288380  71.5023430  21.6090520  30.6124240
  78.7650080  22.3299120  33.4912340  78.0748400  22.1371320  34.1258430
  79.5082380  22.6133760  34.0236640  69.4922080  20.1692610  24.4545680
  69.2035130  20.7395470  25.1670660  70.2367840  19.6897060  24.8176910
  69.6792310  24.1112730  15.6648400  69.5966980  25.0543490  15.8063390
  69.3275370  23.9687640  14.7860750  77.4790440  22.8451760  24.7318750
  77.4826500  22.4041710  23.8823290  78.3741560  23.1669090  24.8390570
  73.3292820  22.7278250  23.6912960  72.9892870  23.2053480  24.4480010
  72.5670140  22.2743370  23.3314060  77.5410590  23.8463840  17.7225510
  77.6623410  23.8050320  18.6711330  77.1559100  24.7087990  17.5672240
  76.5532090  26.1564980  17.1208810  75.9848990  25.7083230  16.4944720
  77.2621090  26.5157760  16.5873960  71.6301270  30.0577000  30.9975540
  71.2456060  29.4170670  31.5958500  71.9413460  30.7613120  31.5670270
  77.7798410  26.9053540  26.4784160  78.1468540  26.4312110  27.2245500
  77.5903470  27.7795110  26.8192500  70.6438900  21.6497230  22.6077630
  70.3585820  21.2852900  23.4456250  70.5817760  20.9177690  21.9940770
  75.5697780  25.9462180  28.7968370  75.2654850  26.8254160  29.0218730
  76.5244240  26.0061970  28.8325810  74.0979570  30.1523170  19.3935220
  73.3241830  29.6120790  19.2333940  74.8274200  29.6329780  19.0552980
  80.3177490  20.5426490  19.3291000  79.5042100  20.0439660  19.2536310
  80.1239440  21.3824740  18.9127350  80.2386350  29.2197590  31.0730610
  80.1723660  28.2993260  30.8188200  79.6091490  29.3173030  31.7875250
  74.1416970  29.8203550  23.0314030  74.6595640  29.0171810  22.9770920
  73.6900990  29.7582690  23.8730860  79.0286470  31.0869830  18.3041330
  79.3702170  31.8312060  17.8084650  78.1999180  31.4000950  18.6666160
  71.6261510  26.7864920  29.9439730  71.2676450  27.4518770  30.5313070
  71.3316070  25.9548470  30.3152350  74.8274630  27.2449160  32.8279280
  74.5274770  27.3906340  31.9307100  75.5985870  26.6854450  32.7352670
  80.1703080  32.0418160  30.8234410  80.1847620  31.1099120  30.6053320
  79.4628180  32.1277920  31.4624180  77.9977160  31.1683360  21.0757250
  78.6848290  31.7152570  21.4564840  77.2109580  31.7124090  21.1106860
  70.1369560  26.7856180  16.5674330  71.0064410  27.0680980  16.8510250
  69.6459880  27.5992050  16.4523140  77.3004370  28.1729390  20.6882610
  77.7567150  28.9834640  20.9142800  76.9492580  27.8552530  21.5201100
  79.6036980  33.6835730  27.9174910  80.2479200  33.8895110  28.5948330
  79.9666420  32.9224130  27.4645760  73.2016150  18.5167040  21.1605130
  73.0730780  18.5084940  22.1090050  72.3778170  18.8550130  20.8096140
  70.5040810  35.9983560  17.1335960  70.8638450  36.5972900  16.4793230
  70.3633150  36.5443450  17.9070990  70.2010080  20.2758160  30.6211830
  69.4868600  20.4755080  31.2264440  70.6205120  19.4997730  30.9926630
  70.4882670  34.2638420  31.6078360  70.5973790  33.3233160  31.4673750
  69.8363230  34.5293170  30.9592090  78.4795260  32.5354310  33.0076480
  78.1592130  31.8163550  33.5522170  77.8053620  33.2109380  33.0812540
  76.5209430  33.3814760  17.9509630  76.5119530  34.1144450  17.3354140
  75.6007790  33.1346340  18.0436590  72.1216070  28.6029650  18.6956390
  71.5144020  29.3428550  18.7051690  72.5965420  28.6929010  17.8694590
  79.5069030  33.4443000  16.6134820  79.6081010  33.2406990  15.6836800
  78.6070770  33.1901280  16.8182600  77.0294920  24.0023360  20.5958720
  76.3211070  24.4709700  21.0372330  77.3139400  23.3445370  21.2303910
  78.6550850  25.4220060  28.5951250  79.1536100  25.8965880  29.2603100
  78.7973800  24.4983580  28.8021280  78.1487140  35.9629320  21.3082490
  78.4028640  35.9250710  20.3861860  77.1999620  35.8362650  21.3010740
  75.2329940  22.3108440  17.9709430  76.0820470  22.7478590  17.9049620
  74.8661210  22.6228700  18.7981490  74.1321360  28.5640800  16.4444960
  74.8984630  28.4522160  17.0070390  74.2096050  27.8678770  15.7921730
  72.8268120  25.9965870  17.1277850  72.9071710  25.0493380  17.2395250
  73.7187870  26.3272750  17.2338510  73.6282830  36.1461260  24.2312390
  74.3645310  35.5976720  24.5020960  74.0123750  37.0117270  24.0918380
  70.5128310  32.2134830  20.1053900  69.5868090  32.4555970  20.0959310
  70.9784740  33.0409090  19.9838650  72.6341110  35.3307330  33.4197970
  73.4353840  35.6519380  33.8333370  72.1192930  34.9702910  34.1417880
  76.7385140  35.3191570  16.0537960  77.5313750  35.6080400  15.6019750
  76.2189490  34.8883740  15.3750440  70.3538920  27.8180790  32.3634020
  70.8577940  27.2388070  32.9350250  69.6146340  28.1021020  32.9010390
  77.2562540  30.5394980  15.9180310  77.1513180  29.9247330  16.6441690
  77.0886760  30.0160870  15.1343320  77.4076860  29.2251780  31.8969540
  76.6422530  29.7936780  31.8124210  77.5892820  28.9327990  31.0037770
  72.3862000  25.9610380  33.2584090  72.4267340  25.6624250  34.1669320
  73.2407500  26.3617990  33.0991610  76.1640390  28.5605930  18.4187600
  76.5856810  28.3945800  19.2618990  76.2891230  27.7506160  17.9242740
  74.3267810  24.5402480  31.2258580  73.7964270  24.0493430  30.5981920
  74.9955880  24.9686680  30.6916510  78.6768030  27.5843540  15.6664700
  79.1973690  26.8692560  15.3005850  79.3236430  28.2229410  15.9665210
  74.8140110  21.5064850  31.3055870  74.7196980  20.8885600  30.5806740
  74.2337500  22.2331140  31.0785780  77.5801550  20.0638090  28.3383260
  77.1318850  20.0862350  27.4928810  76.9466750  19.6657110  28.9353560
  77.9861100  28.9592420  28.9595700  78.4049210  29.8025150  28.7871940
  77.0669730  29.0964460  28.7302480  75.0599290  24.6339160  15.3645760
  74.8588350  23.7706520  15.7259100  74.8891340  24.5472520  14.4267360
  75.8368520  35.2645430  30.0753430  75.2989610  35.9891490  29.7562130
  76.0902480  34.7875770  29.2850770  77.0893770  23.2329950  31.6009360
  77.6793460  22.9245800  32.2887180  76.2714010  22.7609700  31.7569260
  73.8582090  21.7339780  15.3523640  74.1607990  21.7407210  14.4442790
  74.5976680  21.3837640  15.8491300  78.6930730  36.4996640  30.3340080
  78.6189430  37.4031780  30.6412450  77.7909570  36.1808540  30.3062150
  77.0767020  20.6774400  16.3379840  76.7289020  19.9998390  15.7582290
  77.2779790  20.2163910  17.1523230  79.2416060  35.6655150  17.9566440
  80.1366850  36.0040120  17.9785200  79.2733690  34.9434560  17.3290720
  72.8812220  31.0382200  16.1853440  73.3187090  31.5811870  16.8411020
  73.3659950  30.2129150  16.1949780  70.0958020  33.8271230  23.6373700
  70.4261030  32.9592290  23.4052340  70.5249020  34.0329750  24.4678660
  74.6919940  32.1580240  21.2975670  74.3915480  32.0345210  22.1979580
  74.5857430  31.2988830  20.8891400  70.5848230  34.6941820  26.3755330
  70.1479220  34.8742620  27.2079480  71.1525910  35.4516440  26.2337050
  70.4172660  27.2062050  22.7344210  69.7621500  26.9373690  22.0903910
  71.2550610  27.0966530  22.2846190  71.4548590  27.5914620  27.2747550
  71.8221630  27.5042020  28.1543570  70.8859410  26.8281170  27.1754410
  71.0064590  24.5023710  31.1805970  70.1120640  24.4690470  31.5199680
  71.5462140  24.7010500  31.9457220  69.6310740  24.4160980  18.6769540
  68.7274820  24.6791180  18.5021200  70.1151360  24.6872150  17.8969500
  72.1737950  23.4726520  16.5863920  72.8829650  23.0509740  16.1011200
  71.4577890  23.5401750  15.9547270  71.8212110  19.5265850  15.6266570
  72.5440240  20.0674790  15.9447790  72.0936630  19.2529270  14.7508110
  71.5104300  18.7772040  25.5289190  72.1580490  18.2269420  25.0884350
  71.9306140  19.0315190  26.3505000  71.2636300  18.9327710  28.2714510
  70.9151120  19.3891530  29.0372690  70.9324000  18.0384840  28.3536940
  72.8700670  32.1047310  32.4367700  72.8270300  31.7340220  33.3182160
  73.0011680  33.0424880  32.5769520  76.5706700  33.6606900  28.0377420
  76.3298060  33.9281460  27.1507940  77.5109340  33.8312630  28.0928280
  78.7761120  20.1239590  31.7933930  78.7150010  20.7161420  32.5429340
  79.7161500  20.0165550  31.6484190  71.9356940  18.4603910  31.5465280
  72.4839930  18.2791960  30.7831390  72.0012250  17.6698020  32.0821590
  72.7088700  35.0509560  29.5565480  72.1149020  34.9194260  30.2955520
  72.7012540  34.2147700  29.0907580  72.3400930  32.4167940  28.5073520
  71.6134990  31.7973230  28.4399470  72.4010080  32.8108550  27.6371600
  75.9446030  34.6312940  25.2922930  76.4611050  34.0200300  24.7671190
  76.5943410  35.1341720  25.7833940  78.6841530  35.5221430  26.1191910
  78.9719340  35.2675730  25.2424920  79.1964750  34.9698790  26.7097480
  79.9018540  19.2611630  26.6988420  79.1190330  19.7357130  26.9785180
  79.6081470  18.3566460  26.5901600  70.6230930  35.7342330  21.7170280
  70.4552970  35.1013010  22.4152170  69.7565440  35.9401730  21.3664470
  71.2458950  19.5659110  19.2202140  72.0038310  19.6787990  18.6466170
  70.7836120  20.4028310  19.1745570  77.7872760  21.6798380  22.2104450
  76.9747270  21.3055270  21.8700330  78.2914400  20.9243460  22.5125640
  72.2293630  34.4275560  19.1620420  71.7041250  34.8083590  18.4582380
  72.1538210  35.0526330  19.8830130  73.6184100  20.0923160  17.7604110
  74.1476860  19.3052960  17.6312060  74.2512420  20.7714350  17.9939640
  75.8121940  19.8298300  20.8149500  75.1824680  19.1285610  20.9819630
  75.2727080  20.5902430  20.5982660  78.7513890  36.4437530  33.4860110
  79.6781200  36.2081800  33.5296070  78.7364320  37.2709530  33.0046140
  75.9377500  19.1082280  33.2501990  75.6561770  19.6115880  32.4862810
  76.3197200  18.3104030  32.8844120  74.8286600  36.3757940  18.0369670
  75.5605420  36.0917220  17.4893560  75.0880270  36.1371220  18.9269050
  73.9901390  32.4922670  18.0416000  73.3610270  32.9607770  18.5901830
  74.1049220  31.6471890  18.4762190  79.5769150  28.3207350   6.0726470
  78.8011250  27.8407790   6.3625040  80.2282080  27.6413000   5.8982630
  73.5934980  28.6327160   6.9502230  72.7619860  28.3775870   7.3498740
  74.2015960  28.7037930   7.6860150  73.5736240  32.6667250   7.1460250
  73.8764280  31.7764990   6.9670470  74.3179830  33.2237470   6.9182500
  69.9659940  26.1934700   6.6184320  70.5376050  25.4256900   6.6187960
  69.9661480  26.4923460   5.7090930  79.8239890  35.0125550   4.4729590
  79.2051330  35.4683050   3.9024030  80.6791670  35.1677010   4.0719290
  79.0178140  30.9964540   6.0796630  78.9486420  30.0554480   5.9185760
  79.7798000  31.0865950   6.6519200  71.2084810  21.6019060   8.4053250
  71.0287650  20.7044810   8.6856010  70.8064890  22.1490930   9.0800200
  80.0483310  23.8034920   6.3065560  80.4248130  22.9306800   6.1939230
  79.9502820  24.1393620   5.4156000  74.1788320  22.1760550   1.7683000
  74.2855070  23.0764280   2.0751760  73.2680680  22.1278520   1.4777650
  71.8271480  24.0979560   7.0135590  72.5081590  24.3617930   7.6322990
  71.5119530  23.2580430   7.3473600  76.0196050  25.1446920   6.1008180
  76.5274270  25.6427890   6.7413200  76.5509290  24.3682120   5.9247540
  74.3032150  19.7845480  10.3671600  74.3050590  20.3017870   9.5617500
  73.4736460  19.3075660  10.3441530  75.5535000  29.4240660   8.5445100
  75.2204380  30.0509580   9.1866170  75.7301680  29.9502540   7.7646770
  73.9847480  21.4955440   8.3742050  74.3264290  22.3397490   8.0795920
  73.0463290  21.6439180   8.4907390  74.7654100  31.3921460  10.3594280
  75.3828100  32.0672540  10.0778730  73.9047220  31.8009440  10.2681780
  77.6675370  18.9837710   4.6986640  77.9750350  18.4284600   3.9822140
  76.7376070  19.1182170   4.5159630  75.6612770  27.5751280   4.2166490
  75.2569770  26.8628530   3.7212390  75.7475890  27.2304520   5.1054530
  76.1294470  31.2618840   6.3805700  75.8322760  30.6564310   5.7013480
  77.0794290  31.2996150   6.2695060  74.3741390  24.3494490   7.9965530
  74.9255980  24.4589830   7.2218780  74.8884900  24.7232090   8.7120760
  75.2212900  31.0000530  13.0313500  74.3241430  31.2240500  13.2786900
  75.2465770  31.1235470  12.0824900  74.0484120  27.8713850  11.6070870
  73.9091890  28.7436650  11.9758270  73.1665480  27.5286660  11.4618810
  75.8464470  33.8135550  13.8156020  75.8179900  34.2178500  12.9484450
  75.6829440  32.8845910  13.6527620  70.0002770  29.6411400   7.5241780
  70.0783190  29.7760170   6.5797500  70.6144450  28.9327290   7.7169900
  71.2450400  31.3411590   3.9347960  70.8378480  31.4826180   3.0801560
  72.1363410  31.0571750   3.7319170  75.5172060  35.5557370   2.0470630
  75.3414540  34.6392910   1.8338430  74.6627800  35.9144660   2.2868430
  70.0562290  30.6825570  10.0636240  70.2193330  30.2130930   9.2455610
  70.5214740  30.1749130  10.7285080  74.8281060  19.8131330   5.0996810
  74.3849210  20.5940870   4.7681330  75.3866050  20.1361220   5.8067750
  79.1150870  22.6799850  10.7032130  78.6530240  22.8882870  11.5152070
  78.7128980  21.8659200  10.4002800  76.8656960  20.3578660   6.9586410
  77.1629290  21.2641490   6.8778430  77.4142520  19.8697440   6.3445980
  74.6195280  24.9364900   2.8278060  74.3936200  24.7202070   3.7324680
  73.8387810  25.3693360   2.4824030  77.0594490  25.8350480  13.4938330
  76.9638090  24.8945210  13.3438730  77.9026470  26.0565550  13.0986400
  72.1905030  22.2464150  11.6472110  71.7968420  23.0939360  11.8544890
  71.5023430  21.6090520  11.8380750  78.7650080  22.3299120  14.7168850
  78.0748400  22.1371320  15.3514940  79.5082380  22.6133760  15.2493150
  69.4922080  20.1692610   5.6802190  69.2035130  20.7395470   6.3927170
  70.2367840  19.6897060   6.0433420  77.4790440  22.8451760   5.9575260
  77.4826500  22.4041710   5.1079800  78.3741560  23.1669090   6.0647080
  73.3292820  22.7278250   4.9169470  72.9892870  23.2053480   5.6736520
  72.5670140  22.2743370   4.5570570  71.6301270  30.0577000  12.2232050
  71.2456060  29.4170670  12.8215010  71.9413460  30.7613120  12.7926780
  77.7798410  26.9053540   7.7040670  78.1468540  26.4312110   8.4502010
  77.5903470  27.7795110   8.0449010  70.6438900  21.6497230   3.8334140
  70.3585820  21.2852900   4.6712760  70.5817760  20.9177690   3.2197280
  75.5697780  25.9462180  10.0224880  75.2654850  26.8254160  10.2475240
  76.5244240  26.0061970  10.0582320  80.2386350  29.2197590  12.2987120
  80.1723660  28.2993260  12.0444710  79.6091490  29.3173030  13.0131760
  74.1416970  29.8203550   4.2570540  74.6595640  29.0171810   4.2027430
  73.6900990  29.7582690   5.0987370  71.6261510  26.7864920  11.1696240
  71.2676450  27.4518770  11.7569580  71.3316070  25.9548470  11.5408860
  74.8274630  27.2449160  14.0535790  74.5274770  27.3906340  13.1563610
  75.5985870  26.6854450  13.9609180  80.1703080  32.0418160  12.0490920
  80.1847620  31.1099120  11.8309830  79.4628180  32.1277920  12.6880690
  77.9977160  31.1683360   2.3013760  78.6848290  31.7152570   2.6821350
  77.2109580  31.7124090   2.3363370  77.3004370  28.1729390   1.9139120
  77.7567150  28.9834640   2.1399310  76.9492580  27.8552530   2.7457610
  79.6036980  33.6835730   9.1431420  80.2479200  33.8895110   9.8204840
  79.9666420  32.9224130   8.6902270  73.2016150  18.5167040   2.3861640
  73.0730780  18.5084940   3.3346560  72.3778170  18.8550130   2.0352650
  70.2010080  20.2758160  11.8468340  69.4868600  20.4755080  12.4520950
  70.6205120  19.4997730  12.2183140  70.4882670  34.2638420  12.8334870
  70.5973790  33.3233160  12.6930260  69.8363230  34.5293170  12.1848600
  78.4795260  32.5354310  14.2332990  78.1592130  31.8163550  14.7778680
  77.8053620  33.2109380  14.3069050  77.0294920  24.0023360   1.8215230
  76.3211070  24.4709700   2.2628840  77.3139400  23.3445370   2.4560420
  78.6550850  25.4220060   9.8207760  79.1536100  25.8965880  10.4859610
  78.7973800  24.4983580  10.0277790  78.1487140  35.9629320   2.5339000
  78.4028640  35.9250710   1.6118370  77.1999620  35.8362650   2.5267250
  73.6282830  36.1461260   5.4568900  74.3645310  35.5976720   5.7277470
  74.0123750  37.0117270   5.3174890  72.6341110  35.3307330  14.6454480
  73.4353840  35.6519380  15.0589880  72.1192930  34.9702910  15.3674390
  70.3538920  27.8180790  13.5890530  70.8577940  27.2388070  14.1606760
  69.6146340  28.1021020  14.1266900  77.4076860  29.2251780  13.1226050
  76.6422530  29.7936780  13.0380720  77.5892820  28.9327990  12.2294280
  72.3862000  25.9610380  14.4840600  72.4267340  25.6624250  15.3925830
  73.2407500  26.3617990  14.3248120  74.3267810  24.5402480  12.4515090
  73.7964270  24.0493430  11.8238430  74.9955880  24.9686680  11.9173020
  74.8140110  21.5064850  12.5312380  74.7196980  20.8885600  11.8063250
  74.2337500  22.2331140  12.3042290  77.5801550  20.0638090   9.5639770
  77.1318850  20.0862350   8.7185320  76.9466750  19.6657110  10.1610070
  77.9861100  28.9592420  10.1852210  78.4049210  29.8025150  10.0128450
  77.0669730  29.0964460   9.9558990  75.8368520  35.2645430  11.3009940
  75.2989610  35.9891490  10.9818640  76.0902480  34.7875770  10.5107280
  77.0893770  23.2329950  12.8265870  77.6793460  22.9245800  13.5143690
  76.2714010  22.7609700  12.9825770  78.6930730  36.4996640  11.5596590
  78.6189430  37.4031780  11.8668960  77.7909570  36.1808540  11.5318660
  70.0958020  33.8271230   4.8630210  70.4261030  32.9592290   4.6308850
  70.5249020  34.0329750   5.6935170  74.6919940  32.1580240   2.5232180
  74.3915480  32.0345210   3.4236090  74.5857430  31.2988830   2.1147910
  70.5848230  34.6941820   7.6011840  70.1479220  34.8742620   8.4335990
  71.1525910  35.4516440   7.4593560  70.4172660  27.2062050   3.9600720
  69.7621500  26.9373690   3.3160420  71.2550610  27.0966530   3.5102700
  71.4548590  27.5914620   8.5004060  71.8221630  27.5042020   9.3800080
  70.8859410  26.8281170   8.4010920  71.0064590  24.5023710  12.4062480
  70.1120640  24.4690470  12.7456190  71.5462140  24.7010500  13.1713730
  71.5104300  18.7772040   6.7545700  72.1580490  18.2269420   6.3140860
  71.9306140  19.0315190   7.5761510  71.2636300  18.9327710   9.4971020
  70.9151120  19.3891530  10.2629200  70.9324000  18.0384840   9.5793450
  72.8700670  32.1047310  13.6624210  72.8270300  31.7340220  14.5438670
  73.0011680  33.0424880  13.8026030  76.5706700  33.6606900   9.2633930
  76.3298060  33.9281460   8.3764450  77.5109340  33.8312630   9.3184790
  78.7761120  20.1239590  13.0190440  78.7150010  20.7161420  13.7685850
  79.7161500  20.0165550  12.8740700  71.9356940  18.4603910  12.7721790
  72.4839930  18.2791960  12.0087900  72.0012250  17.6698020  13.3078100
  72.7088700  35.0509560  10.7821990  72.1149020  34.9194260  11.5212030
  72.7012540  34.2147700  10.3164090  72.3400930  32.4167940   9.7330030
  71.6134990  31.7973230   9.6655980  72.4010080  32.8108550   8.8628110
  75.9446030  34.6312940   6.5179440  76.4611050  34.0200300   5.9927700
  76.5943410  35.1341720   7.0090450  78.6841530  35.5221430   7.3448420
  78.9719340  35.2675730   6.4681430  79.1964750  34.9698790   7.9353990
  79.9018540  19.2611630   7.9244930  79.1190330  19.7357130   8.2041690
  79.6081470  18.3566460   7.8158110  70.6230930  35.7342330   2.9426790
  70.4552970  35.1013010   3.6408680  69.7565440  35.9401730   2.5920980
  77.7872760  21.6798380   3.4360960  76.9747270  21.3055270   3.0956840
  78.2914400  20.9243460   3.7382150  75.8121940  19.8298300   2.0406010
  75.1824680  19.1285610   2.2076140  75.2727080  20.5902430   1.8239170
  78.7513890  36.4437530  14.7116620  79.6781200  36.2081800  14.7552580
  78.7364320  37.2709530  14.2302650  75.9377500  19.1082280  14.4758500
  75.6561770  19.6115880  13.7119320  76.3197200  18.3104030  14.1100630
  79.5769150   9.5463860  62.3956940  78.8011250   9.0664300  62.6855510
  80.2282080   8.8669510  62.2213100  73.5934980   9.8583670  63.2732700
  72.7619860   9.6032380  63.6729210  74.2015960   9.9294440  64.0090620
  73.5736240  13.8923760  63.4690720  73.8764280  13.0021500  63.2900940
  74.3179830  14.4493980  63.2412970  72.0026930   4.8185560  57.0575090
  71.1143630   5.1601530  56.9554970  72.2868120   4.6185880  56.1655920
  69.9659940   7.4191210  62.9414790  70.5376050   6.6513410  62.9418430
  69.9661480   7.7179970  62.0321400  79.8239890  16.2382060  60.7960060
  79.2051330  16.6939560  60.2254500  80.6791670  16.3933520  60.3949760
  79.0178140  12.2221050  62.4027100  78.9486420  11.2810990  62.2416230
  79.7798000  12.3122460  62.9749670  71.2084810   2.8275570  64.7283720
  71.0287650   1.9301320  65.0086480  70.8064890   3.3747440  65.4030670
  80.0483310   5.0291430  62.6296030  80.4248130   4.1563310  62.5169700
  79.9502820   5.3650130  61.7386470  74.1788320   3.4017060  58.0913470
  74.2855070   4.3020790  58.3982230  73.2680680   3.3535030  57.8008120
  71.8271480   5.3236070  63.3366060  72.5081590   5.5874440  63.9553460
  71.5119530   4.4836940  63.6704070  76.0196050   6.3703430  62.4238650
  76.5274270   6.8684400  63.0643670  76.5509290   5.5938630  62.2478010
  75.5535000  10.6497170  64.8675570  75.2204380  11.2766090  65.5096640
  75.7301680  11.1759050  64.0877240  73.9847480   2.7211950  64.6972520
  74.3264290   3.5654000  64.4026390  73.0463290   2.8695690  64.8137860
  70.0586440  11.8077830  55.5631600  69.6814420  12.2964930  54.8316500
  70.3159510  12.4803110  56.1938130  80.0556130   8.2743050  57.7577230
  79.1285410   8.2080430  57.9865700  80.2080950   9.2123180  57.6432470
  80.0425210   4.5460050  54.7544390  79.1028880   4.7074010  54.8396850
  80.3608470   5.2645730  54.2080380  75.6612770   8.8007790  60.5396960
  75.2569770   8.0885040  60.0442860  75.7475890   8.4561030  61.4285000
  76.1294470  12.4875350  62.7036170  75.8322760  11.8820820  62.0243950
  77.0794290  12.5252660  62.5925530  74.3741390   5.5751000  64.3196000
  74.9255980   5.6846340  63.5449250  74.8884900   5.9488600  65.0351230
  72.3617400   7.6952770  58.0403610  72.2415000   8.4214860  57.4284880
  72.0518290   6.9255680  57.5631520  70.0002770  10.8667910  63.8472250
  70.0783190  11.0016680  62.9027970  70.6144450  10.1583800  64.0400370
  71.2450400  12.5668100  60.2578430  70.8378480  12.7082690  59.4032030
  72.1363410  12.2828260  60.0549640  75.5172060  16.7813880  58.3701100
  75.3414540  15.8649420  58.1568900  74.6627800  17.1401170  58.6098900
  74.6195280   6.1621410  59.1508530  74.3936200   5.9458580  60.0555150
  73.8387810   6.5949870  58.8054500  69.6792310   5.3369240  53.2135380
  69.5966980   6.2800000  53.3550370  69.3275370   5.1944150  52.3347730
  77.4790440   4.0708270  62.2805730  77.4826500   3.6298220  61.4310270
  78.3741560   4.3925600  62.3877550  73.3292820   3.9534760  61.2399940
  72.9892870   4.4309990  61.9966990  72.5670140   3.4999880  60.8801040
  77.5410590   5.0720350  55.2712490  77.6623410   5.0306830  56.2198310
  77.1559100   5.9344500  55.1159220  76.5532090   7.3821490  54.6695790
  75.9848990   6.9339740  54.0431700  77.2621090   7.7414270  54.1360940
  77.7798410   8.1310050  64.0271140  78.1468540   7.6568620  64.7732480
  77.5903470   9.0051620  64.3679480  70.6438900   2.8753740  60.1564610
  70.3585820   2.5109410  60.9943230  70.5817760   2.1434200  59.5427750
  74.0979570  11.3779680  56.9422200  73.3241830  10.8377300  56.7820920
  74.8274200  10.8586290  56.6039960  80.3177490   1.7683000  56.8777980
  79.5042100   1.2696170  56.8023290  80.1239440   2.6081250  56.4614330
  74.1416970  11.0460060  60.5801010  74.6595640  10.2428320  60.5257900
  73.6900990  10.9839200  61.4217840  79.0286470  12.3126340  55.8528310
  79.3702170  13.0568570  55.3571630  78.1999180  12.6257460  56.2153140
  77.9977160  12.3939870  58.6244230  78.6848290  12.9409080  59.0051820
  77.2109580  12.9380600  58.6593840  70.1369560   8.0112690  54.1161310
  71.0064410   8.2937490  54.3997230  69.6459880   8.8248560  54.0010120
  77.3004370   9.3985900  58.2369590  77.7567150  10.2091150  58.4629780
  76.9492580   9.0809040  59.0688080  79.6036980  14.9092240  65.4661890
  80.2479200  15.1151620  66.1435310  79.9666420  14.1480640  65.0132740
  70.5040810  17.2240070  54.6822940  70.8638450  17.8229410  54.0280210
  70.3633150  17.7699960  55.4557970  76.5209430  14.6071270  55.4996610
  76.5119530  15.3400960  54.8841120  75.6007790  14.3602850  55.5923570
  72.1216070   9.8286160  56.2443370  71.5144020  10.5685060  56.2538670
  72.5965420   9.9185520  55.4181570  79.5069030  14.6699510  54.1621800
  79.6081010  14.4663500  53.2323780  78.6070770  14.4157790  54.3669580
  77.0294920   5.2279870  58.1445700  76.3211070   5.6966210  58.5859310
  77.3139400   4.5701880  58.7790890  78.1487140  17.1885830  58.8569470
  78.4028640  17.1507220  57.9348840  77.1999620  17.0619160  58.8497720
  75.2329940   3.5364950  55.5196410  76.0820470   3.9735100  55.4536600
  74.8661210   3.8485210  56.3468470  74.1321360   9.7897310  53.9931940
  74.8984630   9.6778670  54.5557370  74.2096050   9.0935280  53.3408710
  72.8268120   7.2222380  54.6764830  72.9071710   6.2749890  54.7882230
  73.7187870   7.5529260  54.7825490  73.6282830  17.3717770  61.7799370
  74.3645310  16.8233230  62.0507940  74.0123750  18.2373780  61.6405360
  70.5128310  13.4391340  57.6540880  69.5868090  13.6812480  57.6446290
  70.9784740  14.2665600  57.5325630  76.7385140  16.5448080  53.6024940
  77.5313750  16.8336910  53.1506730  76.2189490  16.1140250  52.9237420
  77.2562540  11.7651490  53.4667290  77.1513180  11.1503840  54.1928670
  77.0886760  11.2417380  52.6830300  76.1640390   9.7862440  55.9674580
  76.5856810   9.6202310  56.8105970  76.2891230   8.9762670  55.4729720
  78.6768030   8.8100050  53.2151680  79.1973690   8.0949070  52.8492830
  79.3236430   9.4485920  53.5152190  77.9861100  10.1848930  66.5082680
  78.4049210  11.0281660  66.3358920  77.0669730  10.3220970  66.2789460
  75.0599290   5.8595670  52.9132740  74.8588350   4.9963030  53.2746080
  74.8891340   5.7729030  51.9754340  73.8582090   2.9596290  52.9010620
  74.1607990   2.9663720  51.9929770  74.5976680   2.6094150  53.3978280
  79.2416060  16.8911660  55.5053420  80.1366850  17.2296630  55.5272180
  79.2733690  16.1691070  54.8777700  72.8812220  12.2638710  53.7340420
  73.3187090  12.8068380  54.3898000  73.3659950  11.4385660  53.7436760
  70.0958020  15.0527740  61.1860680  70.4261030  14.1848800  60.9539320
  70.5249020  15.2586260  62.0165640  74.6919940  13.3836750  58.8462650
  74.3915480  13.2601720  59.7466560  74.5857430  12.5245340  58.4378380
  70.5848230  15.9198330  63.9242310  70.1479220  16.0999130  64.7566460
  71.1525910  16.6772950  63.7824030  70.4172660   8.4318560  60.2831190
  69.7621500   8.1630200  59.6390890  71.2550610   8.3223040  59.8333170
  71.4548590   8.8171130  64.8234530  71.8221630   8.7298530  65.7030550
  70.8859410   8.0537680  64.7241390  69.6310740   5.6417490  56.2256520
  68.7274820   5.9047690  56.0508180  70.1151360   5.9128660  55.4456480
  72.1737950   4.6983030  54.1350900  72.8829650   4.2766250  53.6498180
  71.4577890   4.7658260  53.5034250  76.5706700  14.8863410  65.5864400
  76.3298060  15.1537970  64.6994920  77.5109340  15.0569140  65.6415260
  72.3400930  13.6424450  66.0560500  71.6134990  13.0229740  65.9886450
  72.4010080  14.0365060  65.1858580  75.9446030  15.8569450  62.8409910
  76.4611050  15.2456810  62.3158170  76.5943410  16.3598230  63.3320920
  78.6841530  16.7477940  63.6678890  78.9719340  16.4932240  62.7911900
  79.1964750  16.1955300  64.2584460  70.6230930  16.9598840  59.2657260
  70.4552970  16.3269520  59.9639150  69.7565440  17.1658240  58.9151450
  77.7872760   2.9054890  59.7591430  76.9747270   2.5311780  59.4187310
  78.2914400   2.1499970  60.0612620  72.2293630  15.6532070  56.7107400
  71.7041250  16.0340100  56.0069360  72.1538210  16.2782840  57.4317110
  74.8286600  17.6014450  55.5856650  75.5605420  17.3173730  55.0380540
  75.0880270  17.3627730  56.4756030  73.9901390  13.7179180  55.5902980
  73.3610270  14.1864280  56.1388810  74.1049220  12.8728400  56.0249170
  79.5769150   9.5463860  43.6213450  78.8011250   9.0664300  43.9112020
  80.2282080   8.8669510  43.4469610  73.5934980   9.8583670  44.4989210
  72.7619860   9.6032380  44.8985720  74.2015960   9.9294440  45.2347130
  73.5736240  13.8923760  44.6947230  73.8764280  13.0021500  44.5157450
  74.3179830  14.4493980  44.4669480  72.0026930   4.8185560  38.2831600
  71.1143630   5.1601530  38.1811480  72.2868120   4.6185880  37.3912430
  69.9659940   7.4191210  44.1671300  70.5376050   6.6513410  44.1674940
  69.9661480   7.7179970  43.2577910  79.8239890  16.2382060  42.0216570
  79.2051330  16.6939560  41.4511010  80.6791670  16.3933520  41.6206270
  79.0178140  12.2221050  43.6283610  78.9486420  11.2810990  43.4672740
  79.7798000  12.3122460  44.2006180  71.2084810   2.8275570  45.9540230
  71.0287650   1.9301320  46.2342990  70.8064890   3.3747440  46.6287180
  80.0483310   5.0291430  43.8552540  80.4248130   4.1563310  43.7426210
  79.9502820   5.3650130  42.9642980  74.1788320   3.4017060  39.3169980
  74.2855070   4.3020790  39.6238740  73.2680680   3.3535030  39.0264630
  71.8271480   5.3236070  44.5622570  72.5081590   5.5874440  45.1809970
  71.5119530   4.4836940  44.8960580  76.0196050   6.3703430  43.6495160
  76.5274270   6.8684400  44.2900180  76.5509290   5.5938630  43.4734520
  75.5535000  10.6497170  46.0932080  75.2204380  11.2766090  46.7353150
  75.7301680  11.1759050  45.3133750  73.9847480   2.7211950  45.9229030
  74.3264290   3.5654000  45.6282900  73.0463290   2.8695690  46.0394370
  74.7654100  12.6177970  47.9081260  75.3828100  13.2929050  47.6265710
  73.9047220  13.0265950  47.8168760  70.0586440  11.8077830  36.7888110
  69.6814420  12.2964930  36.0573010  70.3159510  12.4803110  37.4194640
  80.0556130   8.2743050  38.9833740  79.1285410   8.2080430  39.2122210
  80.2080950   9.2123180  38.8688980  80.0425210   4.5460050  35.9800900
  79.1028880   4.7074010  36.0653360  80.3608470   5.2645730  35.4336890
  75.6612770   8.8007790  41.7653470  75.2569770   8.0885040  41.2699370
  75.7475890   8.4561030  42.6541510  76.1294470  12.4875350  43.9292680
  75.8322760  11.8820820  43.2500460  77.0794290  12.5252660  43.8182040
  74.3741390   5.5751000  45.5452510  74.9255980   5.6846340  44.7705760
  74.8884900   5.9488600  46.2607740  75.2212900  12.2257040  50.5800480
  74.3241430  12.4497010  50.8273880  75.2465770  12.3491980  49.6311880
  74.0484120   9.0970360  49.1557850  73.9091890   9.9693160  49.5245250
  73.1665480   8.7543170  49.0105790  75.8464470  15.0392060  51.3643000
  75.8179900  15.4435010  50.4971430  75.6829440  14.1102420  51.2014600
  72.3617400   7.6952770  39.2660120  72.2415000   8.4214860  38.6541390
  72.0518290   6.9255680  38.7888030  70.0002770  10.8667910  45.0728760
  70.0783190  11.0016680  44.1284480  70.6144450  10.1583800  45.2656880
  71.2450400  12.5668100  41.4834940  70.8378480  12.7082690  40.6288540
  72.1363410  12.2828260  41.2806150  75.5172060  16.7813880  39.5957610
  75.3414540  15.8649420  39.3825410  74.6627800  17.1401170  39.8355410
  70.0562290  11.9082080  47.6123220  70.2193330  11.4387440  46.7942590
  70.5214740  11.4005640  48.2772060  79.1150870   3.9056360  48.2519110
  78.6530240   4.1139380  49.0639050  78.7128980   3.0915710  47.9489780
  74.6195280   6.1621410  40.3765040  74.3936200   5.9458580  41.2811660
  73.8387810   6.5949870  40.0311010  77.0594490   7.0606990  51.0425310
  76.9638090   6.1201720  50.8925710  77.9026470   7.2822060  50.6473380
  72.1905030   3.4720660  49.1959090  71.7968420   4.3195870  49.4031870
  71.5023430   2.8347030  49.3867730  78.7650080   3.5555630  52.2655830
  78.0748400   3.3627830  52.9001920  79.5082380   3.8390270  52.7980130
  69.6792310   5.3369240  34.4391890  69.5966980   6.2800000  34.5806880
  69.3275370   5.1944150  33.5604240  77.4790440   4.0708270  43.5062240
  77.4826500   3.6298220  42.6566780  78.3741560   4.3925600  43.6134060
  73.3292820   3.9534760  42.4656450  72.9892870   4.4309990  43.2223500
  72.5670140   3.4999880  42.1057550  77.5410590   5.0720350  36.4969000
  77.6623410   5.0306830  37.4454820  77.1559100   5.9344500  36.3415730
  76.5532090   7.3821490  35.8952300  75.9848990   6.9339740  35.2688210
  77.2621090   7.7414270  35.3617450  71.6301270  11.2833510  49.7719030
  71.2456060  10.6427180  50.3701990  71.9413460  11.9869630  50.3413760
  77.7798410   8.1310050  45.2527650  78.1468540   7.6568620  45.9988990
  77.5903470   9.0051620  45.5935990  70.6438900   2.8753740  41.3821120
  70.3585820   2.5109410  42.2199740  70.5817760   2.1434200  40.7684260
  75.5697780   7.1718690  47.5711860  75.2654850   8.0510670  47.7962220
  76.5244240   7.2318480  47.6069300  74.0979570  11.3779680  38.1678710
  73.3241830  10.8377300  38.0077430  74.8274200  10.8586290  37.8296470
  80.3177490   1.7683000  38.1034490  79.5042100   1.2696170  38.0279800
  80.1239440   2.6081250  37.6870840  80.2386350  10.4454100  49.8474100
  80.1723660   9.5249770  49.5931690  79.6091490  10.5429540  50.5618740
  74.1416970  11.0460060  41.8057520  74.6595640  10.2428320  41.7514410
  73.6900990  10.9839200  42.6474350  79.0286470  12.3126340  37.0784820
  79.3702170  13.0568570  36.5828140  78.1999180  12.6257460  37.4409650
  71.6261510   8.0121430  48.7183220  71.2676450   8.6775280  49.3056560
  71.3316070   7.1804980  49.0895840  74.8274630   8.4705670  51.6022770
  74.5274770   8.6162850  50.7050590  75.5985870   7.9110960  51.5096160
  80.1703080  13.2674670  49.5977900  80.1847620  12.3355630  49.3796810
  79.4628180  13.3534430  50.2367670  77.9977160  12.3939870  39.8500740
  78.6848290  12.9409080  40.2308330  77.2109580  12.9380600  39.8850350
  70.1369560   8.0112690  35.3417820  71.0064410   8.2937490  35.6253740
  69.6459880   8.8248560  35.2266630  77.3004370   9.3985900  39.4626100
  77.7567150  10.2091150  39.6886290  76.9492580   9.0809040  40.2944590
  79.6036980  14.9092240  46.6918400  80.2479200  15.1151620  47.3691820
  79.9666420  14.1480640  46.2389250  70.5040810  17.2240070  35.9079450
  70.8638450  17.8229410  35.2536720  70.3633150  17.7699960  36.6814480
  70.4882670  15.4894930  50.3821850  70.5973790  14.5489670  50.2417240
  69.8363230  15.7549680  49.7335580  78.4795260  13.7610820  51.7819970
  78.1592130  13.0420060  52.3265660  77.8053620  14.4365890  51.8556030
  76.5209430  14.6071270  36.7253120  76.5119530  15.3400960  36.1097630
  75.6007790  14.3602850  36.8180080  72.1216070   9.8286160  37.4699880
  71.5144020  10.5685060  37.4795180  72.5965420   9.9185520  36.6438080
  79.5069030  14.6699510  35.3878310  79.6081010  14.4663500  34.4580290
  78.6070770  14.4157790  35.5926090  77.0294920   5.2279870  39.3702210
  76.3211070   5.6966210  39.8115820  77.3139400   4.5701880  40.0047400
  78.6550850   6.6476570  47.3694740  79.1536100   7.1222390  48.0346590
  78.7973800   5.7240090  47.5764770  78.1487140  17.1885830  40.0825980
  78.4028640  17.1507220  39.1605350  77.1999620  17.0619160  40.0754230
  75.2329940   3.5364950  36.7452920  76.0820470   3.9735100  36.6793110
  74.8661210   3.8485210  37.5724980  74.1321360   9.7897310  35.2188450
  74.8984630   9.6778670  35.7813880  74.2096050   9.0935280  34.5665220
  72.8268120   7.2222380  35.9021340  72.9071710   6.2749890  36.0138740
  73.7187870   7.5529260  36.0082000  73.6282830  17.3717770  43.0055880
  74.3645310  16.8233230  43.2764450  74.0123750  18.2373780  42.8661870
  70.5128310  13.4391340  38.8797390  69.5868090  13.6812480  38.8702800
  70.9784740  14.2665600  38.7582140  72.6341110  16.5563840  52.1941460
  73.4353840  16.8775890  52.6076860  72.1192930  16.1959420  52.9161370
  76.7385140  16.5448080  34.8281450  77.5313750  16.8336910  34.3763240
  76.2189490  16.1140250  34.1493930  70.3538920   9.0437300  51.1377510
  70.8577940   8.4644580  51.7093740  69.6146340   9.3277530  51.6753880
  77.2562540  11.7651490  34.6923800  77.1513180  11.1503840  35.4185180
  77.0886760  11.2417380  33.9086810  77.4076860  10.4508290  50.6713030
  76.6422530  11.0193290  50.5867700  77.5892820  10.1584500  49.7781260
  72.3862000   7.1866890  52.0327580  72.4267340   6.8880760  52.9412810
  73.2407500   7.5874500  51.8735100  76.1640390   9.7862440  37.1931090
  76.5856810   9.6202310  38.0362480  76.2891230   8.9762670  36.6986230
  74.3267810   5.7658990  50.0002070  73.7964270   5.2749940  49.3725410
  74.9955880   6.1943190  49.4660000  78.6768030   8.8100050  34.4408190
  79.1973690   8.0949070  34.0749340  79.3236430   9.4485920  34.7408700
  74.8140110   2.7321360  50.0799360  74.7196980   2.1142110  49.3550230
  74.2337500   3.4587650  49.8529270  77.9861100  10.1848930  47.7339190
  78.4049210  11.0281660  47.5615430  77.0669730  10.3220970  47.5045970
  75.0599290   5.8595670  34.1389250  74.8588350   4.9963030  34.5002590
  74.8891340   5.7729030  33.2010850  75.8368520  16.4901940  48.8496920
  75.2989610  17.2148000  48.5305620  76.0902480  16.0132280  48.0594260
  77.0893770   4.4586460  50.3752850  77.6793460   4.1502310  51.0630670
  76.2714010   3.9866210  50.5312750  73.8582090   2.9596290  34.1267130
  74.1607990   2.9663720  33.2186280  74.5976680   2.6094150  34.6234790
  78.6930730  17.7253150  49.1083570  78.6189430  18.6288290  49.4155940
  77.7909570  17.4065050  49.0805640  79.2416060  16.8911660  36.7309930
  80.1366850  17.2296630  36.7528690  79.2733690  16.1691070  36.1034210
  72.8812220  12.2638710  34.9596930  73.3187090  12.8068380  35.6154510
  73.3659950  11.4385660  34.9693270  70.0958020  15.0527740  42.4117190
  70.4261030  14.1848800  42.1795830  70.5249020  15.2586260  43.2422150
  74.6919940  13.3836750  40.0719160  74.3915480  13.2601720  40.9723070
  74.5857430  12.5245340  39.6634890  70.5848230  15.9198330  45.1498820
  70.1479220  16.0999130  45.9822970  71.1525910  16.6772950  45.0080540
  70.4172660   8.4318560  41.5087700  69.7621500   8.1630200  40.8647400
  71.2550610   8.3223040  41.0589680  71.4548590   8.8171130  46.0491040
  71.8221630   8.7298530  46.9287060  70.8859410   8.0537680  45.9497900
  71.0064590   5.7280220  49.9549460  70.1120640   5.6946980  50.2943170
  71.5462140   5.9267010  50.7200710  69.6310740   5.6417490  37.4513030
  68.7274820   5.9047690  37.2764690  70.1151360   5.9128660  36.6712990
  72.1737950   4.6983030  35.3607410  72.8829650   4.2766250  34.8754690
  71.4577890   4.7658260  34.7290760  72.8700670  13.3303820  51.2111190
  72.8270300  12.9596730  52.0925650  73.0011680  14.2681390  51.3513010
  76.5706700  14.8863410  46.8120910  76.3298060  15.1537970  45.9251430
  77.5109340  15.0569140  46.8671770  72.7088700  16.2766070  48.3308970
  72.1149020  16.1450770  49.0699010  72.7012540  15.4404210  47.8651070
  72.3400930  13.6424450  47.2817010  71.6134990  13.0229740  47.2142960
  72.4010080  14.0365060  46.4115090  75.9446030  15.8569450  44.0666420
  76.4611050  15.2456810  43.5414680  76.5943410  16.3598230  44.5577430
  78.6841530  16.7477940  44.8935400  78.9719340  16.4932240  44.0168410
  79.1964750  16.1955300  45.4840970  70.6230930  16.9598840  40.4913770
  70.4552970  16.3269520  41.1895660  69.7565440  17.1658240  40.1407960
  77.7872760   2.9054890  40.9847940  76.9747270   2.5311780  40.6443820
  78.2914400   2.1499970  41.2869130  72.2293630  15.6532070  37.9363910
  71.7041250  16.0340100  37.2325870  72.1538210  16.2782840  38.6573620
  78.7513890  17.6694040  52.2603600  79.6781200  17.4338310  52.3039560
  78.7364320  18.4966040  51.7789630  74.8286600  17.6014450  36.8113160
  75.5605420  17.3173730  36.2637050  75.0880270  17.3627730  37.7012540
  73.9901390  13.7179180  36.8159490  73.3610270  14.1864280  37.3645320
  74.1049220  12.8728400  37.2505680  79.5769150   9.5463860  24.8469960
  78.8011250   9.0664300  25.1368530  80.2282080   8.8669510  24.6726120
  73.5934980   9.8583670  25.7245720  72.7619860   9.6032380  26.1242230
  74.2015960   9.9294440  26.4603640  73.5736240  13.8923760  25.9203740
  73.8764280  13.0021500  25.7413960  74.3179830  14.4493980  25.6925990
  72.0026930   4.8185560  19.5088110  71.1143630   5.1601530  19.4067990
  72.2868120   4.6185880  18.6168940  69.9659940   7.4191210  25.3927810
  70.5376050   6.6513410  25.3931450  69.9661480   7.7179970  24.4834420
  79.8239890  16.2382060  23.2473080  79.2051330  16.6939560  22.6767520
  80.6791670  16.3933520  22.8462780  79.0178140  12.2221050  24.8540120
  78.9486420  11.2810990  24.6929250  79.7798000  12.3122460  25.4262690
  71.2084810   2.8275570  27.1796740  71.0287650   1.9301320  27.4599500
  70.8064890   3.3747440  27.8543690  80.0483310   5.0291430  25.0809050
  80.4248130   4.1563310  24.9682720  79.9502820   5.3650130  24.1899490
  74.1788320   3.4017060  20.5426490  74.2855070   4.3020790  20.8495250
  73.2680680   3.3535030  20.2521140  71.8271480   5.3236070  25.7879080
  72.5081590   5.5874440  26.4066480  71.5119530   4.4836940  26.1217090
  76.0196050   6.3703430  24.8751670  76.5274270   6.8684400  25.5156690
  76.5509290   5.5938630  24.6991030  75.5535000  10.6497170  27.3188590
  75.2204380  11.2766090  27.9609660  75.7301680  11.1759050  26.5390260
  73.9847480   2.7211950  27.1485540  74.3264290   3.5654000  26.8539410
  73.0463290   2.8695690  27.2650880  74.7654100  12.6177970  29.1337770
  75.3828100  13.2929050  28.8522220  73.9047220  13.0265950  29.0425270
  70.0586440  11.8077830  18.0144620  69.6814420  12.2964930  17.2829520
  70.3159510  12.4803110  18.6451150  80.0556130   8.2743050  20.2090250
  79.1285410   8.2080430  20.4378720  80.2080950   9.2123180  20.0945490
  80.0425210   4.5460050  17.2057410  79.1028880   4.7074010  17.2909870
  80.3608470   5.2645730  16.6593400  75.6612770   8.8007790  22.9909980
  75.2569770   8.0885040  22.4955880  75.7475890   8.4561030  23.8798020
  76.1294470  12.4875350  25.1549190  75.8322760  11.8820820  24.4756970
  77.0794290  12.5252660  25.0438550  74.3741390   5.5751000  26.7709020
  74.9255980   5.6846340  25.9962270  74.8884900   5.9488600  27.4864250
  75.2212900  12.2257040  31.8056990  74.3241430  12.4497010  32.0530390
  75.2465770  12.3491980  30.8568390  74.0484120   9.0970360  30.3814360
  73.9091890   9.9693160  30.7501760  73.1665480   8.7543170  30.2362300
  75.8464470  15.0392060  32.5899510  75.8179900  15.4435010  31.7227940
  75.6829440  14.1102420  32.4271110  72.3617400   7.6952770  20.4916630
  72.2415000   8.4214860  19.8797900  72.0518290   6.9255680  20.0144540
  70.0002770  10.8667910  26.2985270  70.0783190  11.0016680  25.3540990
  70.6144450  10.1583800  26.4913390  71.2450400  12.5668100  22.7091450
  70.8378480  12.7082690  21.8545050  72.1363410  12.2828260  22.5062660
  75.5172060  16.7813880  20.8214120  75.3414540  15.8649420  20.6081920
  74.6627800  17.1401170  21.0611920  70.0562290  11.9082080  28.8379730
  70.2193330  11.4387440  28.0199100  70.5214740  11.4005640  29.5028570
  79.1150870   3.9056360  29.4775620  78.6530240   4.1139380  30.2895560
  78.7128980   3.0915710  29.1746290  74.6195280   6.1621410  21.6021550
  74.3936200   5.9458580  22.5068170  73.8387810   6.5949870  21.2567520
  77.0594490   7.0606990  32.2681820  76.9638090   6.1201720  32.1182220
  77.9026470   7.2822060  31.8729890  72.1905030   3.4720660  30.4215600
  71.7968420   4.3195870  30.6288380  71.5023430   2.8347030  30.6124240
  78.7650080   3.5555630  33.4912340  78.0748400   3.3627830  34.1258430
  79.5082380   3.8390270  34.0236640  69.6792310   5.3369240  15.6648400
  69.5966980   6.2800000  15.8063390  69.3275370   5.1944150  14.7860750
  77.4790440   4.0708270  24.7318750  77.4826500   3.6298220  23.8823290
  78.3741560   4.3925600  24.8390570  73.3292820   3.9534760  23.6912960
  72.9892870   4.4309990  24.4480010  72.5670140   3.4999880  23.3314060
  77.5410590   5.0720350  17.7225510  77.6623410   5.0306830  18.6711330
  77.1559100   5.9344500  17.5672240  76.5532090   7.3821490  17.1208810
  75.9848990   6.9339740  16.4944720  77.2621090   7.7414270  16.5873960
  71.6301270  11.2833510  30.9975540  71.2456060  10.6427180  31.5958500
  71.9413460  11.9869630  31.5670270  77.7798410   8.1310050  26.4784160
  78.1468540   7.6568620  27.2245500  77.5903470   9.0051620  26.8192500
  70.6438900   2.8753740  22.6077630  70.3585820   2.5109410  23.4456250
  70.5817760   2.1434200  21.9940770  75.5697780   7.1718690  28.7968370
  75.2654850   8.0510670  29.0218730  76.5244240   7.2318480  28.8325810
  74.0979570  11.3779680  19.3935220  73.3241830  10.8377300  19.2333940
  74.8274200  10.8586290  19.0552980  80.3177490   1.7683000  19.3291000
  79.5042100   1.2696170  19.2536310  80.1239440   2.6081250  18.9127350
  80.2386350  10.4454100  31.0730610  80.1723660   9.5249770  30.8188200
  79.6091490  10.5429540  31.7875250  74.1416970  11.0460060  23.0314030
  74.6595640  10.2428320  22.9770920  73.6900990  10.9839200  23.8730860
  79.0286470  12.3126340  18.3041330  79.3702170  13.0568570  17.8084650
  78.1999180  12.6257460  18.6666160  71.6261510   8.0121430  29.9439730
  71.2676450   8.6775280  30.5313070  71.3316070   7.1804980  30.3152350
  74.8274630   8.4705670  32.8279280  74.5274770   8.6162850  31.9307100
  75.5985870   7.9110960  32.7352670  80.1703080  13.2674670  30.8234410
  80.1847620  12.3355630  30.6053320  79.4628180  13.3534430  31.4624180
  77.9977160  12.3939870  21.0757250  78.6848290  12.9409080  21.4564840
  77.2109580  12.9380600  21.1106860  70.1369560   8.0112690  16.5674330
  71.0064410   8.2937490  16.8510250  69.6459880   8.8248560  16.4523140
  77.3004370   9.3985900  20.6882610  77.7567150  10.2091150  20.9142800
  76.9492580   9.0809040  21.5201100  79.6036980  14.9092240  27.9174910
  80.2479200  15.1151620  28.5948330  79.9666420  14.1480640  27.4645760
  70.5040810  17.2240070  17.1335960  70.8638450  17.8229410  16.4793230
  70.3633150  17.7699960  17.9070990  70.4882670  15.4894930  31.6078360
  70.5973790  14.5489670  31.4673750  69.8363230  15.7549680  30.9592090
  78.4795260  13.7610820  33.0076480  78.1592130  13.0420060  33.5522170
  77.8053620  14.4365890  33.0812540  76.5209430  14.6071270  17.9509630
  76.5119530  15.3400960  17.3354140  75.6007790  14.3602850  18.0436590
  72.1216070   9.8286160  18.6956390  71.5144020  10.5685060  18.7051690
  72.5965420   9.9185520  17.8694590  79.5069030  14.6699510  16.6134820
  79.6081010  14.4663500  15.6836800  78.6070770  14.4157790  16.8182600
  77.0294920   5.2279870  20.5958720  76.3211070   5.6966210  21.0372330
  77.3139400   4.5701880  21.2303910  78.6550850   6.6476570  28.5951250
  79.1536100   7.1222390  29.2603100  78.7973800   5.7240090  28.8021280
  78.1487140  17.1885830  21.3082490  78.4028640  17.1507220  20.3861860
  77.1999620  17.0619160  21.3010740  75.2329940   3.5364950  17.9709430
  76.0820470   3.9735100  17.9049620  74.8661210   3.8485210  18.7981490
  74.1321360   9.7897310  16.4444960  74.8984630   9.6778670  17.0070390
  74.2096050   9.0935280  15.7921730  72.8268120   7.2222380  17.1277850
  72.9071710   6.2749890  17.2395250  73.7187870   7.5529260  17.2338510
  73.6282830  17.3717770  24.2312390  74.3645310  16.8233230  24.5020960
  74.0123750  18.2373780  24.0918380  70.5128310  13.4391340  20.1053900
  69.5868090  13.6812480  20.0959310  70.9784740  14.2665600  19.9838650
  72.6341110  16.5563840  33.4197970  73.4353840  16.8775890  33.8333370
  72.1192930  16.1959420  34.1417880  76.7385140  16.5448080  16.0537960
  77.5313750  16.8336910  15.6019750  76.2189490  16.1140250  15.3750440
  70.3538920   9.0437300  32.3634020  70.8577940   8.4644580  32.9350250
  69.6146340   9.3277530  32.9010390  77.2562540  11.7651490  15.9180310
  77.1513180  11.1503840  16.6441690  77.0886760  11.2417380  15.1343320
  77.4076860  10.4508290  31.8969540  76.6422530  11.0193290  31.8124210
  77.5892820  10.1584500  31.0037770  72.3862000   7.1866890  33.2584090
  72.4267340   6.8880760  34.1669320  73.2407500   7.5874500  33.0991610
  76.1640390   9.7862440  18.4187600  76.5856810   9.6202310  19.2618990
  76.2891230   8.9762670  17.9242740  74.3267810   5.7658990  31.2258580
  73.7964270   5.2749940  30.5981920  74.9955880   6.1943190  30.6916510
  78.6768030   8.8100050  15.6664700  79.1973690   8.0949070  15.3005850
  79.3236430   9.4485920  15.9665210  74.8140110   2.7321360  31.3055870
  74.7196980   2.1142110  30.5806740  74.2337500   3.4587650  31.0785780
  77.9861100  10.1848930  28.9595700  78.4049210  11.0281660  28.7871940
  77.0669730  10.3220970  28.7302480  75.0599290   5.8595670  15.3645760
  74.8588350   4.9963030  15.7259100  74.8891340   5.7729030  14.4267360
  75.8368520  16.4901940  30.0753430  75.2989610  17.2148000  29.7562130
  76.0902480  16.0132280  29.2850770  77.0893770   4.4586460  31.6009360
  77.6793460   4.1502310  32.2887180  76.2714010   3.9866210  31.7569260
  73.8582090   2.9596290  15.3523640  74.1607990   2.9663720  14.4442790
  74.5976680   2.6094150  15.8491300  78.6930730  17.7253150  30.3340080
  78.6189430  18.6288290  30.6412450  77.7909570  17.4065050  30.3062150
  79.2416060  16.8911660  17.9566440  80.1366850  17.2296630  17.9785200
  79.2733690  16.1691070  17.3290720  72.8812220  12.2638710  16.1853440
  73.3187090  12.8068380  16.8411020  73.3659950  11.4385660  16.1949780
  70.0958020  15.0527740  23.6373700  70.4261030  14.1848800  23.4052340
  70.5249020  15.2586260  24.4678660  74.6919940  13.3836750  21.2975670
  74.3915480  13.2601720  22.1979580  74.5857430  12.5245340  20.8891400
  70.5848230  15.9198330  26.3755330  70.1479220  16.0999130  27.2079480
  71.1525910  16.6772950  26.2337050  70.4172660   8.4318560  22.7344210
  69.7621500   8.1630200  22.0903910  71.2550610   8.3223040  22.2846190
  71.4548590   8.8171130  27.2747550  71.8221630   8.7298530  28.1543570
  70.8859410   8.0537680  27.1754410  71.0064590   5.7280220  31.1805970
  70.1120640   5.6946980  31.5199680  71.5462140   5.9267010  31.9457220
  69.6310740   5.6417490  18.6769540  68.7274820   5.9047690  18.5021200
  70.1151360   5.9128660  17.8969500  72.1737950   4.6983030  16.5863920
  72.8829650   4.2766250  16.1011200  71.4577890   4.7658260  15.9547270
  72.8700670  13.3303820  32.4367700  72.8270300  12.9596730  33.3182160
  73.0011680  14.2681390  32.5769520  76.5706700  14.8863410  28.0377420
  76.3298060  15.1537970  27.1507940  77.5109340  15.0569140  28.0928280
  72.7088700  16.2766070  29.5565480  72.1149020  16.1450770  30.2955520
  72.7012540  15.4404210  29.0907580  72.3400930  13.6424450  28.5073520
  71.6134990  13.0229740  28.4399470  72.4010080  14.0365060  27.6371600
  75.9446030  15.8569450  25.2922930  76.4611050  15.2456810  24.7671190
  76.5943410  16.3598230  25.7833940  78.6841530  16.7477940  26.1191910
  78.9719340  16.4932240  25.2424920  79.1964750  16.1955300  26.7097480
  70.6230930  16.9598840  21.7170280  70.4552970  16.3269520  22.4152170
  69.7565440  17.1658240  21.3664470  77.7872760   2.9054890  22.2104450
  76.9747270   2.5311780  21.8700330  78.2914400   2.1499970  22.5125640
  72.2293630  15.6532070  19.1620420  71.7041250  16.0340100  18.4582380
  72.1538210  16.2782840  19.8830130  78.7513890  17.6694040  33.4860110
  79.6781200  17.4338310  33.5296070  78.7364320  18.4966040  33.0046140
  74.8286600  17.6014450  18.0369670  75.5605420  17.3173730  17.4893560
  75.0880270  17.3627730  18.9269050  73.9901390  13.7179180  18.0416000
  73.3610270  14.1864280  18.5901830  74.1049220  12.8728400  18.4762190
  79.5769150   9.5463860   6.0726470  78.8011250   9.0664300   6.3625040
  80.2282080   8.8669510   5.8982630  73.5934980   9.8583670   6.9502230
  72.7619860   9.6032380   7.3498740  74.2015960   9.9294440   7.6860150
  73.5736240  13.8923760   7.1460250  73.8764280  13.0021500   6.9670470
  74.3179830  14.4493980   6.9182500  69.9659940   7.4191210   6.6184320
  70.5376050   6.6513410   6.6187960  69.9661480   7.7179970   5.7090930
  79.8239890  16.2382060   4.4729590  79.2051330  16.6939560   3.9024030
  80.6791670  16.3933520   4.0719290  79.0178140  12.2221050   6.0796630
  78.9486420  11.2810990   5.9185760  79.7798000  12.3122460   6.6519200
  71.2084810   2.8275570   8.4053250  71.0287650   1.9301320   8.6856010
  70.8064890   3.3747440   9.0800200  80.0483310   5.0291430   6.3065560
  80.4248130   4.1563310   6.1939230  79.9502820   5.3650130   5.4156000
  74.1788320   3.4017060   1.7683000  74.2855070   4.3020790   2.0751760
  73.2680680   3.3535030   1.4777650  71.8271480   5.3236070   7.0135590
  72.5081590   5.5874440   7.6322990  71.5119530   4.4836940   7.3473600
  76.0196050   6.3703430   6.1008180  76.5274270   6.8684400   6.7413200
  76.5509290   5.5938630   5.9247540  75.5535000  10.6497170   8.5445100
  75.2204380  11.2766090   9.1866170  75.7301680  11.1759050   7.7646770
  73.9847480   2.7211950   8.3742050  74.3264290   3.5654000   8.0795920
  73.0463290   2.8695690   8.4907390  74.7654100  12.6177970  10.3594280
  75.3828100  13.2929050  10.0778730  73.9047220  13.0265950  10.2681780
  75.6612770   8.8007790   4.2166490  75.2569770   8.0885040   3.7212390
  75.7475890   8.4561030   5.1054530  76.1294470  12.4875350   6.3805700
  75.8322760  11.8820820   5.7013480  77.0794290  12.5252660   6.2695060
  74.3741390   5.5751000   7.9965530  74.9255980   5.6846340   7.2218780
  74.8884900   5.9488600   8.7120760  75.2212900  12.2257040  13.0313500
  74.3241430  12.4497010  13.2786900  75.2465770  12.3491980  12.0824900
  74.0484120   9.0970360  11.6070870  73.9091890   9.9693160  11.9758270
  73.1665480   8.7543170  11.4618810  75.8464470  15.0392060  13.8156020
  75.8179900  15.4435010  12.9484450  75.6829440  14.1102420  13.6527620
  70.0002770  10.8667910   7.5241780  70.0783190  11.0016680   6.5797500
  70.6144450  10.1583800   7.7169900  71.2450400  12.5668100   3.9347960
  70.8378480  12.7082690   3.0801560  72.1363410  12.2828260   3.7319170
  75.5172060  16.7813880   2.0470630  75.3414540  15.8649420   1.8338430
  74.6627800  17.1401170   2.2868430  70.0562290  11.9082080  10.0636240
  70.2193330  11.4387440   9.2455610  70.5214740  11.4005640  10.7285080
  79.1150870   3.9056360  10.7032130  78.6530240   4.1139380  11.5152070
  78.7128980   3.0915710  10.4002800  74.6195280   6.1621410   2.8278060
  74.3936200   5.9458580   3.7324680  73.8387810   6.5949870   2.4824030
  77.0594490   7.0606990  13.4938330  76.9638090   6.1201720  13.3438730
  77.9026470   7.2822060  13.0986400  72.1905030   3.4720660  11.6472110
  71.7968420   4.3195870  11.8544890  71.5023430   2.8347030  11.8380750
  78.7650080   3.5555630  14.7168850  78.0748400   3.3627830  15.3514940
  79.5082380   3.8390270  15.2493150  77.4790440   4.0708270   5.9575260
  77.4826500   3.6298220   5.1079800  78.3741560   4.3925600   6.0647080
  73.3292820   3.9534760   4.9169470  72.9892870   4.4309990   5.6736520
  72.5670140   3.4999880   4.5570570  71.6301270  11.2833510  12.2232050
  71.2456060  10.6427180  12.8215010  71.9413460  11.9869630  12.7926780
  77.7798410   8.1310050   7.7040670  78.1468540   7.6568620   8.4502010
  77.5903470   9.0051620   8.0449010  70.6438900   2.8753740   3.8334140
  70.3585820   2.5109410   4.6712760  70.5817760   2.1434200   3.2197280
  75.5697780   7.1718690  10.0224880  75.2654850   8.0510670  10.2475240
  76.5244240   7.2318480  10.0582320  80.2386350  10.4454100  12.2987120
  80.1723660   9.5249770  12.0444710  79.6091490  10.5429540  13.0131760
  74.1416970  11.0460060   4.2570540  74.6595640  10.2428320   4.2027430
  73.6900990  10.9839200   5.0987370  71.6261510   8.0121430  11.1696240
  71.2676450   8.6775280  11.7569580  71.3316070   7.1804980  11.5408860
  74.8274630   8.4705670  14.0535790  74.5274770   8.6162850  13.1563610
  75.5985870   7.9110960  13.9609180  80.1703080  13.2674670  12.0490920
  80.1847620  12.3355630  11.8309830  79.4628180  13.3534430  12.6880690
  77.9977160  12.3939870   2.3013760  78.6848290  12.9409080   2.6821350
  77.2109580  12.9380600   2.3363370  77.3004370   9.3985900   1.9139120
  77.7567150  10.2091150   2.1399310  76.9492580   9.0809040   2.7457610
  79.6036980  14.9092240   9.1431420  80.2479200  15.1151620   9.8204840
  79.9666420  14.1480640   8.6902270  70.4882670  15.4894930  12.8334870
  70.5973790  14.5489670  12.6930260  69.8363230  15.7549680  12.1848600
  78.4795260  13.7610820  14.2332990  78.1592130  13.0420060  14.7778680
  77.8053620  14.4365890  14.3069050  77.0294920   5.2279870   1.8215230
  76.3211070   5.6966210   2.2628840  77.3139400   4.5701880   2.4560420
  78.6550850   6.6476570   9.8207760  79.1536100   7.1222390  10.4859610
  78.7973800   5.7240090  10.0277790  78.1487140  17.1885830   2.5339000
  78.4028640  17.1507220   1.6118370  77.1999620  17.0619160   2.5267250
  73.6282830  17.3717770   5.4568900  74.3645310  16.8233230   5.7277470
  74.0123750  18.2373780   5.3174890  72.6341110  16.5563840  14.6454480
  73.4353840  16.8775890  15.0589880  72.1192930  16.1959420  15.3674390
  70.3538920   9.0437300  13.5890530  70.8577940   8.4644580  14.1606760
  69.6146340   9.3277530  14.1266900  77.4076860  10.4508290  13.1226050
  76.6422530  11.0193290  13.0380720  77.5892820  10.1584500  12.2294280
  72.3862000   7.1866890  14.4840600  72.4267340   6.8880760  15.3925830
  73.2407500   7.5874500  14.3248120  74.3267810   5.7658990  12.4515090
  73.7964270   5.2749940  11.8238430  74.9955880   6.1943190  11.9173020
  74.8140110   2.7321360  12.5312380  74.7196980   2.1142110  11.8063250
  74.2337500   3.4587650  12.3042290  77.9861100  10.1848930  10.1852210
  78.4049210  11.0281660  10.0128450  77.0669730  10.3220970   9.9558990
  75.8368520  16.4901940  11.3009940  75.2989610  17.2148000  10.9818640
  76.0902480  16.0132280  10.5107280  77.0893770   4.4586460  12.8265870
  77.6793460   4.1502310  13.5143690  76.2714010   3.9866210  12.9825770
  78.6930730  17.7253150  11.5596590  78.6189430  18.6288290  11.8668960
  77.7909570  17.4065050  11.5318660  70.0958020  15.0527740   4.8630210
  70.4261030  14.1848800   4.6308850  70.5249020  15.2586260   5.6935170
  74.6919940  13.3836750   2.5232180  74.3915480  13.2601720   3.4236090
  74.5857430  12.5245340   2.1147910  70.5848230  15.9198330   7.6011840
  70.1479220  16.0999130   8.4335990  71.1525910  16.6772950   7.4593560
  70.4172660   8.4318560   3.9600720  69.7621500   8.1630200   3.3160420
  71.2550610   8.3223040   3.5102700  71.4548590   8.8171130   8.5004060
  71.8221630   8.7298530   9.3800080  70.8859410   8.0537680   8.4010920
  71.0064590   5.7280220  12.4062480  70.1120640   5.6946980  12.7456190
  71.5462140   5.9267010  13.1713730  72.8700670  13.3303820  13.6624210
  72.8270300  12.9596730  14.5438670  73.0011680  14.2681390  13.8026030
  76.5706700  14.8863410   9.2633930  76.3298060  15.1537970   8.3764450
  77.5109340  15.0569140   9.3184790  72.7088700  16.2766070  10.7821990
  72.1149020  16.1450770  11.5212030  72.7012540  15.4404210  10.3164090
  72.3400930  13.6424450   9.7330030  71.6134990  13.0229740   9.6655980
  72.4010080  14.0365060   8.8628110  75.9446030  15.8569450   6.5179440
  76.4611050  15.2456810   5.9927700  76.5943410  16.3598230   7.0090450
  78.6841530  16.7477940   7.3448420  78.9719340  16.4932240   6.4681430
  79.1964750  16.1955300   7.9353990  70.6230930  16.9598840   2.9426790
  70.4552970  16.3269520   3.6408680  69.7565440  17.1658240   2.5920980
  77.7872760   2.9054890   3.4360960  76.9747270   2.5311780   3.0956840
  78.2914400   2.1499970   3.7382150  78.7513890  17.6694040  14.7116620
  79.6781200  17.4338310  14.7552580  78.7364320  18.4966040  14.2302650
  62.6707620  82.8658800  60.5147670  62.5901670  81.9513410  60.2439380
  62.2572040  83.3625870  59.8087380  60.8025660  84.6437820  62.3956940
  60.0267760  84.1638260  62.6855510  61.4538590  83.9643470  62.2213100
  54.8191490  84.9557630  63.2732700  53.9876370  84.7006340  63.6729210
  55.4272470  85.0268400  64.0090620  64.8233090  89.0498010  61.1756070
  64.3614620  88.2785250  61.5043240  65.6358640  89.0764080  61.6808520
  54.7992750  88.9897720  63.4690720  55.1020790  88.0995460  63.2900940
  55.5436340  89.5467940  63.2412970  53.2283440  79.9159520  57.0575090
  52.3400140  80.2575490  56.9554970  53.5124630  79.7159840  56.1655920
  51.1916450  82.5165170  62.9414790  51.7632560  81.7487370  62.9418430
  51.1917990  82.8153930  62.0321400  60.2434650  87.3195010  62.4027100
  60.1742930  86.3784950  62.2416230  61.0054510  87.4096420  62.9749670
  52.4341320  77.9249530  64.7283720  52.2544160  77.0275280  65.0086480
  52.0321400  78.4721400  65.4030670  61.2739820  80.1265390  62.6296030
  61.6504640  79.2537270  62.5169700  61.1759330  80.4624090  61.7386470
  55.4044830  78.4991020  58.0913470  55.5111580  79.3994750  58.3982230
  54.4937190  78.4508990  57.8008120  65.0563940  77.6215830  59.5624370
  65.8773560  77.1312400  59.6049850  65.0898020  78.2113490  60.3156210
  53.0527990  80.4210030  63.3366060  53.7338100  80.6848400  63.9553460
  52.7376040  79.5810900  63.6704070  57.2452560  81.4677390  62.4238650
  57.7530780  81.9658360  63.0643670  57.7765800  80.6912590  62.2478010
  61.9159750  86.2195260  58.1891970  61.2977020  86.6844710  57.6254690
  62.4283000  86.9122740  58.6061480  56.7791510  85.7471130  64.8675570
  56.4460890  86.3740050  65.5096640  56.9558190  86.2733010  64.0877240
  65.2925420  79.5616210  62.3351910  64.5880990  79.8501100  62.9155020
  65.6537580  80.3716320  61.9751470  55.2103990  77.8185910  64.6972520
  55.5520800  78.6627960  64.4026390  54.2719800  77.9669650  64.8137860
  51.2842950  86.9051790  55.5631600  50.9070930  87.3938890  54.8316500
  51.5416020  87.5777070  56.1938130  66.9088200  89.1791340  64.5979390
  66.2251720  89.8490450  64.5896060  67.4482490  89.3771990  63.8324250
  68.3612340  79.0071000  62.7261120  67.4137250  79.0409980  62.8576550
  68.6862330  79.8209950  63.1110480  58.8931880  75.3068180  61.0217110
  59.2006860  74.7515070  60.3052610  57.9632580  75.4412640  60.8390100
  65.7392360  87.7451690  58.4014740  65.6288690  86.8026020  58.5264160
  65.7360610  88.1067330  59.2877500  63.8432380  85.9265310  64.6407180
  64.2601170  85.7125420  63.8060640  64.5672200  86.1838100  65.2115800
  61.2812640  83.3717010  57.7577230  60.3541920  83.3054390  57.9865700
  61.4337460  84.3097140  57.6432470  61.2681720  79.6434010  54.7544390
  60.3285390  79.8047970  54.8396850  61.5864980  80.3619690  54.2080380
  67.7894480  84.3252530  64.7323420  66.9613110  84.3945620  64.2573550
  68.3844960  84.9106840  64.2639250  65.3109930  84.9337310  58.2612480
  64.6922350  84.5956860  57.6138780  65.2934380  84.2897070  58.9691670
  64.7536490  81.1121850  65.6778290  64.3407670  81.9375560  65.9318280
  64.0212440  80.5266890  65.4854650  56.8869280  83.8981750  60.5396960
  56.4826280  83.1859000  60.0442860  56.9732400  83.5534990  61.4285000
  57.3550980  87.5849310  62.7036170  57.0579270  86.9794780  62.0243950
  58.3050800  87.6226620  62.5925530  55.5997900  80.6724960  64.3196000
  56.1512490  80.7820300  63.5449250  56.1141410  81.0462560  65.0351230
  63.4874630  84.1724120  55.2685230  63.9267910  83.3346550  55.1223050
  64.2003050  84.8053520  55.3549370  61.5970010  89.1120190  59.2366470
  62.0365920  89.8544520  58.8221860  61.5356900  89.3546760  60.1605430
  67.0691770  75.4266930  53.5826270  66.7564430  75.5193760  54.4825340
  67.8304240  76.0047960  53.5323700  53.5873910  82.7926730  58.0403610
  53.4671510  83.5188820  57.4284880  53.2774800  82.0229640  57.5631520
  51.2259280  85.9641870  63.8472250  51.3039700  86.0990640  62.9027970
  51.8400960  85.2557760  64.0400370  52.4706910  87.6642060  60.2578430
  52.0634990  87.8056650  59.4032030  53.3619920  87.3802220  60.0549640
  63.9666320  89.6076870  55.1527480  63.2731480  89.6054160  54.4929760
  64.7089180  89.1836190  54.7221650  56.0537570  76.1361800  61.4227280
  55.6105720  76.9171340  61.0911800  56.6122560  76.4591690  62.1298220
  59.1696390  75.7572500  56.3033110  58.5450570  75.7532370  57.0286420
  59.0826510  74.8903460  55.9069080  58.0913470  76.6809130  63.2816880
  58.3885800  77.5871960  63.2008900  58.6399030  76.1927910  62.6676450
  55.8451790  81.2595370  59.1508530  55.6192710  81.0432540  60.0555150
  55.0644320  81.6923830  58.8054500  63.0749550  81.2658740  57.7499180
  62.4758440  81.9894540  57.5662800  63.6229160  81.2035520  56.9675630
  61.6814420  79.9022280  59.7802460  62.0743990  80.2194480  58.9671150
  62.0431270  79.0234160  59.8946980  50.7178590  76.4923080  62.0032660
  50.4291640  77.0625940  62.7157640  51.4624350  76.0127530  62.3663890
  50.9048820  80.4343200  53.2135380  50.8223490  81.3773960  53.3550370
  50.5531880  80.2918110  52.3347730  62.2669560  82.4928030  63.8753240
  61.5350680  83.0014840  64.2243340  61.8693900  81.6758010  63.5742020
  58.7046950  79.1682230  62.2805730  58.7083010  78.7272180  61.4310270
  59.5998070  79.4899560  62.3877550  54.5549330  79.0508720  61.2399940
  54.2149380  79.5283950  61.9966990  53.7926650  78.5973840  60.8801040
  58.7667100  80.1694310  55.2712490  58.8879920  80.1280790  56.2198310
  58.3815610  81.0318460  55.1159220  62.7295470  77.9461710  63.2876180
  62.7468210  78.3970360  64.1318030  62.4811050  77.0467350  63.5009620
  57.7788600  82.4795450  54.6695790  57.2105500  82.0313700  54.0431700
  58.4877600  82.8388230  54.1360940  59.0054920  83.2284010  64.0271140
  59.3725050  82.7542580  64.7732480  58.8159980  84.1025580  64.3679480
  51.8695410  77.9727700  60.1564610  51.5842330  77.6083370  60.9943230
  51.8074270  77.2408160  59.5427750  55.3236080  86.4753640  56.9422200
  54.5498340  85.9351260  56.7820920  56.0530710  85.9560250  56.6039960
  66.0824060  85.4719000  62.7348590  66.8023180  85.9674290  62.3444700
  65.8805880  84.7936890  62.0902460  61.5434000  76.8656960  56.8777980
  60.7298610  76.3670130  56.8023290  61.3495950  77.7055210  56.4614330
  64.2582390  81.2376610  55.1740140  65.1462010  81.5493840  54.9991480
  64.2287480  80.3648860  54.7820720  55.3673480  86.1434020  60.5801010
  55.8852150  85.3402280  60.5257900  54.9157500  86.0813160  61.4217840
  60.2542980  87.4100300  55.8528310  60.5958680  88.1542530  55.3571630
  59.4255690  87.7231420  56.2153140  66.5296660  82.5488450  54.6420000
  66.4460380  82.9802670  53.7916440  67.2490850  83.0086800  55.0746820
  67.5583910  89.4030710  57.3702130  66.9160070  88.7486330  57.6445850
  67.1714570  89.8085800  56.5942800  63.1370390  86.7316140  61.2173820
  63.4894210  86.1344270  60.5575190  62.2532720  86.4060370  61.3882070
  59.2233670  87.4913830  58.6244230  59.9104800  88.0383040  59.0051820
  58.4366090  88.0354560  58.6593840  51.3626070  83.1086650  54.1161310
  52.2320920  83.3911450  54.3997230  50.8716390  83.9222520  54.0010120
  58.5260880  84.4959860  58.2369590  58.9823660  85.3065110  58.4629780
  58.1749090  84.1783000  59.0688080  60.8293490  90.0066200  65.4661890
  61.4735710  90.2125580  66.1435310  61.1922930  89.2454600  65.0132740
  54.4272660  74.8397510  58.7092110  54.2987290  74.8315410  59.6577030
  53.6034680  75.1780600  58.3583120  62.1025570  88.0098550  64.1839340
  62.7447800  87.3091710  64.2971510  62.6274920  88.7896990  64.0036230
  65.9481290  88.2947170  53.9078480  65.7218870  87.5777610  54.5003120
  65.5577490  88.0459610  53.0700230  65.5297540  86.2119110  55.5692640
  65.2419240  86.6731800  56.3570520  66.3249710  85.7516880  55.8376860
  57.7465940  89.7045230  55.4996610  57.7376040  90.4374920  54.8841120
  56.8264300  89.4576810  55.5923570  53.3472580  84.9260120  56.2443370
  52.7400530  85.6659020  56.2538670  53.8221930  85.0159480  55.4181570
  62.9205370  79.0910940  65.9200260  63.2886190  78.2706150  66.2479830
  62.0603570  79.1512830  66.3355910  66.2867400  78.0467880  56.7287820
  65.6580560  78.1513550  56.0146050  65.7919320  78.2664660  57.5181700
  60.7325540  89.7673470  54.1621800  60.8337520  89.5637460  53.2323780
  59.8327280  89.5131750  54.3669580  58.2551430  80.3253830  58.1445700
  57.5467580  80.7940170  58.5859310  58.5395910  79.6675840  58.7790890
  62.2866860  77.0504490  59.5841490  62.1634640  77.0690620  58.6351000
  63.2351420  77.0983430  59.7039890  56.4586450  78.6338910  55.5196410
  57.3076980  79.0709060  55.4536600  56.0917720  78.9459170  56.3468470
  65.3796230  83.2051670  60.4327980  64.4386370  83.2201900  60.6075670
  65.6940300  82.4187630  60.8788280  55.3577870  84.8871270  53.9931940
  56.1241140  84.7752630  54.5557370  55.4352560  84.1909240  53.3408710
  54.0524630  82.3196340  54.6764830  54.1328220  81.3723850  54.7882230
  54.9444380  82.6503220  54.7825490  51.7384820  88.5365300  57.6540880
  50.8124600  88.7786440  57.6446290  52.2041250  89.3639560  57.5325630
  58.4819050  86.8625450  53.4667290  58.3769690  86.2477800  54.1928670
  58.3143270  86.3391340  52.6830300  61.7221780  85.9245480  54.0709280
  61.1731880  86.3714780  54.7152020  62.3441040  85.4194730  54.5946950
  57.3896900  84.8836400  55.9674580  57.8113320  84.7176270  56.8105970
  57.5147740  84.0736630  55.4729720  59.9024540  83.9074010  53.2151680
  60.4230200  83.1923030  52.8492830  60.5492940  84.5459880  53.5152190
  58.8058060  76.3868560  65.8870240  58.3575360  76.4092820  65.0415790
  58.1723260  75.9887580  66.4840540  59.2117610  85.2822890  66.5082680
  59.6305720  86.1255620  66.3358920  58.2926240  85.4194930  66.2789460
  56.2855800  80.9569630  52.9132740  56.0844860  80.0936990  53.2746080
  56.1147850  80.8702990  51.9754340  63.7644110  75.7677860  55.4419620
  64.0446400  74.9245760  55.7979040  62.9909840  76.0000970  55.9558370
  55.0838600  78.0570250  52.9010620  55.3864500  78.0637680  51.9929770
  55.8233190  77.7068110  53.3978280  58.3023530  77.0004870  53.8866820
  57.9545530  76.3228860  53.3069270  58.5036300  76.5394380  54.7010210
  54.1068730  87.3612670  53.7340420  54.5443600  87.9042340  54.3898000
  54.5916460  86.5359620  53.7436760  51.3214530  90.1501700  61.1860680
  51.6517540  89.2822760  60.9539320  51.7505530  90.3560220  62.0165640
  55.9176450  88.4810710  58.8462650  55.6171990  88.3575680  59.7466560
  55.8113940  87.6219300  58.4378380  68.6868370  88.2607110  53.5489330
  67.8561330  88.3283760  54.0196560  68.8640200  89.1511230  53.2456190
  68.1424830  85.0054590  56.0523530  68.9043740  85.5751240  56.1583220
  68.1579200  84.4381790  56.8231840  51.6429170  83.5292520  60.2831190
  50.9878010  83.2604160  59.6390890  52.4807120  83.4197000  59.8333170
  69.1484800  85.8604690  60.8965460  69.5193630  85.0772010  60.4901430
  69.7886730  86.5493790  60.7182760  68.1944000  85.2988960  53.2096050
  68.4692840  86.2067840  53.0815270  68.0054740  85.2351490  54.1458040
  64.5919610  78.3233810  54.5049680  65.0104490  78.1364790  53.6646340
  64.2855670  77.4712860  54.8152610  68.0909340  83.2357950  58.2025480
  67.7152940  82.4685880  57.7706770  67.3612460  83.6180650  58.6900410
  52.6805100  83.9145090  64.8234530  53.0478140  83.8272490  65.7030550
  52.1115920  83.1511640  64.7241390  50.8567250  80.7391450  56.2256520
  49.9531330  81.0021650  56.0508180  51.3407870  81.0102620  55.4456480
  67.3660300  81.4615440  61.5032720  67.8897780  80.9678090  60.8722890
  67.9519720  81.5965800  62.2480290  67.5450020  81.5455310  65.0252270
  66.5952730  81.5118850  65.1397260  67.7263030  82.4555420  64.7902040
  53.3994460  79.7956990  54.1350900  54.1086160  79.3740210  53.6498180
  52.6834400  79.8632220  53.5034250  53.0468620  75.8496320  53.1753550
  53.7696750  76.3905260  53.4934770  53.3193140  75.5759740  52.2995090
  66.8560270  80.7188790  57.4425130  67.3519390  80.4859660  58.2274010
  66.6576340  79.8800630  57.0262770  52.7360810  75.1002510  63.0776170
  53.3837000  74.5499890  62.6371330  53.1562650  75.3545660  63.8991980
  68.2847430  79.3549740  59.9762810  68.1746710  79.2005780  60.9145080
  69.0455020  78.8270680  59.7338220  69.1737700  77.1857660  53.2168950
  70.0987010  77.0538840  53.0087240  69.1513490  77.2650480  54.1705400
  69.2476190  77.9568320  55.8425660  68.4527690  77.8913440  56.3718570
  69.4519470  78.8918960  55.8311010  57.7963210  89.9837370  65.5864400
  57.5554570  90.2511930  64.6994920  58.7365850  90.1543100  65.6415260
  63.3800230  74.6672260  65.3082490  62.5060070  75.0007370  65.1055420
  63.2710980  74.1945440  66.1334360  53.5657440  88.7398410  66.0560500
  52.8391500  88.1203700  65.9886450  53.6266590  89.1339020  65.1858580
  61.1275050  75.5842100  64.2475400  60.3446840  76.0587600  64.5272160
  60.8337980  74.6796930  64.1388580  65.6796120  76.2865200  62.2924490
  66.1204210  76.2310300  61.4446090  65.4103710  77.2023210  62.3634670
  67.5434690  75.9180440  60.3033310  67.4823090  74.9741660  60.1564330
  68.3226720  76.0260530  60.8486770  52.4715460  75.8889580  56.7689120
  53.2294820  76.0018460  56.1953150  52.0092630  76.7258780  56.7232550
  59.0129270  78.0028850  59.7591430  58.2003780  77.6285740  59.4187310
  59.5170910  77.2473930  60.0612620  63.5154250  74.6671300  60.9974500
  64.1183620  75.2391510  61.4723020  62.7747240  75.2310740  60.7748400
  66.6588850  75.0692860  56.2714780  66.8539480  75.9676310  56.5382210
  65.8718720  74.8379940  56.7647730  54.8440610  76.4153630  55.3091090
  55.3733370  75.6283430  55.1799040  55.4768930  77.0944820  55.5426620
  57.0378450  76.1528770  58.3636480  56.4081190  75.4516080  58.5306610
  56.4983590  76.9132900  58.1469640  55.2157900  88.8153140  55.5902980
  54.5866780  89.2838240  56.1388810  55.3305730  87.9702360  56.0249170
  62.6707620  82.8658800  41.7404180  62.5901670  81.9513410  41.4695890
  62.2572040  83.3625870  41.0343890  60.8025660  84.6437820  43.6213450
  60.0267760  84.1638260  43.9112020  61.4538590  83.9643470  43.4469610
  54.8191490  84.9557630  44.4989210  53.9876370  84.7006340  44.8985720
  55.4272470  85.0268400  45.2347130  64.8233090  89.0498010  42.4012580
  64.3614620  88.2785250  42.7299750  65.6358640  89.0764080  42.9065030
  54.7992750  88.9897720  44.6947230  55.1020790  88.0995460  44.5157450
  55.5436340  89.5467940  44.4669480  53.2283440  79.9159520  38.2831600
  52.3400140  80.2575490  38.1811480  53.5124630  79.7159840  37.3912430
  51.1916450  82.5165170  44.1671300  51.7632560  81.7487370  44.1674940
  51.1917990  82.8153930  43.2577910  60.2434650  87.3195010  43.6283610
  60.1742930  86.3784950  43.4672740  61.0054510  87.4096420  44.2006180
  52.4341320  77.9249530  45.9540230  52.2544160  77.0275280  46.2342990
  52.0321400  78.4721400  46.6287180  61.2739820  80.1265390  43.8552540
  61.6504640  79.2537270  43.7426210  61.1759330  80.4624090  42.9642980
  55.4044830  78.4991020  39.3169980  55.5111580  79.3994750  39.6238740
  54.4937190  78.4508990  39.0264630  65.0563940  77.6215830  40.7880880
  65.8773560  77.1312400  40.8306360  65.0898020  78.2113490  41.5412720
  53.0527990  80.4210030  44.5622570  53.7338100  80.6848400  45.1809970
  52.7376040  79.5810900  44.8960580  57.2452560  81.4677390  43.6495160
  57.7530780  81.9658360  44.2900180  57.7765800  80.6912590  43.4734520
  69.3463490  79.6382580  47.3524510  68.6415660  80.0264290  46.8339620
  69.6121410  80.3332870  47.9545440  55.5288660  76.1075950  47.9158580
  55.5307100  76.6248340  47.1104480  54.6992970  75.6306130  47.8928510
  61.9159750  86.2195260  39.4148480  61.2977020  86.6844710  38.8511200
  62.4283000  86.9122740  39.8317990  56.7791510  85.7471130  46.0932080
  56.4460890  86.3740050  46.7353150  56.9558190  86.2733010  45.3133750
  65.2925420  79.5616210  43.5608420  64.5880990  79.8501100  44.1411530
  65.6537580  80.3716320  43.2007980  55.2103990  77.8185910  45.9229030
  55.5520800  78.6627960  45.6282900  54.2719800  77.9669650  46.0394370
  55.9910610  87.7151930  47.9081260  56.6084610  88.3903010  47.6265710
  55.1303730  88.1239910  47.8168760  51.2842950  86.9051790  36.7888110
  50.9070930  87.3938890  36.0573010  51.5416020  87.5777070  37.4194640
  66.9088200  89.1791340  45.8235900  66.2251720  89.8490450  45.8152570
  67.4482490  89.3771990  45.0580760  68.3612340  79.0071000  43.9517630
  67.4137250  79.0409980  44.0833060  68.6862330  79.8209950  44.3366990
  58.8931880  75.3068180  42.2473620  59.2006860  74.7515070  41.5309120
  57.9632580  75.4412640  42.0646610  65.7392360  87.7451690  39.6271250
  65.6288690  86.8026020  39.7520670  65.7360610  88.1067330  40.5134010
  63.8432380  85.9265310  45.8663690  64.2601170  85.7125420  45.0317150
  64.5672200  86.1838100  46.4372310  61.2812640  83.3717010  38.9833740
  60.3541920  83.3054390  39.2122210  61.4337460  84.3097140  38.8688980
  61.2681720  79.6434010  35.9800900  60.3285390  79.8047970  36.0653360
  61.5864980  80.3619690  35.4336890  67.7894480  84.3252530  45.9579930
  66.9613110  84.3945620  45.4830060  68.3844960  84.9106840  45.4895760
  65.3109930  84.9337310  39.4868990  64.6922350  84.5956860  38.8395290
  65.2934380  84.2897070  40.1948180  64.7536490  81.1121850  46.9034800
  64.3407670  81.9375560  47.1574790  64.0212440  80.5266890  46.7111160
  56.8869280  83.8981750  41.7653470  56.4826280  83.1859000  41.2699370
  56.9732400  83.5534990  42.6541510  57.3550980  87.5849310  43.9292680
  57.0579270  86.9794780  43.2500460  58.3050800  87.6226620  43.8182040
  55.5997900  80.6724960  45.5452510  56.1512490  80.7820300  44.7705760
  56.1141410  81.0462560  46.2607740  56.4469410  87.3231000  50.5800480
  55.5497940  87.5470970  50.8273880  56.4722280  87.4465940  49.6311880
  63.4874630  84.1724120  36.4941740  63.9267910  83.3346550  36.3479560
  64.2003050  84.8053520  36.5805880  55.2740630  84.1944320  49.1557850
  55.1348400  85.0667120  49.5245250  54.3921990  83.8517130  49.0105790
  61.5970010  89.1120190  40.4622980  62.0365920  89.8544520  40.0478370
  61.5356900  89.3546760  41.3861940  57.0720980  90.1366020  51.3643000
  57.0436410  90.5408970  50.4971430  56.9085950  89.2076380  51.2014600
  67.0691770  75.4266930  34.8082780  66.7564430  75.5193760  35.7081850
  67.8304240  76.0047960  34.7580210  53.5873910  82.7926730  39.2660120
  53.4671510  83.5188820  38.6541390  53.2774800  82.0229640  38.7888030
  51.2259280  85.9641870  45.0728760  51.3039700  86.0990640  44.1284480
  51.8400960  85.2557760  45.2656880  52.4706910  87.6642060  41.4834940
  52.0634990  87.8056650  40.6288540  53.3619920  87.3802220  41.2806150
  68.4269050  88.1105970  49.8207180  68.5532110  87.8717850  48.9024360
  68.4690430  87.2790510  50.2929260  63.9666320  89.6076870  36.3783990
  63.2731480  89.6054160  35.7186270  64.7089180  89.1836190  35.9478160
  68.2793060  80.1638430  50.7856920  67.6637330  80.6718100  50.2572380
  67.9589480  79.2636760  50.7282860  51.2818800  87.0056040  47.6123220
  51.4449840  86.5361400  46.7942590  51.7471250  86.4979600  48.2772060
  56.0537570  76.1361800  42.6483790  55.6105720  76.9171340  42.3168310
  56.6122560  76.4591690  43.3554730  60.3407380  79.0030320  48.2519110
  59.8786750  79.2113340  49.0639050  59.9385490  78.1889670  47.9489780
  65.3411890  80.2239270  49.3815770  64.4905480  79.9245020  49.7024840
  65.1813680  80.4681280  48.4699590  62.4361600  81.7241020  51.4814560
  62.7615010  80.8904770  51.1416790  63.2241930  82.2469540  51.6292890
  59.1696390  75.7572500  37.5289620  58.5450570  75.7532370  38.2542930
  59.0826510  74.8903460  37.1325590  58.0913470  76.6809130  44.5073390
  58.3885800  77.5871960  44.4265410  58.6399030  76.1927910  43.8932960
  55.8451790  81.2595370  40.3765040  55.6192710  81.0432540  41.2811660
  55.0644320  81.6923830  40.0311010  63.0749550  81.2658740  38.9755690
  62.4758440  81.9894540  38.7919310  63.6229160  81.2035520  38.1932140
  58.2851000  82.1580950  51.0425310  58.1894600  81.2175680  50.8925710
  59.1282980  82.3796020  50.6473380  61.6814420  79.9022280  41.0058970
  62.0743990  80.2194480  40.1927660  62.0431270  79.0234160  41.1203490
  53.4161540  78.5694620  49.1959090  53.0224930  79.4169830  49.4031870
  52.7279940  77.9320990  49.3867730  59.9906590  78.6529590  52.2655830
  59.3004910  78.4601790  52.9001920  60.7338890  78.9364230  52.7980130
  50.7178590  76.4923080  43.2289170  50.4291640  77.0625940  43.9414150
  51.4624350  76.0127530  43.5920400  50.9048820  80.4343200  34.4391890
  50.8223490  81.3773960  34.5806880  50.5531880  80.2918110  33.5604240
  62.2669560  82.4928030  45.1009750  61.5350680  83.0014840  45.4499850
  61.8693900  81.6758010  44.7998530  58.7046950  79.1682230  43.5062240
  58.7083010  78.7272180  42.6566780  59.5998070  79.4899560  43.6134060
  54.5549330  79.0508720  42.4656450  54.2149380  79.5283950  43.2223500
  53.7926650  78.5973840  42.1057550  58.7667100  80.1694310  36.4969000
  58.8879920  80.1280790  37.4454820  58.3815610  81.0318460  36.3415730
  62.7295470  77.9461710  44.5132690  62.7468210  78.3970360  45.3574540
  62.4811050  77.0467350  44.7266130  57.7788600  82.4795450  35.8952300
  57.2105500  82.0313700  35.2688210  58.4877600  82.8388230  35.3617450
  66.1566220  75.3593890  50.3519070  66.4811990  74.6283550  50.8777050
  66.1922730  75.0407530  49.4500060  52.8557780  86.3807470  49.7719030
  52.4712570  85.7401140  50.3701990  53.1669970  87.0843590  50.3413760
  59.0054920  83.2284010  45.2527650  59.3725050  82.7542580  45.9988990
  58.8159980  84.1025580  45.5935990  51.8695410  77.9727700  41.3821120
  51.5842330  77.6083370  42.2199740  51.8074270  77.2408160  40.7684260
  56.7954290  82.2692650  47.5711860  56.4911360  83.1484630  47.7962220
  57.7500750  82.3292440  47.6069300  55.3236080  86.4753640  38.1678710
  54.5498340  85.9351260  38.0077430  56.0530710  85.9560250  37.8296470
  66.0824060  85.4719000  43.9605100  66.8023180  85.9674290  43.5701210
  65.8805880  84.7936890  43.3158970  61.5434000  76.8656960  38.1034490
  60.7298610  76.3670130  38.0279800  61.3495950  77.7055210  37.6870840
  61.4642860  85.5428060  49.8474100  61.3980170  84.6223730  49.5931690
  60.8348000  85.6403500  50.5618740  64.2582390  81.2376610  36.3996650
  65.1462010  81.5493840  36.2247990  64.2287480  80.3648860  36.0077230
  55.3673480  86.1434020  41.8057520  55.8852150  85.3402280  41.7514410
  54.9157500  86.0813160  42.6474350  60.2542980  87.4100300  37.0784820
  60.5958680  88.1542530  36.5828140  59.4255690  87.7231420  37.4409650
  52.8518020  83.1095390  48.7183220  52.4932960  83.7749240  49.3056560
  52.5572580  82.2778940  49.0895840  56.0531140  83.5679630  51.6022770
  55.7531280  83.7136810  50.7050590  56.8242380  83.0084920  51.5096160
  61.3959590  88.3648630  49.5977900  61.4104130  87.4329590  49.3796810
  60.6884690  88.4508390  50.2367670  66.5296660  82.5488450  35.8676510
  66.4460380  82.9802670  35.0172950  67.2490850  83.0086800  36.3003330
  67.6070800  85.0055970  48.9446480  66.8818990  85.5984750  48.7475870
  68.1346260  84.9979510  48.1459850  67.5583910  89.4030710  38.5958640
  66.9160070  88.7486330  38.8702360  67.1714570  89.8085800  37.8199310
  63.1370390  86.7316140  42.4430330  63.4894210  86.1344270  41.7831700
  62.2532720  86.4060370  42.6138580  59.2233670  87.4913830  39.8500740
  59.9104800  88.0383040  40.2308330  58.4366090  88.0354560  39.8850350
  51.3626070  83.1086650  35.3417820  52.2320920  83.3911450  35.6253740
  50.8716390  83.9222520  35.2266630  58.5260880  84.4959860  39.4626100
  58.9823660  85.3065110  39.6886290  58.1749090  84.1783000  40.2944590
  60.8293490  90.0066200  46.6918400  61.4735710  90.2125580  47.3691820
  61.1922930  89.2454600  46.2389250  54.4272660  74.8397510  39.9348620
  54.2987290  74.8315410  40.8833540  53.6034680  75.1780600  39.5839630
  62.1025570  88.0098550  45.4095850  62.7447800  87.3091710  45.5228020
  62.6274920  88.7896990  45.2292740  65.9481290  88.2947170  35.1334990
  65.7218870  87.5777610  35.7259630  65.5577490  88.0459610  34.2956740
  63.8763190  88.8093450  48.6131910  64.2119430  89.3960140  49.2909830
  62.9563530  88.6786160  48.8429700  51.4266590  76.5988630  49.3955320
  50.7125110  76.7985550  50.0007930  51.8461630  75.8228200  49.7670120
  65.5297540  86.2119110  36.7949150  65.2419240  86.6731800  37.5827030
  66.3249710  85.7516880  37.0633370  51.7139180  90.5868890  50.3821850
  51.8230300  89.6463630  50.2417240  51.0619740  90.8523640  49.7335580
  59.7051770  88.8584780  51.7819970  59.3848640  88.1394020  52.3265660
  59.0310130  89.5339850  51.8556030  57.7465940  89.7045230  36.7253120
  57.7376040  90.4374920  36.1097630  56.8264300  89.4576810  36.8180080
  53.3472580  84.9260120  37.4699880  52.7400530  85.6659020  37.4795180
  53.8221930  85.0159480  36.6438080  62.9205370  79.0910940  47.1456770
  63.2886190  78.2706150  47.4736340  62.0603570  79.1512830  47.5612420
  66.2867400  78.0467880  37.9544330  65.6580560  78.1513550  37.2402560
  65.7919320  78.2664660  38.7438210  60.7325540  89.7673470  35.3878310
  60.8337520  89.5637460  34.4580290  59.8327280  89.5131750  35.5926090
  58.2551430  80.3253830  39.3702210  57.5467580  80.7940170  39.8115820
  58.5395910  79.6675840  40.0047400  59.8807360  81.7450530  47.3694740
  60.3792610  82.2196350  48.0346590  60.0230310  80.8214050  47.5764770
  62.2866860  77.0504490  40.8098000  62.1634640  77.0690620  39.8607510
  63.2351420  77.0983430  40.9296400  56.4586450  78.6338910  36.7452920
  57.3076980  79.0709060  36.6793110  56.0917720  78.9459170  37.5724980
  67.0874220  77.9618490  48.2123130  66.5847820  78.7023890  48.5516940
  67.9030880  78.3502490  47.8959920  65.3796230  83.2051670  41.6584490
  64.4386370  83.2201900  41.8332180  65.6940300  82.4187630  42.1044790
  55.3577870  84.8871270  35.2188450  56.1241140  84.7752630  35.7813880
  55.4352560  84.1909240  34.5665220  54.0524630  82.3196340  35.9021340
  54.1328220  81.3723850  36.0138740  54.9444380  82.6503220  36.0082000
  51.7384820  88.5365300  38.8797390  50.8124600  88.7786440  38.8702800
  52.2041250  89.3639560  38.7582140  62.6962250  87.7617670  52.1416870
  62.0900410  87.7849270  51.4012620  62.3916360  87.0300710  52.6784120
  51.5795430  84.1411260  51.1377510  52.0834450  83.5618540  51.7093740
  50.8402850  84.4251490  51.6753880  58.4819050  86.8625450  34.6923800
  58.3769690  86.2477800  35.4185180  58.3143270  86.3391340  33.9086810
  58.6333370  85.5482250  50.6713030  57.8679040  86.1167250  50.5867700
  58.8149330  85.2558460  49.7781260  61.7221780  85.9245480  35.2965790
  61.1731880  86.3714780  35.9408530  62.3441040  85.4194730  35.8203460
  65.7756720  87.2787580  51.2288050  66.5166190  87.6163340  50.7255510
  65.0129400  87.4479640  50.6757820  53.6118510  82.2840850  52.0327580
  53.6523850  81.9854720  52.9412810  54.4664010  82.6848460  51.8735100
  57.3896900  84.8836400  37.1931090  57.8113320  84.7176270  38.0362480
  57.5147740  84.0736630  36.6986230  55.5524320  80.8632950  50.0002070
  55.0220780  80.3723900  49.3725410  56.2212390  81.2917150  49.4660000
  59.9024540  83.9074010  34.4408190  60.4230200  83.1923030  34.0749340
  60.5492940  84.5459880  34.7408700  64.4502380  85.3302410  49.7643260
  64.8643400  85.4847490  50.6133680  63.5153380  85.4557630  49.9269040
  64.9224550  82.6698570  51.7682410  65.5045320  81.9150890  51.6802890
  65.0986320  83.2006010  50.9913890  56.0396620  77.8295320  50.0799360
  55.9453490  77.2116070  49.3550230  55.4594010  78.5561610  49.8529270
  58.8058060  76.3868560  47.1126750  58.3575360  76.4092820  46.2672300
  58.1723260  75.9887580  47.7097050  59.2117610  85.2822890  47.7339190
  59.6305720  86.1255620  47.5615430  58.2926240  85.4194930  47.5045970
  61.5481510  83.0139070  49.1177030  61.6677720  82.4180210  49.8571870
  62.4075510  83.0508760  48.6978330  63.8869410  83.5676260  47.6939540
  63.3604630  84.0918880  47.0904680  64.2300750  84.2003650  48.3249270
  56.2855800  80.9569630  34.1389250  56.0844860  80.0936990  34.5002590
  56.1147850  80.8702990  33.2010850  58.3150280  79.5560420  50.3752850
  58.9049970  79.2476270  51.0630670  57.4970520  79.0840170  50.5312750
  63.1343710  79.1726230  50.6085870  62.4459230  78.5107770  50.5435860
  63.8549730  78.7264500  51.0534330  63.7644110  75.7677860  36.6676130
  64.0446400  74.9245760  37.0235550  62.9909840  76.0000970  37.1814880
  55.0838600  78.0570250  34.1267130  55.3864500  78.0637680  33.2186280
  55.8233190  77.7068110  34.6234790  58.3023530  77.0004870  35.1123330
  57.9545530  76.3228860  34.5325780  58.5036300  76.5394380  35.9266720
  54.1068730  87.3612670  34.9596930  54.5443600  87.9042340  35.6154510
  54.5916460  86.5359620  34.9693270  51.3214530  90.1501700  42.4117190
  51.6517540  89.2822760  42.1795830  51.7505530  90.3560220  43.2422150
  55.9176450  88.4810710  40.0719160  55.6171990  88.3575680  40.9723070
  55.8113940  87.6219300  39.6634890  67.4466920  90.5189290  49.4376130
  66.8468910  90.5781850  48.6940050  67.5760820  89.5794270  49.5672980
  68.6868370  88.2607110  34.7745840  67.8561330  88.3283760  35.2453070
  68.8640200  89.1511230  34.4712700  68.1424830  85.0054590  37.2780040
  68.9043740  85.5751240  37.3839730  68.1579200  84.4381790  38.0488350
  51.6429170  83.5292520  41.5087700  50.9878010  83.2604160  40.8647400
  52.4807120  83.4197000  41.0589680  69.1484800  85.8604690  42.1221970
  69.5193630  85.0772010  41.7157940  69.7886730  86.5493790  41.9439270
  66.1318560  87.2441270  47.5352290  65.3178400  87.6738430  47.7978080
  66.5392760  87.8559680  46.9221340  68.1944000  85.2988960  34.4352560
  68.4692840  86.2067840  34.3071780  68.0054740  85.2351490  35.3714550
  64.5919610  78.3233810  35.7306190  65.0104490  78.1364790  34.8902850
  64.2855670  77.4712860  36.0409120  68.0909340  83.2357950  39.4281990
  67.7152940  82.4685880  38.9963280  67.3612460  83.6180650  39.9156920
  52.6805100  83.9145090  46.0491040  53.0478140  83.8272490  46.9287060
  52.1115920  83.1511640  45.9497900  67.4808960  82.3829470  49.0621510
  67.2495050  82.1542220  48.1619460  67.7413510  83.3029020  49.0166400
  52.2321100  80.8254180  49.9549460  51.3377150  80.7920940  50.2943170
  52.7718650  81.0240970  50.7200710  65.9197030  77.6085900  51.8401210
  66.7967210  77.6169300  52.2235210  65.9317870  76.8716740  51.2293560
  50.8567250  80.7391450  37.4513030  49.9531330  81.0021650  37.2764690
  51.3407870  81.0102620  36.6712990  67.3660300  81.4615440  42.7289230
  67.8897780  80.9678090  42.0979400  67.9519720  81.5965800  43.4736800
  67.5450020  81.5455310  46.2508780  66.5952730  81.5118850  46.3653770
  67.7263030  82.4555420  46.0158550  53.3994460  79.7956990  35.3607410
  54.1086160  79.3740210  34.8754690  52.6834400  79.8632220  34.7290760
  53.0468620  75.8496320  34.4010060  53.7696750  76.3905260  34.7191280
  53.3193140  75.5759740  33.5251600  66.8560270  80.7188790  38.6681640
  67.3519390  80.4859660  39.4530520  66.6576340  79.8800630  38.2519280
  52.7360810  75.1002510  44.3032680  53.3837000  74.5499890  43.8627840
  53.1562650  75.3545660  45.1248490  68.2847430  79.3549740  41.2019320
  68.1746710  79.2005780  42.1401590  69.0455020  78.8270680  40.9594730
  66.6313150  75.2943870  47.6602320  67.2685370  75.9078010  48.0261510
  66.7788040  75.3304530  46.7151550  69.1737700  77.1857660  34.4425460
  70.0987010  77.0538840  34.2343750  69.1513490  77.2650480  35.3961910
  69.2476190  77.9568320  37.0682170  68.4527690  77.8913440  37.5975080
  69.4519470  78.8918960  37.0567520  52.4892810  75.2558180  47.0458000
  52.1407630  75.7122000  47.8116180  52.1580510  74.3615310  47.1280430
  54.0957180  88.4277780  51.2111190  54.0526810  88.0570690  52.0925650
  54.2268190  89.3655350  51.3513010  57.7963210  89.9837370  46.8120910
  57.5554570  90.2511930  45.9251430  58.7365850  90.1543100  46.8671770
  60.0017630  76.4470060  50.5677420  59.9406520  77.0391890  51.3172830
  60.9418010  76.3396020  50.4227680  62.6392190  76.1040120  50.2069710
  63.2532600  76.4219410  49.5450790  63.1841750  75.6188710  50.8265570
  53.1613450  74.7834380  50.3208770  53.7096440  74.6022430  49.5574880
  53.2268760  73.9928490  50.8565080  63.3800230  74.6672260  46.5339000
  62.5060070  75.0007370  46.3311930  63.2710980  74.1945440  47.3590870
  64.2872210  76.8743130  47.9180720  63.9585570  76.0594890  47.5382450
  65.2354510  76.8312940  47.7946410  53.5657440  88.7398410  47.2817010
  52.8391500  88.1203700  47.2142960  53.6266590  89.1339020  46.4115090
  61.1275050  75.5842100  45.4731910  60.3446840  76.0587600  45.7528670
  60.8337980  74.6796930  45.3645090  65.6796120  76.2865200  43.5181000
  66.1204210  76.2310300  42.6702600  65.4103710  77.2023210  43.5891180
  67.5434690  75.9180440  41.5289820  67.4823090  74.9741660  41.3820840
  68.3226720  76.0260530  42.0743280  52.4715460  75.8889580  37.9945630
  53.2294820  76.0018460  37.4209660  52.0092630  76.7258780  37.9489060
  59.0129270  78.0028850  40.9847940  58.2003780  77.6285740  40.6443820
  59.5170910  77.2473930  41.2869130  63.5154250  74.6671300  42.2231010
  64.1183620  75.2391510  42.6979530  62.7747240  75.2310740  42.0004910
  66.6588850  75.0692860  37.4971290  66.8539480  75.9676310  37.7638720
  65.8718720  74.8379940  37.9904240  54.8440610  76.4153630  36.5347600
  55.3733370  75.6283430  36.4055550  55.4768930  77.0944820  36.7683130
  57.0378450  76.1528770  39.5892990  56.4081190  75.4516080  39.7563120
  56.4983590  76.9132900  39.3726150  57.1634010  75.4312750  52.0245480
  56.8818280  75.9346350  51.2606300  57.5453710  74.6334500  51.6587610
  55.2157900  88.8153140  36.8159490  54.5866780  89.2838240  37.3645320
  55.3305730  87.9702360  37.2505680  63.7649470  74.8466330  52.6025950
  63.6514920  75.1660940  53.4977470  64.5819210  75.2478840  52.3063230
  62.6707620  82.8658800  22.9660690  62.5901670  81.9513410  22.6952400
  62.2572040  83.3625870  22.2600400  60.8025660  84.6437820  24.8469960
  60.0267760  84.1638260  25.1368530  61.4538590  83.9643470  24.6726120
  54.8191490  84.9557630  25.7245720  53.9876370  84.7006340  26.1242230
  55.4272470  85.0268400  26.4603640  64.8233090  89.0498010  23.6269090
  64.3614620  88.2785250  23.9556260  65.6358640  89.0764080  24.1321540
  54.7992750  88.9897720  25.9203740  55.1020790  88.0995460  25.7413960
  55.5436340  89.5467940  25.6925990  53.2283440  79.9159520  19.5088110
  52.3400140  80.2575490  19.4067990  53.5124630  79.7159840  18.6168940
  51.1916450  82.5165170  25.3927810  51.7632560  81.7487370  25.3931450
  51.1917990  82.8153930  24.4834420  60.2434650  87.3195010  24.8540120
  60.1742930  86.3784950  24.6929250  61.0054510  87.4096420  25.4262690
  52.4341320  77.9249530  27.1796740  52.2544160  77.0275280  27.4599500
  52.0321400  78.4721400  27.8543690  61.2739820  80.1265390  25.0809050
  61.6504640  79.2537270  24.9682720  61.1759330  80.4624090  24.1899490
  55.4044830  78.4991020  20.5426490  55.5111580  79.3994750  20.8495250
  54.4937190  78.4508990  20.2521140  65.0563940  77.6215830  22.0137390
  65.8773560  77.1312400  22.0562870  65.0898020  78.2113490  22.7669230
  53.0527990  80.4210030  25.7879080  53.7338100  80.6848400  26.4066480
  52.7376040  79.5810900  26.1217090  57.2452560  81.4677390  24.8751670
  57.7530780  81.9658360  25.5156690  57.7765800  80.6912590  24.6991030
  69.3463490  79.6382580  28.5781020  68.6415660  80.0264290  28.0596130
  69.6121410  80.3332870  29.1801950  55.5288660  76.1075950  29.1415090
  55.5307100  76.6248340  28.3360990  54.6992970  75.6306130  29.1185020
  61.9159750  86.2195260  20.6404990  61.2977020  86.6844710  20.0767710
  62.4283000  86.9122740  21.0574500  56.7791510  85.7471130  27.3188590
  56.4460890  86.3740050  27.9609660  56.9558190  86.2733010  26.5390260
  65.2925420  79.5616210  24.7864930  64.5880990  79.8501100  25.3668040
  65.6537580  80.3716320  24.4264490  55.2103990  77.8185910  27.1485540
  55.5520800  78.6627960  26.8539410  54.2719800  77.9669650  27.2650880
  55.9910610  87.7151930  29.1337770  56.6084610  88.3903010  28.8522220
  55.1303730  88.1239910  29.0425270  51.2842950  86.9051790  18.0144620
  50.9070930  87.3938890  17.2829520  51.5416020  87.5777070  18.6451150
  66.9088200  89.1791340  27.0492410  66.2251720  89.8490450  27.0409080
  67.4482490  89.3771990  26.2837270  68.3612340  79.0071000  25.1774140
  67.4137250  79.0409980  25.3089570  68.6862330  79.8209950  25.5623500
  58.8931880  75.3068180  23.4730130  59.2006860  74.7515070  22.7565630
  57.9632580  75.4412640  23.2903120  65.7392360  87.7451690  20.8527760
  65.6288690  86.8026020  20.9777180  65.7360610  88.1067330  21.7390520
  63.8432380  85.9265310  27.0920200  64.2601170  85.7125420  26.2573660
  64.5672200  86.1838100  27.6628820  61.2812640  83.3717010  20.2090250
  60.3541920  83.3054390  20.4378720  61.4337460  84.3097140  20.0945490
  61.2681720  79.6434010  17.2057410  60.3285390  79.8047970  17.2909870
  61.5864980  80.3619690  16.6593400  67.7894480  84.3252530  27.1836440
  66.9613110  84.3945620  26.7086570  68.3844960  84.9106840  26.7152270
  65.3109930  84.9337310  20.7125500  64.6922350  84.5956860  20.0651800
  65.2934380  84.2897070  21.4204690  64.7536490  81.1121850  28.1291310
  64.3407670  81.9375560  28.3831300  64.0212440  80.5266890  27.9367670
  56.8869280  83.8981750  22.9909980  56.4826280  83.1859000  22.4955880
  56.9732400  83.5534990  23.8798020  57.3550980  87.5849310  25.1549190
  57.0579270  86.9794780  24.4756970  58.3050800  87.6226620  25.0438550
  55.5997900  80.6724960  26.7709020  56.1512490  80.7820300  25.9962270
  56.1141410  81.0462560  27.4864250  56.4469410  87.3231000  31.8056990
  55.5497940  87.5470970  32.0530390  56.4722280  87.4465940  30.8568390
  63.4874630  84.1724120  17.7198250  63.9267910  83.3346550  17.5736070
  64.2003050  84.8053520  17.8062390  55.2740630  84.1944320  30.3814360
  55.1348400  85.0667120  30.7501760  54.3921990  83.8517130  30.2362300
  61.5970010  89.1120190  21.6879490  62.0365920  89.8544520  21.2734880
  61.5356900  89.3546760  22.6118450  57.0720980  90.1366020  32.5899510
  57.0436410  90.5408970  31.7227940  56.9085950  89.2076380  32.4271110
  67.0691770  75.4266930  16.0339290  66.7564430  75.5193760  16.9338360
  67.8304240  76.0047960  15.9836720  53.5873910  82.7926730  20.4916630
  53.4671510  83.5188820  19.8797900  53.2774800  82.0229640  20.0144540
  51.2259280  85.9641870  26.2985270  51.3039700  86.0990640  25.3540990
  51.8400960  85.2557760  26.4913390  52.4706910  87.6642060  22.7091450
  52.0634990  87.8056650  21.8545050  53.3619920  87.3802220  22.5062660
  68.4269050  88.1105970  31.0463690  68.5532110  87.8717850  30.1280870
  68.4690430  87.2790510  31.5185770  63.9666320  89.6076870  17.6040500
  63.2731480  89.6054160  16.9442780  64.7089180  89.1836190  17.1734670
  68.2793060  80.1638430  32.0113430  67.6637330  80.6718100  31.4828890
  67.9589480  79.2636760  31.9539370  51.2818800  87.0056040  28.8379730
  51.4449840  86.5361400  28.0199100  51.7471250  86.4979600  29.5028570
  56.0537570  76.1361800  23.8740300  55.6105720  76.9171340  23.5424820
  56.6122560  76.4591690  24.5811240  60.3407380  79.0030320  29.4775620
  59.8786750  79.2113340  30.2895560  59.9385490  78.1889670  29.1746290
  65.3411890  80.2239270  30.6072280  64.4905480  79.9245020  30.9281350
  65.1813680  80.4681280  29.6956100  62.4361600  81.7241020  32.7071070
  62.7615010  80.8904770  32.3673300  63.2241930  82.2469540  32.8549400
  59.1696390  75.7572500  18.7546130  58.5450570  75.7532370  19.4799440
  59.0826510  74.8903460  18.3582100  58.0913470  76.6809130  25.7329900
  58.3885800  77.5871960  25.6521920  58.6399030  76.1927910  25.1189470
  55.8451790  81.2595370  21.6021550  55.6192710  81.0432540  22.5068170
  55.0644320  81.6923830  21.2567520  63.0749550  81.2658740  20.2012200
  62.4758440  81.9894540  20.0175820  63.6229160  81.2035520  19.4188650
  58.2851000  82.1580950  32.2681820  58.1894600  81.2175680  32.1182220
  59.1282980  82.3796020  31.8729890  61.6814420  79.9022280  22.2315480
  62.0743990  80.2194480  21.4184170  62.0431270  79.0234160  22.3460000
  53.4161540  78.5694620  30.4215600  53.0224930  79.4169830  30.6288380
  52.7279940  77.9320990  30.6124240  59.9906590  78.6529590  33.4912340
  59.3004910  78.4601790  34.1258430  60.7338890  78.9364230  34.0236640
  50.7178590  76.4923080  24.4545680  50.4291640  77.0625940  25.1670660
  51.4624350  76.0127530  24.8176910  50.9048820  80.4343200  15.6648400
  50.8223490  81.3773960  15.8063390  50.5531880  80.2918110  14.7860750
  62.2669560  82.4928030  26.3266260  61.5350680  83.0014840  26.6756360
  61.8693900  81.6758010  26.0255040  58.7046950  79.1682230  24.7318750
  58.7083010  78.7272180  23.8823290  59.5998070  79.4899560  24.8390570
  54.5549330  79.0508720  23.6912960  54.2149380  79.5283950  24.4480010
  53.7926650  78.5973840  23.3314060  58.7667100  80.1694310  17.7225510
  58.8879920  80.1280790  18.6711330  58.3815610  81.0318460  17.5672240
  62.7295470  77.9461710  25.7389200  62.7468210  78.3970360  26.5831050
  62.4811050  77.0467350  25.9522640  57.7788600  82.4795450  17.1208810
  57.2105500  82.0313700  16.4944720  58.4877600  82.8388230  16.5873960
  66.1566220  75.3593890  31.5775580  66.4811990  74.6283550  32.1033560
  66.1922730  75.0407530  30.6756570  52.8557780  86.3807470  30.9975540
  52.4712570  85.7401140  31.5958500  53.1669970  87.0843590  31.5670270
  59.0054920  83.2284010  26.4784160  59.3725050  82.7542580  27.2245500
  58.8159980  84.1025580  26.8192500  51.8695410  77.9727700  22.6077630
  51.5842330  77.6083370  23.4456250  51.8074270  77.2408160  21.9940770
  56.7954290  82.2692650  28.7968370  56.4911360  83.1484630  29.0218730
  57.7500750  82.3292440  28.8325810  55.3236080  86.4753640  19.3935220
  54.5498340  85.9351260  19.2333940  56.0530710  85.9560250  19.0552980
  66.0824060  85.4719000  25.1861610  66.8023180  85.9674290  24.7957720
  65.8805880  84.7936890  24.5415480  61.5434000  76.8656960  19.3291000
  60.7298610  76.3670130  19.2536310  61.3495950  77.7055210  18.9127350
  61.4642860  85.5428060  31.0730610  61.3980170  84.6223730  30.8188200
  60.8348000  85.6403500  31.7875250  64.2582390  81.2376610  17.6253160
  65.1462010  81.5493840  17.4504500  64.2287480  80.3648860  17.2333740
  55.3673480  86.1434020  23.0314030  55.8852150  85.3402280  22.9770920
  54.9157500  86.0813160  23.8730860  60.2542980  87.4100300  18.3041330
  60.5958680  88.1542530  17.8084650  59.4255690  87.7231420  18.6666160
  52.8518020  83.1095390  29.9439730  52.4932960  83.7749240  30.5313070
  52.5572580  82.2778940  30.3152350  56.0531140  83.5679630  32.8279280
  55.7531280  83.7136810  31.9307100  56.8242380  83.0084920  32.7352670
  61.3959590  88.3648630  30.8234410  61.4104130  87.4329590  30.6053320
  60.6884690  88.4508390  31.4624180  66.5296660  82.5488450  17.0933020
  66.4460380  82.9802670  16.2429460  67.2490850  83.0086800  17.5259840
  67.6070800  85.0055970  30.1702990  66.8818990  85.5984750  29.9732380
  68.1346260  84.9979510  29.3716360  67.5583910  89.4030710  19.8215150
  66.9160070  88.7486330  20.0958870  67.1714570  89.8085800  19.0455820
  63.1370390  86.7316140  23.6686840  63.4894210  86.1344270  23.0088210
  62.2532720  86.4060370  23.8395090  59.2233670  87.4913830  21.0757250
  59.9104800  88.0383040  21.4564840  58.4366090  88.0354560  21.1106860
  51.3626070  83.1086650  16.5674330  52.2320920  83.3911450  16.8510250
  50.8716390  83.9222520  16.4523140  58.5260880  84.4959860  20.6882610
  58.9823660  85.3065110  20.9142800  58.1749090  84.1783000  21.5201100
  60.8293490  90.0066200  27.9174910  61.4735710  90.2125580  28.5948330
  61.1922930  89.2454600  27.4645760  54.4272660  74.8397510  21.1605130
  54.2987290  74.8315410  22.1090050  53.6034680  75.1780600  20.8096140
  62.1025570  88.0098550  26.6352360  62.7447800  87.3091710  26.7484530
  62.6274920  88.7896990  26.4549250  65.9481290  88.2947170  16.3591500
  65.7218870  87.5777610  16.9516140  65.5577490  88.0459610  15.5213250
  63.8763190  88.8093450  29.8388420  64.2119430  89.3960140  30.5166340
  62.9563530  88.6786160  30.0686210  51.4266590  76.5988630  30.6211830
  50.7125110  76.7985550  31.2264440  51.8461630  75.8228200  30.9926630
  65.5297540  86.2119110  18.0205660  65.2419240  86.6731800  18.8083540
  66.3249710  85.7516880  18.2889880  51.7139180  90.5868890  31.6078360
  51.8230300  89.6463630  31.4673750  51.0619740  90.8523640  30.9592090
  59.7051770  88.8584780  33.0076480  59.3848640  88.1394020  33.5522170
  59.0310130  89.5339850  33.0812540  57.7465940  89.7045230  17.9509630
  57.7376040  90.4374920  17.3354140  56.8264300  89.4576810  18.0436590
  53.3472580  84.9260120  18.6956390  52.7400530  85.6659020  18.7051690
  53.8221930  85.0159480  17.8694590  62.9205370  79.0910940  28.3713280
  63.2886190  78.2706150  28.6992850  62.0603570  79.1512830  28.7868930
  66.2867400  78.0467880  19.1800840  65.6580560  78.1513550  18.4659070
  65.7919320  78.2664660  19.9694720  60.7325540  89.7673470  16.6134820
  60.8337520  89.5637460  15.6836800  59.8327280  89.5131750  16.8182600
  58.2551430  80.3253830  20.5958720  57.5467580  80.7940170  21.0372330
  58.5395910  79.6675840  21.2303910  59.8807360  81.7450530  28.5951250
  60.3792610  82.2196350  29.2603100  60.0230310  80.8214050  28.8021280
  62.2866860  77.0504490  22.0354510  62.1634640  77.0690620  21.0864020
  63.2351420  77.0983430  22.1552910  56.4586450  78.6338910  17.9709430
  57.3076980  79.0709060  17.9049620  56.0917720  78.9459170  18.7981490
  67.0874220  77.9618490  29.4379640  66.5847820  78.7023890  29.7773450
  67.9030880  78.3502490  29.1216430  65.3796230  83.2051670  22.8841000
  64.4386370  83.2201900  23.0588690  65.6940300  82.4187630  23.3301300
  55.3577870  84.8871270  16.4444960  56.1241140  84.7752630  17.0070390
  55.4352560  84.1909240  15.7921730  54.0524630  82.3196340  17.1277850
  54.1328220  81.3723850  17.2395250  54.9444380  82.6503220  17.2338510
  51.7384820  88.5365300  20.1053900  50.8124600  88.7786440  20.0959310
  52.2041250  89.3639560  19.9838650  62.6962250  87.7617670  33.3673380
  62.0900410  87.7849270  32.6269130  62.3916360  87.0300710  33.9040630
  51.5795430  84.1411260  32.3634020  52.0834450  83.5618540  32.9350250
  50.8402850  84.4251490  32.9010390  58.4819050  86.8625450  15.9180310
  58.3769690  86.2477800  16.6441690  58.3143270  86.3391340  15.1343320
  58.6333370  85.5482250  31.8969540  57.8679040  86.1167250  31.8124210
  58.8149330  85.2558460  31.0037770  61.7221780  85.9245480  16.5222300
  61.1731880  86.3714780  17.1665040  62.3441040  85.4194730  17.0459970
  65.7756720  87.2787580  32.4544560  66.5166190  87.6163340  31.9512020
  65.0129400  87.4479640  31.9014330  53.6118510  82.2840850  33.2584090
  53.6523850  81.9854720  34.1669320  54.4664010  82.6848460  33.0991610
  57.3896900  84.8836400  18.4187600  57.8113320  84.7176270  19.2618990
  57.5147740  84.0736630  17.9242740  55.5524320  80.8632950  31.2258580
  55.0220780  80.3723900  30.5981920  56.2212390  81.2917150  30.6916510
  59.9024540  83.9074010  15.6664700  60.4230200  83.1923030  15.3005850
  60.5492940  84.5459880  15.9665210  64.4502380  85.3302410  30.9899770
  64.8643400  85.4847490  31.8390190  63.5153380  85.4557630  31.1525550
  64.9224550  82.6698570  32.9938920  65.5045320  81.9150890  32.9059400
  65.0986320  83.2006010  32.2170400  56.0396620  77.8295320  31.3055870
  55.9453490  77.2116070  30.5806740  55.4594010  78.5561610  31.0785780
  58.8058060  76.3868560  28.3383260  58.3575360  76.4092820  27.4928810
  58.1723260  75.9887580  28.9353560  59.2117610  85.2822890  28.9595700
  59.6305720  86.1255620  28.7871940  58.2926240  85.4194930  28.7302480
  61.5481510  83.0139070  30.3433540  61.6677720  82.4180210  31.0828380
  62.4075510  83.0508760  29.9234840  63.8869410  83.5676260  28.9196050
  63.3604630  84.0918880  28.3161190  64.2300750  84.2003650  29.5505780
  56.2855800  80.9569630  15.3645760  56.0844860  80.0936990  15.7259100
  56.1147850  80.8702990  14.4267360  58.3150280  79.5560420  31.6009360
  58.9049970  79.2476270  32.2887180  57.4970520  79.0840170  31.7569260
  63.1343710  79.1726230  31.8342380  62.4459230  78.5107770  31.7692370
  63.8549730  78.7264500  32.2790840  63.7644110  75.7677860  17.8932640
  64.0446400  74.9245760  18.2492060  62.9909840  76.0000970  18.4071390
  55.0838600  78.0570250  15.3523640  55.3864500  78.0637680  14.4442790
  55.8233190  77.7068110  15.8491300  58.3023530  77.0004870  16.3379840
  57.9545530  76.3228860  15.7582290  58.5036300  76.5394380  17.1523230
  54.1068730  87.3612670  16.1853440  54.5443600  87.9042340  16.8411020
  54.5916460  86.5359620  16.1949780  51.3214530  90.1501700  23.6373700
  51.6517540  89.2822760  23.4052340  51.7505530  90.3560220  24.4678660
  55.9176450  88.4810710  21.2975670  55.6171990  88.3575680  22.1979580
  55.8113940  87.6219300  20.8891400  67.4466920  90.5189290  30.6632640
  66.8468910  90.5781850  29.9196560  67.5760820  89.5794270  30.7929490
  68.6868370  88.2607110  16.0002350  67.8561330  88.3283760  16.4709580
  68.8640200  89.1511230  15.6969210  68.1424830  85.0054590  18.5036550
  68.9043740  85.5751240  18.6096240  68.1579200  84.4381790  19.2744860
  51.6429170  83.5292520  22.7344210  50.9878010  83.2604160  22.0903910
  52.4807120  83.4197000  22.2846190  69.1484800  85.8604690  23.3478480
  69.5193630  85.0772010  22.9414450  69.7886730  86.5493790  23.1695780
  66.1318560  87.2441270  28.7608800  65.3178400  87.6738430  29.0234590
  66.5392760  87.8559680  28.1477850  68.1944000  85.2988960  15.6609070
  68.4692840  86.2067840  15.5328290  68.0054740  85.2351490  16.5971060
  64.5919610  78.3233810  16.9562700  65.0104490  78.1364790  16.1159360
  64.2855670  77.4712860  17.2665630  68.0909340  83.2357950  20.6538500
  67.7152940  82.4685880  20.2219790  67.3612460  83.6180650  21.1413430
  52.6805100  83.9145090  27.2747550  53.0478140  83.8272490  28.1543570
  52.1115920  83.1511640  27.1754410  67.4808960  82.3829470  30.2878020
  67.2495050  82.1542220  29.3875970  67.7413510  83.3029020  30.2422910
  52.2321100  80.8254180  31.1805970  51.3377150  80.7920940  31.5199680
  52.7718650  81.0240970  31.9457220  65.9197030  77.6085900  33.0657720
  66.7967210  77.6169300  33.4491720  65.9317870  76.8716740  32.4550070
  50.8567250  80.7391450  18.6769540  49.9531330  81.0021650  18.5021200
  51.3407870  81.0102620  17.8969500  67.3660300  81.4615440  23.9545740
  67.8897780  80.9678090  23.3235910  67.9519720  81.5965800  24.6993310
  67.5450020  81.5455310  27.4765290  66.5952730  81.5118850  27.5910280
  67.7263030  82.4555420  27.2415060  53.3994460  79.7956990  16.5863920
  54.1086160  79.3740210  16.1011200  52.6834400  79.8632220  15.9547270
  53.0468620  75.8496320  15.6266570  53.7696750  76.3905260  15.9447790
  53.3193140  75.5759740  14.7508110  66.8560270  80.7188790  19.8938150
  67.3519390  80.4859660  20.6787030  66.6576340  79.8800630  19.4775790
  52.7360810  75.1002510  25.5289190  53.3837000  74.5499890  25.0884350
  53.1562650  75.3545660  26.3505000  68.2847430  79.3549740  22.4275830
  68.1746710  79.2005780  23.3658100  69.0455020  78.8270680  22.1851240
  66.6313150  75.2943870  28.8858830  67.2685370  75.9078010  29.2518020
  66.7788040  75.3304530  27.9408060  69.1737700  77.1857660  15.6681970
  70.0987010  77.0538840  15.4600260  69.1513490  77.2650480  16.6218420
  69.2476190  77.9568320  18.2938680  68.4527690  77.8913440  18.8231590
  69.4519470  78.8918960  18.2824030  52.4892810  75.2558180  28.2714510
  52.1407630  75.7122000  29.0372690  52.1580510  74.3615310  28.3536940
  54.0957180  88.4277780  32.4367700  54.0526810  88.0570690  33.3182160
  54.2268190  89.3655350  32.5769520  57.7963210  89.9837370  28.0377420
  57.5554570  90.2511930  27.1507940  58.7365850  90.1543100  28.0928280
  60.0017630  76.4470060  31.7933930  59.9406520  77.0391890  32.5429340
  60.9418010  76.3396020  31.6484190  62.6392190  76.1040120  31.4326220
  63.2532600  76.4219410  30.7707300  63.1841750  75.6188710  32.0522080
  53.1613450  74.7834380  31.5465280  53.7096440  74.6022430  30.7831390
  53.2268760  73.9928490  32.0821590  63.3800230  74.6672260  27.7595510
  62.5060070  75.0007370  27.5568440  63.2710980  74.1945440  28.5847380
  64.2872210  76.8743130  29.1437230  63.9585570  76.0594890  28.7638960
  65.2354510  76.8312940  29.0202920  53.5657440  88.7398410  28.5073520
  52.8391500  88.1203700  28.4399470  53.6266590  89.1339020  27.6371600
  61.1275050  75.5842100  26.6988420  60.3446840  76.0587600  26.9785180
  60.8337980  74.6796930  26.5901600  65.6796120  76.2865200  24.7437510
  66.1204210  76.2310300  23.8959110  65.4103710  77.2023210  24.8147690
  67.5434690  75.9180440  22.7546330  67.4823090  74.9741660  22.6077350
  68.3226720  76.0260530  23.2999790  52.4715460  75.8889580  19.2202140
  53.2294820  76.0018460  18.6466170  52.0092630  76.7258780  19.1745570
  59.0129270  78.0028850  22.2104450  58.2003780  77.6285740  21.8700330
  59.5170910  77.2473930  22.5125640  63.5154250  74.6671300  23.4487520
  64.1183620  75.2391510  23.9236040  62.7747240  75.2310740  23.2261420
  66.6588850  75.0692860  18.7227800  66.8539480  75.9676310  18.9895230
  65.8718720  74.8379940  19.2160750  54.8440610  76.4153630  17.7604110
  55.3733370  75.6283430  17.6312060  55.4768930  77.0944820  17.9939640
  57.0378450  76.1528770  20.8149500  56.4081190  75.4516080  20.9819630
  56.4983590  76.9132900  20.5982660  57.1634010  75.4312750  33.2501990
  56.8818280  75.9346350  32.4862810  57.5453710  74.6334500  32.8844120
  55.2157900  88.8153140  18.0416000  54.5866780  89.2838240  18.5901830
  55.3305730  87.9702360  18.4762190  63.7649470  74.8466330  33.8282460
  63.6514920  75.1660940  34.7233980  64.5819210  75.2478840  33.5319740
  62.6707620  82.8658800   4.1917200  62.5901670  81.9513410   3.9208910
  62.2572040  83.3625870   3.4856910  60.8025660  84.6437820   6.0726470
  60.0267760  84.1638260   6.3625040  61.4538590  83.9643470   5.8982630
  54.8191490  84.9557630   6.9502230  53.9876370  84.7006340   7.3498740
  55.4272470  85.0268400   7.6860150  64.8233090  89.0498010   4.8525600
  64.3614620  88.2785250   5.1812770  65.6358640  89.0764080   5.3578050
  54.7992750  88.9897720   7.1460250  55.1020790  88.0995460   6.9670470
  55.5436340  89.5467940   6.9182500  51.1916450  82.5165170   6.6184320
  51.7632560  81.7487370   6.6187960  51.1917990  82.8153930   5.7090930
  60.2434650  87.3195010   6.0796630  60.1742930  86.3784950   5.9185760
  61.0054510  87.4096420   6.6519200  52.4341320  77.9249530   8.4053250
  52.2544160  77.0275280   8.6856010  52.0321400  78.4721400   9.0800200
  61.2739820  80.1265390   6.3065560  61.6504640  79.2537270   6.1939230
  61.1759330  80.4624090   5.4156000  55.4044830  78.4991020   1.7683000
  55.5111580  79.3994750   2.0751760  54.4937190  78.4508990   1.4777650
  65.0563940  77.6215830   3.2393900  65.8773560  77.1312400   3.2819380
  65.0898020  78.2113490   3.9925740  53.0527990  80.4210030   7.0135590
  53.7338100  80.6848400   7.6322990  52.7376040  79.5810900   7.3473600
  57.2452560  81.4677390   6.1008180  57.7530780  81.9658360   6.7413200
  57.7765800  80.6912590   5.9247540  69.3463490  79.6382580   9.8037530
  68.6415660  80.0264290   9.2852640  69.6121410  80.3332870  10.4058460
  55.5288660  76.1075950  10.3671600  55.5307100  76.6248340   9.5617500
  54.6992970  75.6306130  10.3441530  56.7791510  85.7471130   8.5445100
  56.4460890  86.3740050   9.1866170  56.9558190  86.2733010   7.7646770
  65.2925420  79.5616210   6.0121440  64.5880990  79.8501100   6.5924550
  65.6537580  80.3716320   5.6521000  55.2103990  77.8185910   8.3742050
  55.5520800  78.6627960   8.0795920  54.2719800  77.9669650   8.4907390
  55.9910610  87.7151930  10.3594280  56.6084610  88.3903010  10.0778730
  55.1303730  88.1239910  10.2681780  66.9088200  89.1791340   8.2748920
  66.2251720  89.8490450   8.2665590  67.4482490  89.3771990   7.5093780
  68.3612340  79.0071000   6.4030650  67.4137250  79.0409980   6.5346080
  68.6862330  79.8209950   6.7880010  58.8931880  75.3068180   4.6986640
  59.2006860  74.7515070   3.9822140  57.9632580  75.4412640   4.5159630
  65.7392360  87.7451690   2.0784270  65.6288690  86.8026020   2.2033690
  65.7360610  88.1067330   2.9647030  63.8432380  85.9265310   8.3176710
  64.2601170  85.7125420   7.4830170  64.5672200  86.1838100   8.8885330
  67.7894480  84.3252530   8.4092950  66.9613110  84.3945620   7.9343080
  68.3844960  84.9106840   7.9408780  64.7536490  81.1121850   9.3547820
  64.3407670  81.9375560   9.6087810  64.0212440  80.5266890   9.1624180
  56.8869280  83.8981750   4.2166490  56.4826280  83.1859000   3.7212390
  56.9732400  83.5534990   5.1054530  57.3550980  87.5849310   6.3805700
  57.0579270  86.9794780   5.7013480  58.3050800  87.6226620   6.2695060
  55.5997900  80.6724960   7.9965530  56.1512490  80.7820300   7.2218780
  56.1141410  81.0462560   8.7120760  56.4469410  87.3231000  13.0313500
  55.5497940  87.5470970  13.2786900  56.4722280  87.4465940  12.0824900
  55.2740630  84.1944320  11.6070870  55.1348400  85.0667120  11.9758270
  54.3921990  83.8517130  11.4618810  61.5970010  89.1120190   2.9136000
  62.0365920  89.8544520   2.4991390  61.5356900  89.3546760   3.8374960
  57.0720980  90.1366020  13.8156020  57.0436410  90.5408970  12.9484450
  56.9085950  89.2076380  13.6527620  51.2259280  85.9641870   7.5241780
  51.3039700  86.0990640   6.5797500  51.8400960  85.2557760   7.7169900
  52.4706910  87.6642060   3.9347960  52.0634990  87.8056650   3.0801560
  53.3619920  87.3802220   3.7319170  68.4269050  88.1105970  12.2720200
  68.5532110  87.8717850  11.3537380  68.4690430  87.2790510  12.7442280
  68.2793060  80.1638430  13.2369940  67.6637330  80.6718100  12.7085400
  67.9589480  79.2636760  13.1795880  51.2818800  87.0056040  10.0636240
  51.4449840  86.5361400   9.2455610  51.7471250  86.4979600  10.7285080
  56.0537570  76.1361800   5.0996810  55.6105720  76.9171340   4.7681330
  56.6122560  76.4591690   5.8067750  60.3407380  79.0030320  10.7032130
  59.8786750  79.2113340  11.5152070  59.9385490  78.1889670  10.4002800
  65.3411890  80.2239270  11.8328790  64.4905480  79.9245020  12.1537860
  65.1813680  80.4681280  10.9212610  62.4361600  81.7241020  13.9327580
  62.7615010  80.8904770  13.5929810  63.2241930  82.2469540  14.0805910
  58.0913470  76.6809130   6.9586410  58.3885800  77.5871960   6.8778430
  58.6399030  76.1927910   6.3445980  55.8451790  81.2595370   2.8278060
  55.6192710  81.0432540   3.7324680  55.0644320  81.6923830   2.4824030
  58.2851000  82.1580950  13.4938330  58.1894600  81.2175680  13.3438730
  59.1282980  82.3796020  13.0986400  61.6814420  79.9022280   3.4571990
  62.0743990  80.2194480   2.6440680  62.0431270  79.0234160   3.5716510
  53.4161540  78.5694620  11.6472110  53.0224930  79.4169830  11.8544890
  52.7279940  77.9320990  11.8380750  59.9906590  78.6529590  14.7168850
  59.3004910  78.4601790  15.3514940  60.7338890  78.9364230  15.2493150
  50.7178590  76.4923080   5.6802190  50.4291640  77.0625940   6.3927170
  51.4624350  76.0127530   6.0433420  62.2669560  82.4928030   7.5522770
  61.5350680  83.0014840   7.9012870  61.8693900  81.6758010   7.2511550
  58.7046950  79.1682230   5.9575260  58.7083010  78.7272180   5.1079800
  59.5998070  79.4899560   6.0647080  54.5549330  79.0508720   4.9169470
  54.2149380  79.5283950   5.6736520  53.7926650  78.5973840   4.5570570
  62.7295470  77.9461710   6.9645710  62.7468210  78.3970360   7.8087560
  62.4811050  77.0467350   7.1779150  66.1566220  75.3593890  12.8032090
  66.4811990  74.6283550  13.3290070  66.1922730  75.0407530  11.9013080
  52.8557780  86.3807470  12.2232050  52.4712570  85.7401140  12.8215010
  53.1669970  87.0843590  12.7926780  59.0054920  83.2284010   7.7040670
  59.3725050  82.7542580   8.4502010  58.8159980  84.1025580   8.0449010
  51.8695410  77.9727700   3.8334140  51.5842330  77.6083370   4.6712760
  51.8074270  77.2408160   3.2197280  56.7954290  82.2692650  10.0224880
  56.4911360  83.1484630  10.2475240  57.7500750  82.3292440  10.0582320
  66.0824060  85.4719000   6.4118120  66.8023180  85.9674290   6.0214230
  65.8805880  84.7936890   5.7671990  61.4642860  85.5428060  12.2987120
  61.3980170  84.6223730  12.0444710  60.8348000  85.6403500  13.0131760
  55.3673480  86.1434020   4.2570540  55.8852150  85.3402280   4.2027430
  54.9157500  86.0813160   5.0987370  52.8518020  83.1095390  11.1696240
  52.4932960  83.7749240  11.7569580  52.5572580  82.2778940  11.5408860
  56.0531140  83.5679630  14.0535790  55.7531280  83.7136810  13.1563610
  56.8242380  83.0084920  13.9609180  61.3959590  88.3648630  12.0490920
  61.4104130  87.4329590  11.8309830  60.6884690  88.4508390  12.6880690
  67.6070800  85.0055970  11.3959500  66.8818990  85.5984750  11.1988890
  68.1346260  84.9979510  10.5972870  63.1370390  86.7316140   4.8943350
  63.4894210  86.1344270   4.2344720  62.2532720  86.4060370   5.0651600
  59.2233670  87.4913830   2.3013760  59.9104800  88.0383040   2.6821350
  58.4366090  88.0354560   2.3363370  58.5260880  84.4959860   1.9139120
  58.9823660  85.3065110   2.1399310  58.1749090  84.1783000   2.7457610
  60.8293490  90.0066200   9.1431420  61.4735710  90.2125580   9.8204840
  61.1922930  89.2454600   8.6902270  54.4272660  74.8397510   2.3861640
  54.2987290  74.8315410   3.3346560  53.6034680  75.1780600   2.0352650
  62.1025570  88.0098550   7.8608870  62.7447800  87.3091710   7.9741040
  62.6274920  88.7896990   7.6805760  63.8763190  88.8093450  11.0644930
  64.2119430  89.3960140  11.7422850  62.9563530  88.6786160  11.2942720
  51.4266590  76.5988630  11.8468340  50.7125110  76.7985550  12.4520950
  51.8461630  75.8228200  12.2183140  51.7139180  90.5868890  12.8334870
  51.8230300  89.6463630  12.6930260  51.0619740  90.8523640  12.1848600
  59.7051770  88.8584780  14.2332990  59.3848640  88.1394020  14.7778680
  59.0310130  89.5339850  14.3069050  62.9205370  79.0910940   9.5969790
  63.2886190  78.2706150   9.9249360  62.0603570  79.1512830  10.0125440
  58.2551430  80.3253830   1.8215230  57.5467580  80.7940170   2.2628840
  58.5395910  79.6675840   2.4560420  59.8807360  81.7450530   9.8207760
  60.3792610  82.2196350  10.4859610  60.0230310  80.8214050  10.0277790
  62.2866860  77.0504490   3.2611020  62.1634640  77.0690620   2.3120530
  63.2351420  77.0983430   3.3809420  67.0874220  77.9618490  10.6636150
  66.5847820  78.7023890  11.0029960  67.9030880  78.3502490  10.3472940
  65.3796230  83.2051670   4.1097510  64.4386370  83.2201900   4.2845200
  65.6940300  82.4187630   4.5557810  62.6962250  87.7617670  14.5929890
  62.0900410  87.7849270  13.8525640  62.3916360  87.0300710  15.1297140
  51.5795430  84.1411260  13.5890530  52.0834450  83.5618540  14.1606760
  50.8402850  84.4251490  14.1266900  58.6333370  85.5482250  13.1226050
  57.8679040  86.1167250  13.0380720  58.8149330  85.2558460  12.2294280
  65.7756720  87.2787580  13.6801070  66.5166190  87.6163340  13.1768530
  65.0129400  87.4479640  13.1270840  53.6118510  82.2840850  14.4840600
  53.6523850  81.9854720  15.3925830  54.4664010  82.6848460  14.3248120
  55.5524320  80.8632950  12.4515090  55.0220780  80.3723900  11.8238430
  56.2212390  81.2917150  11.9173020  64.4502380  85.3302410  12.2156280
  64.8643400  85.4847490  13.0646700  63.5153380  85.4557630  12.3782060
  64.9224550  82.6698570  14.2195430  65.5045320  81.9150890  14.1315910
  65.0986320  83.2006010  13.4426910  56.0396620  77.8295320  12.5312380
  55.9453490  77.2116070  11.8063250  55.4594010  78.5561610  12.3042290
  58.8058060  76.3868560   9.5639770  58.3575360  76.4092820   8.7185320
  58.1723260  75.9887580  10.1610070  59.2117610  85.2822890  10.1852210
  59.6305720  86.1255620  10.0128450  58.2926240  85.4194930   9.9558990
  61.5481510  83.0139070  11.5690050  61.6677720  82.4180210  12.3084890
  62.4075510  83.0508760  11.1491350  63.8869410  83.5676260  10.1452560
  63.3604630  84.0918880   9.5417700  64.2300750  84.2003650  10.7762290
  58.3150280  79.5560420  12.8265870  58.9049970  79.2476270  13.5143690
  57.4970520  79.0840170  12.9825770  63.1343710  79.1726230  13.0598890
  62.4459230  78.5107770  12.9948880  63.8549730  78.7264500  13.5047350
  51.3214530  90.1501700   4.8630210  51.6517540  89.2822760   4.6308850
  51.7505530  90.3560220   5.6935170  55.9176450  88.4810710   2.5232180
  55.6171990  88.3575680   3.4236090  55.8113940  87.6219300   2.1147910
  67.4466920  90.5189290  11.8889150  66.8468910  90.5781850  11.1453070
  67.5760820  89.5794270  12.0186000  51.6429170  83.5292520   3.9600720
  50.9878010  83.2604160   3.3160420  52.4807120  83.4197000   3.5102700
  69.1484800  85.8604690   4.5734990  69.5193630  85.0772010   4.1670960
  69.7886730  86.5493790   4.3952290  66.1318560  87.2441270   9.9865310
  65.3178400  87.6738430  10.2491100  66.5392760  87.8559680   9.3734360
  68.0909340  83.2357950   1.8795010  67.7152940  82.4685880   1.4476300
  67.3612460  83.6180650   2.3669940  52.6805100  83.9145090   8.5004060
  53.0478140  83.8272490   9.3800080  52.1115920  83.1511640   8.4010920
  67.4808960  82.3829470  11.5134530  67.2495050  82.1542220  10.6132480
  67.7413510  83.3029020  11.4679420  52.2321100  80.8254180  12.4062480
  51.3377150  80.7920940  12.7456190  52.7718650  81.0240970  13.1713730
  65.9197030  77.6085900  14.2914230  66.7967210  77.6169300  14.6748230
  65.9317870  76.8716740  13.6806580  67.3660300  81.4615440   5.1802250
  67.8897780  80.9678090   4.5492420  67.9519720  81.5965800   5.9249820
  67.5450020  81.5455310   8.7021800  66.5952730  81.5118850   8.8166790
  67.7263030  82.4555420   8.4671570  52.7360810  75.1002510   6.7545700
  53.3837000  74.5499890   6.3140860  53.1562650  75.3545660   7.5761510
  68.2847430  79.3549740   3.6532340  68.1746710  79.2005780   4.5914610
  69.0455020  78.8270680   3.4107750  66.6313150  75.2943870  10.1115340
  67.2685370  75.9078010  10.4774530  66.7788040  75.3304530   9.1664570
  52.4892810  75.2558180   9.4971020  52.1407630  75.7122000  10.2629200
  52.1580510  74.3615310   9.5793450  54.0957180  88.4277780  13.6624210
  54.0526810  88.0570690  14.5438670  54.2268190  89.3655350  13.8026030
  57.7963210  89.9837370   9.2633930  57.5554570  90.2511930   8.3764450
  58.7365850  90.1543100   9.3184790  60.0017630  76.4470060  13.0190440
  59.9406520  77.0391890  13.7685850  60.9418010  76.3396020  12.8740700
  62.6392190  76.1040120  12.6582730  63.2532600  76.4219410  11.9963810
  63.1841750  75.6188710  13.2778590  53.1613450  74.7834380  12.7721790
  53.7096440  74.6022430  12.0087900  53.2268760  73.9928490  13.3078100
  63.3800230  74.6672260   8.9852020  62.5060070  75.0007370   8.7824950
  63.2710980  74.1945440   9.8103890  64.2872210  76.8743130  10.3693740
  63.9585570  76.0594890   9.9895470  65.2354510  76.8312940  10.2459430
  53.5657440  88.7398410   9.7330030  52.8391500  88.1203700   9.6655980
  53.6266590  89.1339020   8.8628110  61.1275050  75.5842100   7.9244930
  60.3446840  76.0587600   8.2041690  60.8337980  74.6796930   7.8158110
  65.6796120  76.2865200   5.9694020  66.1204210  76.2310300   5.1215620
  65.4103710  77.2023210   6.0404200  67.5434690  75.9180440   3.9802840
  67.4823090  74.9741660   3.8333860  68.3226720  76.0260530   4.5256300
  59.0129270  78.0028850   3.4360960  58.2003780  77.6285740   3.0956840
  59.5170910  77.2473930   3.7382150  63.5154250  74.6671300   4.6744030
  64.1183620  75.2391510   5.1492550  62.7747240  75.2310740   4.4517930
  57.0378450  76.1528770   2.0406010  56.4081190  75.4516080   2.2076140
  56.4983590  76.9132900   1.8239170  57.1634010  75.4312750  14.4758500
  56.8818280  75.9346350  13.7119320  57.5453710  74.6334500  14.1100630
  63.7649470  74.8466330  15.0538970  63.6514920  75.1660940  15.9490490
  64.5819210  75.2478840  14.7576250  62.6707620  64.0915310  60.5147670
  62.5901670  63.1769920  60.2439380  62.2572040  64.5882380  59.8087380
  60.8025660  65.8694330  62.3956940  60.0267760  65.3894770  62.6855510
  61.4538590  65.1899980  62.2213100  54.8191490  66.1814140  63.2732700
  53.9876370  65.9262850  63.6729210  55.4272470  66.2524910  64.0090620
  64.8233090  70.2754520  61.1756070  64.3614620  69.5041760  61.5043240
  65.6358640  70.3020590  61.6808520  54.7992750  70.2154230  63.4690720
  55.1020790  69.3251970  63.2900940  55.5436340  70.7724450  63.2412970
  53.2283440  61.1416030  57.0575090  52.3400140  61.4832000  56.9554970
  53.5124630  60.9416350  56.1655920  51.1916450  63.7421680  62.9414790
  51.7632560  62.9743880  62.9418430  51.1917990  64.0410440  62.0321400
  61.0496400  72.5612530  60.7960060  60.4307840  73.0170030  60.2254500
  61.9048180  72.7163990  60.3949760  60.2434650  68.5451520  62.4027100
  60.1742930  67.6041460  62.2416230  61.0054510  68.6352930  62.9749670
  52.4341320  59.1506040  64.7283720  52.2544160  58.2531790  65.0086480
  52.0321400  59.6977910  65.4030670  61.2739820  61.3521900  62.6296030
  61.6504640  60.4793780  62.5169700  61.1759330  61.6880600  61.7386470
  55.4044830  59.7247530  58.0913470  55.5111580  60.6251260  58.3982230
  54.4937190  59.6765500  57.8008120  65.0563940  58.8472340  59.5624370
  65.8773560  58.3568910  59.6049850  65.0898020  59.4370000  60.3156210
  53.0527990  61.6466540  63.3366060  53.7338100  61.9104910  63.9553460
  52.7376040  60.8067410  63.6704070  57.2452560  62.6933900  62.4238650
  57.7530780  63.1914870  63.0643670  57.7765800  61.9169100  62.2478010
  61.9159750  67.4451770  58.1891970  61.2977020  67.9101220  57.6254690
  62.4283000  68.1379250  58.6061480  56.7791510  66.9727640  64.8675570
  56.4460890  67.5996560  65.5096640  56.9558190  67.4989520  64.0877240
  65.2925420  60.7872720  62.3351910  64.5880990  61.0757610  62.9155020
  65.6537580  61.5972830  61.9751470  55.2103990  59.0442420  64.6972520
  55.5520800  59.8884470  64.4026390  54.2719800  59.1926160  64.8137860
  51.2842950  68.1308300  55.5631600  50.9070930  68.6195400  54.8316500
  51.5416020  68.8033580  56.1938130  66.9088200  70.4047850  64.5979390
  66.2251720  71.0746960  64.5896060  67.4482490  70.6028500  63.8324250
  68.3612340  60.2327510  62.7261120  67.4137250  60.2666490  62.8576550
  68.6862330  61.0466460  63.1110480  58.8931880  56.5324690  61.0217110
  59.2006860  55.9771580  60.3052610  57.9632580  56.6669150  60.8390100
  64.4446940  72.2491980  63.3124570  64.4574100  71.8454270  62.4446830
  63.8922160  73.0239270  63.2086000  65.7392360  68.9708200  58.4014740
  65.6288690  68.0282530  58.5264160  65.7360610  69.3323840  59.2877500
  63.8432380  67.1521820  64.6407180  64.2601170  66.9381930  63.8060640
  64.5672200  67.4094610  65.2115800  61.2812640  64.5973520  57.7577230
  60.3541920  64.5310900  57.9865700  61.4337460  65.5353650  57.6432470
  61.2681720  60.8690520  54.7544390  60.3285390  61.0304480  54.8396850
  61.5864980  61.5876200  54.2080380  67.7894480  65.5509040  64.7323420
  66.9613110  65.6202130  64.2573550  68.3844960  66.1363350  64.2639250
  65.3109930  66.1593820  58.2612480  64.6922350  65.8213370  57.6138780
  65.2934380  65.5153580  58.9691670  64.7536490  62.3378360  65.6778290
  64.3407670  63.1632070  65.9318280  64.0212440  61.7523400  65.4854650
  56.8869280  65.1238260  60.5396960  56.4826280  64.4115510  60.0442860
  56.9732400  64.7791500  61.4285000  57.3550980  68.8105820  62.7036170
  57.0579270  68.2051290  62.0243950  58.3050800  68.8483130  62.5925530
  55.5997900  61.8981470  64.3196000  56.1512490  62.0076810  63.5449250
  56.1141410  62.2719070  65.0351230  65.4436590  72.3837690  66.3659270
  64.9667150  73.1909880  66.1731880  64.7598380  71.7316020  66.5185480
  63.4874630  65.3980630  55.2685230  63.9267910  64.5603060  55.1223050
  64.2003050  66.0310030  55.3549370  61.5970010  70.3376700  59.2366470
  62.0365920  71.0801030  58.8221860  61.5356900  70.5803270  60.1605430
  67.0691770  56.6523440  53.5826270  66.7564430  56.7450270  54.4825340
  67.8304240  57.2304470  53.5323700  53.5873910  64.0183240  58.0403610
  53.4671510  64.7445330  57.4284880  53.2774800  63.2486150  57.5631520
  51.2259280  67.1898380  63.8472250  51.3039700  67.3247150  62.9027970
  51.8400960  66.4814270  64.0400370  52.4706910  68.8898570  60.2578430
  52.0634990  69.0313160  59.4032030  53.3619920  68.6058730  60.0549640
  64.2640190  73.3245820  56.5929480  64.1041330  73.0348760  57.4911310
  64.0986900  72.5485950  56.0574710  56.7428570  73.1044350  58.3701100
  56.5671050  72.1879890  58.1568900  55.8884310  73.4631640  58.6098900
  63.9666320  70.8333380  55.1527480  63.2731480  70.8310670  54.4929760
  64.7089180  70.4092700  54.7221650  63.5316250  72.4596090  59.2275970
  63.9873200  71.6785470  59.5414590  63.8708770  73.1702910  59.7717150
  56.0537570  57.3618310  61.4227280  55.6105720  58.1427850  61.0911800
  56.6122560  57.6848200  62.1298220  59.1696390  56.9829010  56.3033110
  58.5450570  56.9788880  57.0286420  59.0826510  56.1159970  55.9069080
  58.0913470  57.9065640  63.2816880  58.3885800  58.8128470  63.2008900
  58.6399030  57.4184420  62.6676450  55.8451790  62.4851880  59.1508530
  55.6192710  62.2689050  60.0555150  55.0644320  62.9180340  58.8054500
  63.0749550  62.4915250  57.7499180  62.4758440  63.2151050  57.5662800
  63.6229160  62.4292030  56.9675630  61.6814420  61.1278790  59.7802460
  62.0743990  61.4450990  58.9671150  62.0431270  60.2490670  59.8946980
  50.7178590  57.7179590  62.0032660  50.4291640  58.2882450  62.7157640
  51.4624350  57.2384040  62.3663890  50.9048820  61.6599710  53.2135380
  50.8223490  62.6030470  53.3550370  50.5531880  61.5174620  52.3347730
  62.2669560  63.7184540  63.8753240  61.5350680  64.2271350  64.2243340
  61.8693900  62.9014520  63.5742020  58.7046950  60.3938740  62.2805730
  58.7083010  59.9528690  61.4310270  59.5998070  60.7156070  62.3877550
  54.5549330  60.2765230  61.2399940  54.2149380  60.7540460  61.9966990
  53.7926650  59.8230350  60.8801040  58.7667100  61.3950820  55.2712490
  58.8879920  61.3537300  56.2198310  58.3815610  62.2574970  55.1159220
  62.7295470  59.1718220  63.2876180  62.7468210  59.6226870  64.1318030
  62.4811050  58.2723860  63.5009620  57.7788600  63.7051960  54.6695790
  57.2105500  63.2570210  54.0431700  58.4877600  64.0644740  54.1360940
  59.0054920  64.4540520  64.0271140  59.3725050  63.9799090  64.7732480
  58.8159980  65.3282090  64.3679480  51.8695410  59.1984210  60.1564610
  51.5842330  58.8339880  60.9943230  51.8074270  58.4664670  59.5427750
  55.3236080  67.7010150  56.9422200  54.5498340  67.1607770  56.7820920
  56.0530710  67.1816760  56.6039960  66.0824060  66.6975510  62.7348590
  66.8023180  67.1930800  62.3444700  65.8805880  66.0193400  62.0902460
  61.5434000  58.0913470  56.8777980  60.7298610  57.5926640  56.8023290
  61.3495950  58.9311720  56.4614330  64.2582390  62.4633120  55.1740140
  65.1462010  62.7750350  54.9991480  64.2287480  61.5905370  54.7820720
  55.3673480  67.3690530  60.5801010  55.8852150  66.5658790  60.5257900
  54.9157500  67.3069670  61.4217840  60.2542980  68.6356810  55.8528310
  60.5958680  69.3799040  55.3571630  59.4255690  68.9487930  56.2153140
  66.5296660  63.7744960  54.6420000  66.4460380  64.2059180  53.7916440
  67.2490850  64.2343310  55.0746820  67.5583910  70.6287220  57.3702130
  66.9160070  69.9742840  57.6445850  67.1714570  71.0342310  56.5942800
  63.1370390  67.9572650  61.2173820  63.4894210  67.3600780  60.5575190
  62.2532720  67.6316880  61.3882070  59.2233670  68.7170340  58.6244230
  59.9104800  69.2639550  59.0051820  58.4366090  69.2611070  58.6593840
  51.3626070  64.3343160  54.1161310  52.2320920  64.6167960  54.3997230
  50.8716390  65.1479030  54.0010120  58.5260880  65.7216370  58.2369590
  58.9823660  66.5321620  58.4629780  58.1749090  65.4039510  59.0688080
  60.8293490  71.2322710  65.4661890  61.4735710  71.4382090  66.1435310
  61.1922930  70.4711110  65.0132740  54.4272660  56.0654020  58.7092110
  54.2987290  56.0571920  59.6577030  53.6034680  56.4037110  58.3583120
  62.1025570  69.2355060  64.1839340  62.7447800  68.5348220  64.2971510
  62.6274920  70.0153500  64.0036230  65.9481290  69.5203680  53.9078480
  65.7218870  68.8034120  54.5003120  65.5577490  69.2716120  53.0700230
  51.7297320  73.5470540  54.6822940  52.0894960  74.1459880  54.0280210
  51.5889660  74.0930430  55.4557970  65.5297540  67.4375620  55.5692640
  65.2419240  67.8988310  56.3570520  66.3249710  66.9773390  55.8376860
  57.7465940  70.9301740  55.4996610  57.7376040  71.6631430  54.8841120
  56.8264300  70.6833320  55.5923570  53.3472580  66.1516630  56.2443370
  52.7400530  66.8915530  56.2538670  53.8221930  66.2415990  55.4181570
  62.9205370  60.3167450  65.9200260  63.2886190  59.4962660  66.2479830
  62.0603570  60.3769340  66.3355910  66.2867400  59.2724390  56.7287820
  65.6580560  59.3770060  56.0146050  65.7919320  59.4921170  57.5181700
  60.7325540  70.9929980  54.1621800  60.8337520  70.7893970  53.2323780
  59.8327280  70.7388260  54.3669580  58.2551430  61.5510340  58.1445700
  57.5467580  62.0196680  58.5859310  58.5395910  60.8932350  58.7790890
  62.2866860  58.2761000  59.5841490  62.1634640  58.2947130  58.6351000
  63.2351420  58.3239940  59.7039890  59.3743650  73.5116300  58.8569470
  59.6285150  73.4737690  57.9348840  58.4256130  73.3849630  58.8497720
  56.4586450  59.8595420  55.5196410  57.3076980  60.2965570  55.4536600
  56.0917720  60.1715680  56.3468470  65.3796230  64.4308180  60.4327980
  64.4386370  64.4458410  60.6075670  65.6940300  63.6444140  60.8788280
  55.3577870  66.1127780  53.9931940  56.1241140  66.0009140  54.5557370
  55.4352560  65.4165750  53.3408710  54.0524630  63.5452850  54.6764830
  54.1328220  62.5980360  54.7882230  54.9444380  63.8759730  54.7825490
  67.3821810  71.6017030  62.1082240  67.5069230  72.4248200  62.5806050
  68.2487370  71.3907760  61.7606390  54.8539340  73.6948240  61.7799370
  55.5901820  73.1463700  62.0507940  55.2380260  74.5604250  61.6405360
  51.7384820  69.7621810  57.6540880  50.8124600  70.0042950  57.6446290
  52.2041250  70.5896070  57.5325630  57.9641650  72.8678550  53.6024940
  58.7570260  73.1567380  53.1506730  57.4446000  72.4370720  52.9237420
  67.0171820  72.0948680  55.0261680  66.7313330  71.6813820  54.2115860
  66.8191370  73.0236390  54.9062200  58.4819050  68.0881960  53.4667290
  58.3769690  67.4734310  54.1928670  58.3143270  67.5647850  52.6830300
  61.7221780  67.1501990  54.0709280  61.1731880  67.5971290  54.7152020
  62.3441040  66.6451240  54.5946950  57.3896900  66.1092910  55.9674580
  57.8113320  65.9432780  56.8105970  57.5147740  65.2993140  55.4729720
  59.9024540  65.1330520  53.2151680  60.4230200  64.4179540  52.8492830
  60.5492940  65.7716390  53.5152190  58.8058060  57.6125070  65.8870240
  58.3575360  57.6349330  65.0415790  58.1723260  57.2144090  66.4840540
  59.2117610  66.5079400  66.5082680  59.6305720  67.3512130  66.3358920
  58.2926240  66.6451440  66.2789460  56.2855800  62.1826140  52.9132740
  56.0844860  61.3193500  53.2746080  56.1147850  62.0959500  51.9754340
  63.7644110  56.9934370  55.4419620  64.0446400  56.1502270  55.7979040
  62.9909840  57.2257480  55.9558370  55.0838600  59.2826760  52.9010620
  55.3864500  59.2894190  51.9929770  55.8233190  58.9324620  53.3978280
  58.3023530  58.2261380  53.8866820  57.9545530  57.5485370  53.3069270
  58.5036300  57.7650890  54.7010210  60.4672570  73.2142130  55.5053420
  61.3623360  73.5527100  55.5272180  60.4990200  72.4921540  54.8777700
  54.1068730  68.5869180  53.7340420  54.5443600  69.1298850  54.3898000
  54.5916460  67.7616130  53.7436760  51.3214530  71.3758210  61.1860680
  51.6517540  70.5079270  60.9539320  51.7505530  71.5816730  62.0165640
  55.9176450  69.7067220  58.8462650  55.6171990  69.5832190  59.7466560
  55.8113940  68.8475810  58.4378380  51.8104740  72.2428800  63.9242310
  51.3735730  72.4229600  64.7566460  52.3782420  73.0003420  63.7824030
  68.6868370  69.4863620  53.5489330  67.8561330  69.5540270  54.0196560
  68.8640200  70.3767740  53.2456190  68.1424830  66.2311100  56.0523530
  68.9043740  66.8007750  56.1583220  68.1579200  65.6638300  56.8231840
  51.6429170  64.7549030  60.2831190  50.9878010  64.4860670  59.6390890
  52.4807120  64.6453510  59.8333170  69.1484800  67.0861200  60.8965460
  69.5193630  66.3028520  60.4901430  69.7886730  67.7750300  60.7182760
  68.1944000  66.5245470  53.2096050  68.4692840  67.4324350  53.0815270
  68.0054740  66.4608000  54.1458040  64.5919610  59.5490320  54.5049680
  65.0104490  59.3621300  53.6646340  64.2855670  58.6969370  54.8152610
  68.0909340  64.4614460  58.2025480  67.7152940  63.6942390  57.7706770
  67.3612460  64.8437160  58.6900410  52.6805100  65.1401600  64.8234530
  53.0478140  65.0529000  65.7030550  52.1115920  64.3768150  64.7241390
  50.8567250  61.9647960  56.2256520  49.9531330  62.2278160  56.0508180
  51.3407870  62.2359130  55.4456480  67.3660300  62.6871950  61.5032720
  67.8897780  62.1934600  60.8722890  67.9519720  62.8222310  62.2480290
  67.5450020  62.7711820  65.0252270  66.5952730  62.7375360  65.1397260
  67.7263030  63.6811930  64.7902040  53.3994460  61.0213500  54.1350900
  54.1086160  60.5996720  53.6498180  52.6834400  61.0888730  53.5034250
  53.0468620  57.0752830  53.1753550  53.7696750  57.6161770  53.4934770
  53.3193140  56.8016250  52.2995090  66.8560270  61.9445300  57.4425130
  67.3519390  61.7116170  58.2274010  66.6576340  61.1057140  57.0262770
  52.7360810  56.3259020  63.0776170  53.3837000  55.7756400  62.6371330
  53.1562650  56.5802170  63.8991980  68.2847430  60.5806250  59.9762810
  68.1746710  60.4262290  60.9145080  69.0455020  60.0527190  59.7338220
  69.1737700  58.4114170  53.2168950  70.0987010  58.2795350  53.0087240
  69.1513490  58.4906990  54.1705400  69.2476190  59.1824830  55.8425660
  68.4527690  59.1169950  56.3718570  69.4519470  60.1175470  55.8311010
  66.1894610  73.2216380  59.8364050  66.7853680  72.9000950  59.1598470
  66.4472760  72.7488200  60.6277320  57.7963210  71.2093880  65.5864400
  57.5554570  71.4768440  64.6994920  58.7365850  71.3799610  65.6415260
  63.3800230  55.8928770  65.3082490  62.5060070  56.2263880  65.1055420
  63.2710980  55.4201950  66.1334360  66.7406820  73.8711680  63.6661780
  66.2809790  74.6227490  63.2919800  66.1119280  73.1518150  63.6076580
  53.5657440  69.9654920  66.0560500  52.8391500  69.3460210  65.9886450
  53.6266590  70.3595530  65.1858580  57.1702540  72.1799920  62.8409910
  57.6867560  71.5687280  62.3158170  57.8199920  72.6828700  63.3320920
  59.9098040  73.0708410  63.6678890  60.1975850  72.8162710  62.7911900
  60.4221260  72.5185770  64.2584460  61.1275050  56.8098610  64.2475400
  60.3446840  57.2844110  64.5272160  60.8337980  55.9053440  64.1388580
  65.6796120  57.5121710  62.2924490  66.1204210  57.4566810  61.4446090
  65.4103710  58.4279720  62.3634670  67.5434690  57.1436950  60.3033310
  67.4823090  56.1998170  60.1564330  68.3226720  57.2517040  60.8486770
  51.8487440  73.2829310  59.2657260  51.6809480  72.6499990  59.9639150
  50.9821950  73.4888710  58.9151450  52.4715460  57.1146090  56.7689120
  53.2294820  57.2274970  56.1953150  52.0092630  57.9515290  56.7232550
  59.0129270  59.2285360  59.7591430  58.2003780  58.8542250  59.4187310
  59.5170910  58.4730440  60.0612620  63.5154250  55.8927810  60.9974500
  64.1183620  56.4648020  61.4723020  62.7747240  56.4567250  60.7748400
  66.6588850  56.2949370  56.2714780  66.8539480  57.1932820  56.5382210
  65.8718720  56.0636450  56.7647730  53.4550140  71.9762540  56.7107400
  52.9297760  72.3570570  56.0069360  53.3794720  72.6013310  57.4317110
  54.8440610  57.6410140  55.3091090  55.3733370  56.8539940  55.1799040
  55.4768930  58.3201330  55.5426620  57.0378450  57.3785280  58.3636480
  56.4081190  56.6772590  58.5306610  56.4983590  58.1389410  58.1469640
  68.2115460  73.5350080  58.0321340  68.3867650  72.8487820  57.3882260
  67.5137030  74.0597130  57.6398010  56.0543110  73.9244920  55.5856650
  56.7861930  73.6404200  55.0380540  56.3136780  73.6858200  56.4756030
  55.2157900  70.0409650  55.5902980  54.5866780  70.5094750  56.1388810
  55.3305730  69.1958870  56.0249170  62.6707620  64.0915310  41.7404180
  62.5901670  63.1769920  41.4695890  62.2572040  64.5882380  41.0343890
  60.8025660  65.8694330  43.6213450  60.0267760  65.3894770  43.9112020
  61.4538590  65.1899980  43.4469610  54.8191490  66.1814140  44.4989210
  53.9876370  65.9262850  44.8985720  55.4272470  66.2524910  45.2347130
  64.8233090  70.2754520  42.4012580  64.3614620  69.5041760  42.7299750
  65.6358640  70.3020590  42.9065030  54.7992750  70.2154230  44.6947230
  55.1020790  69.3251970  44.5157450  55.5436340  70.7724450  44.4669480
  53.2283440  61.1416030  38.2831600  52.3400140  61.4832000  38.1811480
  53.5124630  60.9416350  37.3912430  51.1916450  63.7421680  44.1671300
  51.7632560  62.9743880  44.1674940  51.1917990  64.0410440  43.2577910
  61.0496400  72.5612530  42.0216570  60.4307840  73.0170030  41.4511010
  61.9048180  72.7163990  41.6206270  60.2434650  68.5451520  43.6283610
  60.1742930  67.6041460  43.4672740  61.0054510  68.6352930  44.2006180
  52.4341320  59.1506040  45.9540230  52.2544160  58.2531790  46.2342990
  52.0321400  59.6977910  46.6287180  61.2739820  61.3521900  43.8552540
  61.6504640  60.4793780  43.7426210  61.1759330  61.6880600  42.9642980
  55.4044830  59.7247530  39.3169980  55.5111580  60.6251260  39.6238740
  54.4937190  59.6765500  39.0264630  65.0563940  58.8472340  40.7880880
  65.8773560  58.3568910  40.8306360  65.0898020  59.4370000  41.5412720
  53.0527990  61.6466540  44.5622570  53.7338100  61.9104910  45.1809970
  52.7376040  60.8067410  44.8960580  57.2452560  62.6933900  43.6495160
  57.7530780  63.1914870  44.2900180  57.7765800  61.9169100  43.4734520
  69.3463490  60.8639090  47.3524510  68.6415660  61.2520800  46.8339620
  69.6121410  61.5589380  47.9545440  55.5288660  57.3332460  47.9158580
  55.5307100  57.8504850  47.1104480  54.6992970  56.8562640  47.8928510
  61.9159750  67.4451770  39.4148480  61.2977020  67.9101220  38.8511200
  62.4283000  68.1379250  39.8317990  56.7791510  66.9727640  46.0932080
  56.4460890  67.5996560  46.7353150  56.9558190  67.4989520  45.3133750
  65.2925420  60.7872720  43.5608420  64.5880990  61.0757610  44.1411530
  65.6537580  61.5972830  43.2007980  55.2103990  59.0442420  45.9229030
  55.5520800  59.8884470  45.6282900  54.2719800  59.1926160  46.0394370
  55.9910610  68.9408440  47.9081260  56.6084610  69.6159520  47.6265710
  55.1303730  69.3496420  47.8168760  51.2842950  68.1308300  36.7888110
  50.9070930  68.6195400  36.0573010  51.5416020  68.8033580  37.4194640
  66.9088200  70.4047850  45.8235900  66.2251720  71.0746960  45.8152570
  67.4482490  70.6028500  45.0580760  68.3612340  60.2327510  43.9517630
  67.4137250  60.2666490  44.0833060  68.6862330  61.0466460  44.3366990
  58.8931880  56.5324690  42.2473620  59.2006860  55.9771580  41.5309120
  57.9632580  56.6669150  42.0646610  64.4446940  72.2491980  44.5381080
  64.4574100  71.8454270  43.6703340  63.8922160  73.0239270  44.4342510
  65.7392360  68.9708200  39.6271250  65.6288690  68.0282530  39.7520670
  65.7360610  69.3323840  40.5134010  63.8432380  67.1521820  45.8663690
  64.2601170  66.9381930  45.0317150  64.5672200  67.4094610  46.4372310
  61.2812640  64.5973520  38.9833740  60.3541920  64.5310900  39.2122210
  61.4337460  65.5353650  38.8688980  61.2681720  60.8690520  35.9800900
  60.3285390  61.0304480  36.0653360  61.5864980  61.5876200  35.4336890
  67.7894480  65.5509040  45.9579930  66.9613110  65.6202130  45.4830060
  68.3844960  66.1363350  45.4895760  65.3109930  66.1593820  39.4868990
  64.6922350  65.8213370  38.8395290  65.2934380  65.5153580  40.1948180
  64.7536490  62.3378360  46.9034800  64.3407670  63.1632070  47.1574790
  64.0212440  61.7523400  46.7111160  56.8869280  65.1238260  41.7653470
  56.4826280  64.4115510  41.2699370  56.9732400  64.7791500  42.6541510
  57.3550980  68.8105820  43.9292680  57.0579270  68.2051290  43.2500460
  58.3050800  68.8483130  43.8182040  55.5997900  61.8981470  45.5452510
  56.1512490  62.0076810  44.7705760  56.1141410  62.2719070  46.2607740
  65.4436590  72.3837690  47.5915780  64.9667150  73.1909880  47.3988390
  64.7598380  71.7316020  47.7441990  56.4469410  68.5487510  50.5800480
  55.5497940  68.7727480  50.8273880  56.4722280  68.6722450  49.6311880
  63.4874630  65.3980630  36.4941740  63.9267910  64.5603060  36.3479560
  64.2003050  66.0310030  36.5805880  55.2740630  65.4200830  49.1557850
  55.1348400  66.2923630  49.5245250  54.3921990  65.0773640  49.0105790
  61.5970010  70.3376700  40.4622980  62.0365920  71.0801030  40.0478370
  61.5356900  70.5803270  41.3861940  57.0720980  71.3622530  51.3643000
  57.0436410  71.7665480  50.4971430  56.9085950  70.4332890  51.2014600
  67.0691770  56.6523440  34.8082780  66.7564430  56.7450270  35.7081850
  67.8304240  57.2304470  34.7580210  53.5873910  64.0183240  39.2660120
  53.4671510  64.7445330  38.6541390  53.2774800  63.2486150  38.7888030
  69.0235800  72.1449630  52.6607170  69.4995520  72.6232520  53.3396250
  69.6442960  72.0767120  51.9352670  51.2259280  67.1898380  45.0728760
  51.3039700  67.3247150  44.1284480  51.8400960  66.4814270  45.2656880
  52.4706910  68.8898570  41.4834940  52.0634990  69.0313160  40.6288540
  53.3619920  68.6058730  41.2806150  68.4269050  69.3362480  49.8207180
  68.5532110  69.0974360  48.9024360  68.4690430  68.5047020  50.2929260
  62.2885790  73.0390480  48.3901990  62.8030460  72.9498490  49.1924420
  61.4454870  73.3850180  48.6829900  64.2640190  73.3245820  37.8185990
  64.1041330  73.0348760  38.7167820  64.0986900  72.5485950  37.2831220
  56.7428570  73.1044350  39.5957610  56.5671050  72.1879890  39.3825410
  55.8884310  73.4631640  39.8355410  63.9666320  70.8333380  36.3783990
  63.2731480  70.8310670  35.7186270  64.7089180  70.4092700  35.9478160
  63.5316250  72.4596090  40.4532480  63.9873200  71.6785470  40.7671100
  63.8708770  73.1702910  40.9973660  68.2793060  61.3894940  50.7856920
  67.6637330  61.8974610  50.2572380  67.9589480  60.4893270  50.7282860
  51.2818800  68.2312550  47.6123220  51.4449840  67.7617910  46.7942590
  51.7471250  67.7236110  48.2772060  56.0537570  57.3618310  42.6483790
  55.6105720  58.1427850  42.3168310  56.6122560  57.6848200  43.3554730
  60.3407380  60.2286830  48.2519110  59.8786750  60.4369850  49.0639050
  59.9385490  59.4146180  47.9489780  65.3411890  61.4495780  49.3815770
  64.4905480  61.1501530  49.7024840  65.1813680  61.6937790  48.4699590
  62.4361600  62.9497530  51.4814560  62.7615010  62.1161280  51.1416790
  63.2241930  63.4726050  51.6292890  59.1696390  56.9829010  37.5289620
  58.5450570  56.9788880  38.2542930  59.0826510  56.1159970  37.1325590
  58.0913470  57.9065640  44.5073390  58.3885800  58.8128470  44.4265410
  58.6399030  57.4184420  43.8932960  55.8451790  62.4851880  40.3765040
  55.6192710  62.2689050  41.2811660  55.0644320  62.9180340  40.0311010
  63.0749550  62.4915250  38.9755690  62.4758440  63.2151050  38.7919310
  63.6229160  62.4292030  38.1932140  58.2851000  63.3837460  51.0425310
  58.1894600  62.4432190  50.8925710  59.1282980  63.6052530  50.6473380
  61.6814420  61.1278790  41.0058970  62.0743990  61.4450990  40.1927660
  62.0431270  60.2490670  41.1203490  53.4161540  59.7951130  49.1959090
  53.0224930  60.6426340  49.4031870  52.7279940  59.1577500  49.3867730
  59.9906590  59.8786100  52.2655830  59.3004910  59.6858300  52.9001920
  60.7338890  60.1620740  52.7980130  50.7178590  57.7179590  43.2289170
  50.4291640  58.2882450  43.9414150  51.4624350  57.2384040  43.5920400
  50.9048820  61.6599710  34.4391890  50.8223490  62.6030470  34.5806880
  50.5531880  61.5174620  33.5604240  62.2669560  63.7184540  45.1009750
  61.5350680  64.2271350  45.4499850  61.8693900  62.9014520  44.7998530
  58.7046950  60.3938740  43.5062240  58.7083010  59.9528690  42.6566780
  59.5998070  60.7156070  43.6134060  54.5549330  60.2765230  42.4656450
  54.2149380  60.7540460  43.2223500  53.7926650  59.8230350  42.1057550
  58.7667100  61.3950820  36.4969000  58.8879920  61.3537300  37.4454820
  58.3815610  62.2574970  36.3415730  62.7295470  59.1718220  44.5132690
  62.7468210  59.6226870  45.3574540  62.4811050  58.2723860  44.7266130
  57.7788600  63.7051960  35.8952300  57.2105500  63.2570210  35.2688210
  58.4877600  64.0644740  35.3617450  66.1566220  56.5850400  50.3519070
  66.4811990  55.8540060  50.8777050  66.1922730  56.2664040  49.4500060
  52.8557780  67.6063980  49.7719030  52.4712570  66.9657650  50.3701990
  53.1669970  68.3100100  50.3413760  59.0054920  64.4540520  45.2527650
  59.3725050  63.9799090  45.9988990  58.8159980  65.3282090  45.5935990
  51.8695410  59.1984210  41.3821120  51.5842330  58.8339880  42.2199740
  51.8074270  58.4664670  40.7684260  56.7954290  63.4949160  47.5711860
  56.4911360  64.3741140  47.7962220  57.7500750  63.5548950  47.6069300
  55.3236080  67.7010150  38.1678710  54.5498340  67.1607770  38.0077430
  56.0530710  67.1816760  37.8296470  66.0824060  66.6975510  43.9605100
  66.8023180  67.1930800  43.5701210  65.8805880  66.0193400  43.3158970
  61.5434000  58.0913470  38.1034490  60.7298610  57.5926640  38.0279800
  61.3495950  58.9311720  37.6870840  61.4642860  66.7684570  49.8474100
  61.3980170  65.8480240  49.5931690  60.8348000  66.8660010  50.5618740
  64.2582390  62.4633120  36.3996650  65.1462010  62.7750350  36.2247990
  64.2287480  61.5905370  36.0077230  55.3673480  67.3690530  41.8057520
  55.8852150  66.5658790  41.7514410  54.9157500  67.3069670  42.6474350
  60.2542980  68.6356810  37.0784820  60.5958680  69.3799040  36.5828140
  59.4255690  68.9487930  37.4409650  52.8518020  64.3351900  48.7183220
  52.4932960  65.0005750  49.3056560  52.5572580  63.5035450  49.0895840
  56.0531140  64.7936140  51.6022770  55.7531280  64.9393320  50.7050590
  56.8242380  64.2341430  51.5096160  61.3959590  69.5905140  49.5977900
  61.4104130  68.6586100  49.3796810  60.6884690  69.6764900  50.2367670
  66.5296660  63.7744960  35.8676510  66.4460380  64.2059180  35.0172950
  67.2490850  64.2343310  36.3003330  67.6070800  66.2312480  48.9446480
  66.8818990  66.8241260  48.7475870  68.1346260  66.2236020  48.1459850
  67.5583910  70.6287220  38.5958640  66.9160070  69.9742840  38.8702360
  67.1714570  71.0342310  37.8199310  63.1370390  67.9572650  42.4430330
  63.4894210  67.3600780  41.7831700  62.2532720  67.6316880  42.6138580
  59.2233670  68.7170340  39.8500740  59.9104800  69.2639550  40.2308330
  58.4366090  69.2611070  39.8850350  51.3626070  64.3343160  35.3417820
  52.2320920  64.6167960  35.6253740  50.8716390  65.1479030  35.2266630
  58.5260880  65.7216370  39.4626100  58.9823660  66.5321620  39.6886290
  58.1749090  65.4039510  40.2944590  60.8293490  71.2322710  46.6918400
  61.4735710  71.4382090  47.3691820  61.1922930  70.4711110  46.2389250
  54.4272660  56.0654020  39.9348620  54.2987290  56.0571920  40.8833540
  53.6034680  56.4037110  39.5839630  62.1025570  69.2355060  45.4095850
  62.7447800  68.5348220  45.5228020  62.6274920  70.0153500  45.2292740
  65.9481290  69.5203680  35.1334990  65.7218870  68.8034120  35.7259630
  65.5577490  69.2716120  34.2956740  63.8763190  70.0349960  48.6131910
  64.2119430  70.6216650  49.2909830  62.9563530  69.9042670  48.8429700
  51.7297320  73.5470540  35.9079450  52.0894960  74.1459880  35.2536720
  51.5889660  74.0930430  36.6814480  51.4266590  57.8245140  49.3955320
  50.7125110  58.0242060  50.0007930  51.8461630  57.0484710  49.7670120
  65.5297540  67.4375620  36.7949150  65.2419240  67.8988310  37.5827030
  66.3249710  66.9773390  37.0633370  51.7139180  71.8125400  50.3821850
  51.8230300  70.8720140  50.2417240  51.0619740  72.0780150  49.7335580
  59.7051770  70.0841290  51.7819970  59.3848640  69.3650530  52.3265660
  59.0310130  70.7596360  51.8556030  57.7465940  70.9301740  36.7253120
  57.7376040  71.6631430  36.1097630  56.8264300  70.6833320  36.8180080
  53.3472580  66.1516630  37.4699880  52.7400530  66.8915530  37.4795180
  53.8221930  66.2415990  36.6438080  62.9205370  60.3167450  47.1456770
  63.2886190  59.4962660  47.4736340  62.0603570  60.3769340  47.5612420
  66.2867400  59.2724390  37.9544330  65.6580560  59.3770060  37.2402560
  65.7919320  59.4921170  38.7438210  60.7325540  70.9929980  35.3878310
  60.8337520  70.7893970  34.4580290  59.8327280  70.7388260  35.5926090
  58.2551430  61.5510340  39.3702210  57.5467580  62.0196680  39.8115820
  58.5395910  60.8932350  40.0047400  59.8807360  62.9707040  47.3694740
  60.3792610  63.4452860  48.0346590  60.0230310  62.0470560  47.5764770
  62.2866860  58.2761000  40.8098000  62.1634640  58.2947130  39.8607510
  63.2351420  58.3239940  40.9296400  59.3743650  73.5116300  40.0825980
  59.6285150  73.4737690  39.1605350  58.4256130  73.3849630  40.0754230
  56.4586450  59.8595420  36.7452920  57.3076980  60.2965570  36.6793110
  56.0917720  60.1715680  37.5724980  67.0874220  59.1875000  48.2123130
  66.5847820  59.9280400  48.5516940  67.9030880  59.5759000  47.8959920
  65.3796230  64.4308180  41.6584490  64.4386370  64.4458410  41.8332180
  65.6940300  63.6444140  42.1044790  55.3577870  66.1127780  35.2188450
  56.1241140  66.0009140  35.7813880  55.4352560  65.4165750  34.5665220
  54.0524630  63.5452850  35.9021340  54.1328220  62.5980360  36.0138740
  54.9444380  63.8759730  36.0082000  67.3821810  71.6017030  43.3338750
  67.5069230  72.4248200  43.8062560  68.2487370  71.3907760  42.9862900
  54.8539340  73.6948240  43.0055880  55.5901820  73.1463700  43.2764450
  55.2380260  74.5604250  42.8661870  51.7384820  69.7621810  38.8797390
  50.8124600  70.0042950  38.8702800  52.2041250  70.5896070  38.7582140
  53.8597620  72.8794310  52.1941460  54.6610350  73.2006360  52.6076860
  53.3449440  72.5189890  52.9161370  57.9641650  72.8678550  34.8281450
  58.7570260  73.1567380  34.3763240  57.4446000  72.4370720  34.1493930
  62.6962250  68.9874180  52.1416870  62.0900410  69.0105780  51.4012620
  62.3916360  68.2557220  52.6784120  64.1262620  72.7154470  50.7526280
  65.0784370  72.6312490  50.7026520  63.9790840  73.3796180  51.4260070
  67.0171820  72.0948680  36.2518190  66.7313330  71.6813820  35.4372370
  66.8191370  73.0236390  36.1318710  51.5795430  65.3667770  51.1377510
  52.0834450  64.7875050  51.7093740  50.8402850  65.6508000  51.6753880
  58.4819050  68.0881960  34.6923800  58.3769690  67.4734310  35.4185180
  58.3143270  67.5647850  33.9086810  58.6333370  66.7738760  50.6713030
  57.8679040  67.3423760  50.5867700  58.8149330  66.4814970  49.7781260
  61.7221780  67.1501990  35.2965790  61.1731880  67.5971290  35.9408530
  62.3441040  66.6451240  35.8203460  65.7756720  68.5044090  51.2288050
  66.5166190  68.8419850  50.7255510  65.0129400  68.6736150  50.6757820
  53.6118510  63.5097360  52.0327580  53.6523850  63.2111230  52.9412810
  54.4664010  63.9104970  51.8735100  57.3896900  66.1092910  37.1931090
  57.8113320  65.9432780  38.0362480  57.5147740  65.2993140  36.6986230
  55.5524320  62.0889460  50.0002070  55.0220780  61.5980410  49.3725410
  56.2212390  62.5173660  49.4660000  59.9024540  65.1330520  34.4408190
  60.4230200  64.4179540  34.0749340  60.5492940  65.7716390  34.7408700
  64.4502380  66.5558920  49.7643260  64.8643400  66.7104000  50.6133680
  63.5153380  66.6814140  49.9269040  64.9224550  63.8955080  51.7682410
  65.5045320  63.1407400  51.6802890  65.0986320  64.4262520  50.9913890
  56.0396620  59.0551830  50.0799360  55.9453490  58.4372580  49.3550230
  55.4594010  59.7818120  49.8529270  58.8058060  57.6125070  47.1126750
  58.3575360  57.6349330  46.2672300  58.1723260  57.2144090  47.7097050
  59.2117610  66.5079400  47.7339190  59.6305720  67.3512130  47.5615430
  58.2926240  66.6451440  47.5045970  61.5481510  64.2395580  49.1177030
  61.6677720  63.6436720  49.8571870  62.4075510  64.2765270  48.6978330
  63.8869410  64.7932770  47.6939540  63.3604630  65.3175390  47.0904680
  64.2300750  65.4260160  48.3249270  56.2855800  62.1826140  34.1389250
  56.0844860  61.3193500  34.5002590  56.1147850  62.0959500  33.2010850
  57.0625030  72.8132410  48.8496920  56.5246120  73.5378470  48.5305620
  57.3158990  72.3362750  48.0594260  58.3150280  60.7816930  50.3752850
  58.9049970  60.4732780  51.0630670  57.4970520  60.3096680  50.5312750
  63.1343710  60.3982740  50.6085870  62.4459230  59.7364280  50.5435860
  63.8549730  59.9521010  51.0534330  63.7644110  56.9934370  36.6676130
  64.0446400  56.1502270  37.0235550  62.9909840  57.2257480  37.1814880
  59.9187240  74.0483620  49.1083570  59.8445940  74.9518760  49.4155940
  59.0166080  73.7295520  49.0805640  58.3023530  58.2261380  35.1123330
  57.9545530  57.5485370  34.5325780  58.5036300  57.7650890  35.9266720
  60.4672570  73.2142130  36.7309930  61.3623360  73.5527100  36.7528690
  60.4990200  72.4921540  36.1034210  54.1068730  68.5869180  34.9596930
  54.5443600  69.1298850  35.6154510  54.5916460  67.7616130  34.9693270
  51.3214530  71.3758210  42.4117190  51.6517540  70.5079270  42.1795830
  51.7505530  71.5816730  43.2422150  55.9176450  69.7067220  40.0719160
  55.6171990  69.5832190  40.9723070  55.8113940  68.8475810  39.6634890
  51.8104740  72.2428800  45.1498820  51.3735730  72.4229600  45.9822970
  52.3782420  73.0003420  45.0080540  67.4466920  71.7445800  49.4376130
  66.8468910  71.8038360  48.6940050  67.5760820  70.8050780  49.5672980
  68.6868370  69.4863620  34.7745840  67.8561330  69.5540270  35.2453070
  68.8640200  70.3767740  34.4712700  68.1424830  66.2311100  37.2780040
  68.9043740  66.8007750  37.3839730  68.1579200  65.6638300  38.0488350
  51.6429170  64.7549030  41.5087700  50.9878010  64.4860670  40.8647400
  52.4807120  64.6453510  41.0589680  69.1484800  67.0861200  42.1221970
  69.5193630  66.3028520  41.7157940  69.7886730  67.7750300  41.9439270
  66.1318560  68.4697780  47.5352290  65.3178400  68.8994940  47.7978080
  66.5392760  69.0816190  46.9221340  68.1944000  66.5245470  34.4352560
  68.4692840  67.4324350  34.3071780  68.0054740  66.4608000  35.3714550
  64.5919610  59.5490320  35.7306190  65.0104490  59.3621300  34.8902850
  64.2855670  58.6969370  36.0409120  68.0909340  64.4614460  39.4281990
  67.7152940  63.6942390  38.9963280  67.3612460  64.8437160  39.9156920
  52.6805100  65.1401600  46.0491040  53.0478140  65.0529000  46.9287060
  52.1115920  64.3768150  45.9497900  67.4808960  63.6085980  49.0621510
  67.2495050  63.3798730  48.1619460  67.7413510  64.5285530  49.0166400
  52.2321100  62.0510690  49.9549460  51.3377150  62.0177450  50.2943170
  52.7718650  62.2497480  50.7200710  65.9197030  58.8342410  51.8401210
  66.7967210  58.8425810  52.2235210  65.9317870  58.0973250  51.2293560
  50.8567250  61.9647960  37.4513030  49.9531330  62.2278160  37.2764690
  51.3407870  62.2359130  36.6712990  67.3660300  62.6871950  42.7289230
  67.8897780  62.1934600  42.0979400  67.9519720  62.8222310  43.4736800
  67.5450020  62.7711820  46.2508780  66.5952730  62.7375360  46.3653770
  67.7263030  63.6811930  46.0158550  53.3994460  61.0213500  35.3607410
  54.1086160  60.5996720  34.8754690  52.6834400  61.0888730  34.7290760
  53.0468620  57.0752830  34.4010060  53.7696750  57.6161770  34.7191280
  53.3193140  56.8016250  33.5251600  66.8560270  61.9445300  38.6681640
  67.3519390  61.7116170  39.4530520  66.6576340  61.1057140  38.2519280
  52.7360810  56.3259020  44.3032680  53.3837000  55.7756400  43.8627840
  53.1562650  56.5802170  45.1248490  68.2847430  60.5806250  41.2019320
  68.1746710  60.4262290  42.1401590  69.0455020  60.0527190  40.9594730
  66.6313150  56.5200380  47.6602320  67.2685370  57.1334520  48.0261510
  66.7788040  56.5561040  46.7151550  69.1737700  58.4114170  34.4425460
  70.0987010  58.2795350  34.2343750  69.1513490  58.4906990  35.3961910
  69.2476190  59.1824830  37.0682170  68.4527690  59.1169950  37.5975080
  69.4519470  60.1175470  37.0567520  66.1894610  73.2216380  41.0620560
  66.7853680  72.9000950  40.3854980  66.4472760  72.7488200  41.8533830
  52.4892810  56.4814690  47.0458000  52.1407630  56.9378510  47.8116180
  52.1580510  55.5871820  47.1280430  54.0957180  69.6534290  51.2111190
  54.0526810  69.2827200  52.0925650  54.2268190  70.5911860  51.3513010
  57.7963210  71.2093880  46.8120910  57.5554570  71.4768440  45.9251430
  58.7365850  71.3799610  46.8671770  60.0017630  57.6726570  50.5677420
  59.9406520  58.2648400  51.3172830  60.9418010  57.5652530  50.4227680
  62.6392190  57.3296630  50.2069710  63.2532600  57.6475920  49.5450790
  63.1841750  56.8445220  50.8265570  69.0567370  73.2288260  47.6131550
  68.5625650  73.6257130  46.8958680  68.4480660  72.6037470  48.0068830
  53.1613450  56.0090890  50.3208770  53.7096440  55.8278940  49.5574880
  53.2268760  55.2185000  50.8565080  53.9345210  72.5996540  48.3308970
  53.3405530  72.4681240  49.0699010  53.9269050  71.7634680  47.8651070
  63.3800230  55.8928770  46.5339000  62.5060070  56.2263880  46.3311930
  63.2710980  55.4201950  47.3590870  64.2872210  58.0999640  47.9180720
  63.9585570  57.2851400  47.5382450  65.2354510  58.0569450  47.7946410
  66.7406820  73.8711680  44.8918290  66.2809790  74.6227490  44.5176310
  66.1119280  73.1518150  44.8333090  53.5657440  69.9654920  47.2817010
  52.8391500  69.3460210  47.2142960  53.6266590  70.3595530  46.4115090
  57.1702540  72.1799920  44.0666420  57.6867560  71.5687280  43.5414680
  57.8199920  72.6828700  44.5577430  59.9098040  73.0708410  44.8935400
  60.1975850  72.8162710  44.0168410  60.4221260  72.5185770  45.4840970
  61.1275050  56.8098610  45.4731910  60.3446840  57.2844110  45.7528670
  60.8337980  55.9053440  45.3645090  65.6796120  57.5121710  43.5181000
  66.1204210  57.4566810  42.6702600  65.4103710  58.4279720  43.5891180
  67.5434690  57.1436950  41.5289820  67.4823090  56.1998170  41.3820840
  68.3226720  57.2517040  42.0743280  51.8487440  73.2829310  40.4913770
  51.6809480  72.6499990  41.1895660  50.9821950  73.4888710  40.1407960
  52.4715460  57.1146090  37.9945630  53.2294820  57.2274970  37.4209660
  52.0092630  57.9515290  37.9489060  59.0129270  59.2285360  40.9847940
  58.2003780  58.8542250  40.6443820  59.5170910  58.4730440  41.2869130
  63.5154250  55.8927810  42.2231010  64.1183620  56.4648020  42.6979530
  62.7747240  56.4567250  42.0004910  66.6588850  56.2949370  37.4971290
  66.8539480  57.1932820  37.7638720  65.8718720  56.0636450  37.9904240
  53.4550140  71.9762540  37.9363910  52.9297760  72.3570570  37.2325870
  53.3794720  72.6013310  38.6573620  54.8440610  57.6410140  36.5347600
  55.3733370  56.8539940  36.4055550  55.4768930  58.3201330  36.7683130
  57.0378450  57.3785280  39.5892990  56.4081190  56.6772590  39.7563120
  56.4983590  58.1389410  39.3726150  59.9770400  73.9924510  52.2603600
  60.9037710  73.7568780  52.3039560  59.9620830  74.8196510  51.7789630
  68.2115460  73.5350080  39.2577850  68.3867650  72.8487820  38.6138770
  67.5137030  74.0597130  38.8654520  57.1634010  56.6569260  52.0245480
  56.8818280  57.1602860  51.2606300  57.5453710  55.8591010  51.6587610
  56.0543110  73.9244920  36.8113160  56.7861930  73.6404200  36.2637050
  56.3136780  73.6858200  37.7012540  55.2157900  70.0409650  36.8159490
  54.5866780  70.5094750  37.3645320  55.3305730  69.1958870  37.2505680
  63.7649470  56.0722840  52.6025950  63.6514920  56.3917450  53.4977470
  64.5819210  56.4735350  52.3063230  66.5447960  73.2194370  52.0844640
  67.3373280  72.7243600  51.8770600  66.8381110  73.8984510  52.6920250
  62.6707620  64.0915310  22.9660690  62.5901670  63.1769920  22.6952400
  62.2572040  64.5882380  22.2600400  60.8025660  65.8694330  24.8469960
  60.0267760  65.3894770  25.1368530  61.4538590  65.1899980  24.6726120
  54.8191490  66.1814140  25.7245720  53.9876370  65.9262850  26.1242230
  55.4272470  66.2524910  26.4603640  64.8233090  70.2754520  23.6269090
  64.3614620  69.5041760  23.9556260  65.6358640  70.3020590  24.1321540
  54.7992750  70.2154230  25.9203740  55.1020790  69.3251970  25.7413960
  55.5436340  70.7724450  25.6925990  53.2283440  61.1416030  19.5088110
  52.3400140  61.4832000  19.4067990  53.5124630  60.9416350  18.6168940
  61.0496400  72.5612530  23.2473080  60.4307840  73.0170030  22.6767520
  61.9048180  72.7163990  22.8462780  60.2434650  68.5451520  24.8540120
  60.1742930  67.6041460  24.6929250  61.0054510  68.6352930  25.4262690
  55.4044830  59.7247530  20.5426490  55.5111580  60.6251260  20.8495250
  54.4937190  59.6765500  20.2521140  65.0563940  58.8472340  22.0137390
  65.8773560  58.3568910  22.0562870  65.0898020  59.4370000  22.7669230
  69.3463490  60.8639090  28.5781020  68.6415660  61.2520800  28.0596130
  69.6121410  61.5589380  29.1801950  61.9159750  67.4451770  20.6404990
  61.2977020  67.9101220  20.0767710  62.4283000  68.1379250  21.0574500
  56.7791510  66.9727640  27.3188590  56.4460890  67.5996560  27.9609660
  56.9558190  67.4989520  26.5390260  65.2925420  60.7872720  24.7864930
  64.5880990  61.0757610  25.3668040  65.6537580  61.5972830  24.4264490
  55.9910610  68.9408440  29.1337770  56.6084610  69.6159520  28.8522220
  55.1303730  69.3496420  29.0425270  51.2842950  68.1308300  18.0144620
  50.9070930  68.6195400  17.2829520  51.5416020  68.8033580  18.6451150
  66.9088200  70.4047850  27.0492410  66.2251720  71.0746960  27.0409080
  67.4482490  70.6028500  26.2837270  68.3612340  60.2327510  25.1774140
  67.4137250  60.2666490  25.3089570  68.6862330  61.0466460  25.5623500
  64.4446940  72.2491980  25.7637590  64.4574100  71.8454270  24.8959850
  63.8922160  73.0239270  25.6599020  65.7392360  68.9708200  20.8527760
  65.6288690  68.0282530  20.9777180  65.7360610  69.3323840  21.7390520
  63.8432380  67.1521820  27.0920200  64.2601170  66.9381930  26.2573660
  64.5672200  67.4094610  27.6628820  61.2812640  64.5973520  20.2090250
  60.3541920  64.5310900  20.4378720  61.4337460  65.5353650  20.0945490
  61.2681720  60.8690520  17.2057410  60.3285390  61.0304480  17.2909870
  61.5864980  61.5876200  16.6593400  67.7894480  65.5509040  27.1836440
  66.9613110  65.6202130  26.7086570  68.3844960  66.1363350  26.7152270
  65.3109930  66.1593820  20.7125500  64.6922350  65.8213370  20.0651800
  65.2934380  65.5153580  21.4204690  64.7536490  62.3378360  28.1291310
  64.3407670  63.1632070  28.3831300  64.0212440  61.7523400  27.9367670
  56.8869280  65.1238260  22.9909980  56.4826280  64.4115510  22.4955880
  56.9732400  64.7791500  23.8798020  57.3550980  68.8105820  25.1549190
  57.0579270  68.2051290  24.4756970  58.3050800  68.8483130  25.0438550
  65.4436590  72.3837690  28.8172290  64.9667150  73.1909880  28.6244900
  64.7598380  71.7316020  28.9698500  56.4469410  68.5487510  31.8056990
  55.5497940  68.7727480  32.0530390  56.4722280  68.6722450  30.8568390
  63.4874630  65.3980630  17.7198250  63.9267910  64.5603060  17.5736070
  64.2003050  66.0310030  17.8062390  55.2740630  65.4200830  30.3814360
  55.1348400  66.2923630  30.7501760  54.3921990  65.0773640  30.2362300
  61.5970010  70.3376700  21.6879490  62.0365920  71.0801030  21.2734880
  61.5356900  70.5803270  22.6118450  57.0720980  71.3622530  32.5899510
  57.0436410  71.7665480  31.7227940  56.9085950  70.4332890  32.4271110
  67.0691770  56.6523440  16.0339290  66.7564430  56.7450270  16.9338360
  67.8304240  57.2304470  15.9836720  53.5873910  64.0183240  20.4916630
  53.4671510  64.7445330  19.8797900  53.2774800  63.2486150  20.0144540
  69.0235800  72.1449630  33.8863680  69.4995520  72.6232520  34.5652760
  69.6442960  72.0767120  33.1609180  51.2259280  67.1898380  26.2985270
  51.3039700  67.3247150  25.3540990  51.8400960  66.4814270  26.4913390
  52.4706910  68.8898570  22.7091450  52.0634990  69.0313160  21.8545050
  53.3619920  68.6058730  22.5062660  68.4269050  69.3362480  31.0463690
  68.5532110  69.0974360  30.1280870  68.4690430  68.5047020  31.5185770
  62.2885790  73.0390480  29.6158500  62.8030460  72.9498490  30.4180930
  61.4454870  73.3850180  29.9086410  64.2640190  73.3245820  19.0442500
  64.1041330  73.0348760  19.9424330  64.0986900  72.5485950  18.5087730
  56.7428570  73.1044350  20.8214120  56.5671050  72.1879890  20.6081920
  55.8884310  73.4631640  21.0611920  63.9666320  70.8333380  17.6040500
  63.2731480  70.8310670  16.9442780  64.7089180  70.4092700  17.1734670
  63.5316250  72.4596090  21.6788990  63.9873200  71.6785470  21.9927610
  63.8708770  73.1702910  22.2230170  68.2793060  61.3894940  32.0113430
  67.6637330  61.8974610  31.4828890  67.9589480  60.4893270  31.9539370
  51.2818800  68.2312550  28.8379730  51.4449840  67.7617910  28.0199100
  51.7471250  67.7236110  29.5028570  65.3411890  61.4495780  30.6072280
  64.4905480  61.1501530  30.9281350  65.1813680  61.6937790  29.6956100
  62.4361600  62.9497530  32.7071070  62.7615010  62.1161280  32.3673300
  63.2241930  63.4726050  32.8549400  59.1696390  56.9829010  18.7546130
  58.5450570  56.9788880  19.4799440  59.0826510  56.1159970  18.3582100
  55.8451790  62.4851880  21.6021550  55.6192710  62.2689050  22.5068170
  55.0644320  62.9180340  21.2567520  63.0749550  62.4915250  20.2012200
  62.4758440  63.2151050  20.0175820  63.6229160  62.4292030  19.4188650
  58.2851000  63.3837460  32.2681820  58.1894600  62.4432190  32.1182220
  59.1282980  63.6052530  31.8729890  61.6814420  61.1278790  22.2315480
  62.0743990  61.4450990  21.4184170  62.0431270  60.2490670  22.3460000
  59.9906590  59.8786100  33.4912340  59.3004910  59.6858300  34.1258430
  60.7338890  60.1620740  34.0236640  50.9048820  61.6599710  15.6648400
  50.8223490  62.6030470  15.8063390  50.5531880  61.5174620  14.7860750
  62.2669560  63.7184540  26.3266260  61.5350680  64.2271350  26.6756360
  61.8693900  62.9014520  26.0255040  58.7667100  61.3950820  17.7225510
  58.8879920  61.3537300  18.6711330  58.3815610  62.2574970  17.5672240
  57.7788600  63.7051960  17.1208810  57.2105500  63.2570210  16.4944720
  58.4877600  64.0644740  16.5873960  66.1566220  56.5850400  31.5775580
  66.4811990  55.8540060  32.1033560  66.1922730  56.2664040  30.6756570
  52.8557780  67.6063980  30.9975540  52.4712570  66.9657650  31.5958500
  53.1669970  68.3100100  31.5670270  59.0054920  64.4540520  26.4784160
  59.3725050  63.9799090  27.2245500  58.8159980  65.3282090  26.8192500
  55.3236080  67.7010150  19.3935220  54.5498340  67.1607770  19.2333940
  56.0530710  67.1816760  19.0552980  66.0824060  66.6975510  25.1861610
  66.8023180  67.1930800  24.7957720  65.8805880  66.0193400  24.5415480
  61.5434000  58.0913470  19.3291000  60.7298610  57.5926640  19.2536310
  61.3495950  58.9311720  18.9127350  61.4642860  66.7684570  31.0730610
  61.3980170  65.8480240  30.8188200  60.8348000  66.8660010  31.7875250
  64.2582390  62.4633120  17.6253160  65.1462010  62.7750350  17.4504500
  64.2287480  61.5905370  17.2333740  55.3673480  67.3690530  23.0314030
  55.8852150  66.5658790  22.9770920  54.9157500  67.3069670  23.8730860
  60.2542980  68.6356810  18.3041330  60.5958680  69.3799040  17.8084650
  59.4255690  68.9487930  18.6666160  52.8518020  64.3351900  29.9439730
  52.4932960  65.0005750  30.5313070  52.5572580  63.5035450  30.3152350
  56.0531140  64.7936140  32.8279280  55.7531280  64.9393320  31.9307100
  56.8242380  64.2341430  32.7352670  61.3959590  69.5905140  30.8234410
  61.4104130  68.6586100  30.6053320  60.6884690  69.6764900  31.4624180
  66.5296660  63.7744960  17.0933020  66.4460380  64.2059180  16.2429460
  67.2490850  64.2343310  17.5259840  67.6070800  66.2312480  30.1702990
  66.8818990  66.8241260  29.9732380  68.1346260  66.2236020  29.3716360
  67.5583910  70.6287220  19.8215150  66.9160070  69.9742840  20.0958870
  67.1714570  71.0342310  19.0455820  63.1370390  67.9572650  23.6686840
  63.4894210  67.3600780  23.0088210  62.2532720  67.6316880  23.8395090
  59.2233670  68.7170340  21.0757250  59.9104800  69.2639550  21.4564840
  58.4366090  69.2611070  21.1106860  51.3626070  64.3343160  16.5674330
  52.2320920  64.6167960  16.8510250  50.8716390  65.1479030  16.4523140
  58.5260880  65.7216370  20.6882610  58.9823660  66.5321620  20.9142800
  58.1749090  65.4039510  21.5201100  60.8293490  71.2322710  27.9174910
  61.4735710  71.4382090  28.5948330  61.1922930  70.4711110  27.4645760
  54.4272660  56.0654020  21.1605130  54.2987290  56.0571920  22.1090050
  53.6034680  56.4037110  20.8096140  62.1025570  69.2355060  26.6352360
  62.7447800  68.5348220  26.7484530  62.6274920  70.0153500  26.4549250
  65.9481290  69.5203680  16.3591500  65.7218870  68.8034120  16.9516140
  65.5577490  69.2716120  15.5213250  63.8763190  70.0349960  29.8388420
  64.2119430  70.6216650  30.5166340  62.9563530  69.9042670  30.0686210
  51.7297320  73.5470540  17.1335960  52.0894960  74.1459880  16.4793230
  51.5889660  74.0930430  17.9070990  65.5297540  67.4375620  18.0205660
  65.2419240  67.8988310  18.8083540  66.3249710  66.9773390  18.2889880
  51.7139180  71.8125400  31.6078360  51.8230300  70.8720140  31.4673750
  51.0619740  72.0780150  30.9592090  59.7051770  70.0841290  33.0076480
  59.3848640  69.3650530  33.5522170  59.0310130  70.7596360  33.0812540
  57.7465940  70.9301740  17.9509630  57.7376040  71.6631430  17.3354140
  56.8264300  70.6833320  18.0436590  53.3472580  66.1516630  18.6956390
  52.7400530  66.8915530  18.7051690  53.8221930  66.2415990  17.8694590
  62.9205370  60.3167450  28.3713280  63.2886190  59.4962660  28.6992850
  62.0603570  60.3769340  28.7868930  66.2867400  59.2724390  19.1800840
  65.6580560  59.3770060  18.4659070  65.7919320  59.4921170  19.9694720
  60.7325540  70.9929980  16.6134820  60.8337520  70.7893970  15.6836800
  59.8327280  70.7388260  16.8182600  58.2551430  61.5510340  20.5958720
  57.5467580  62.0196680  21.0372330  58.5395910  60.8932350  21.2303910
  59.8807360  62.9707040  28.5951250  60.3792610  63.4452860  29.2603100
  60.0230310  62.0470560  28.8021280  62.2866860  58.2761000  22.0354510
  62.1634640  58.2947130  21.0864020  63.2351420  58.3239940  22.1552910
  59.3743650  73.5116300  21.3082490  59.6285150  73.4737690  20.3861860
  58.4256130  73.3849630  21.3010740  56.4586450  59.8595420  17.9709430
  57.3076980  60.2965570  17.9049620  56.0917720  60.1715680  18.7981490
  67.0874220  59.1875000  29.4379640  66.5847820  59.9280400  29.7773450
  67.9030880  59.5759000  29.1216430  65.3796230  64.4308180  22.8841000
  64.4386370  64.4458410  23.0588690  65.6940300  63.6444140  23.3301300
  55.3577870  66.1127780  16.4444960  56.1241140  66.0009140  17.0070390
  55.4352560  65.4165750  15.7921730  54.0524630  63.5452850  17.1277850
  54.1328220  62.5980360  17.2395250  54.9444380  63.8759730  17.2338510
  67.3821810  71.6017030  24.5595260  67.5069230  72.4248200  25.0319070
  68.2487370  71.3907760  24.2119410  54.8539340  73.6948240  24.2312390
  55.5901820  73.1463700  24.5020960  55.2380260  74.5604250  24.0918380
  51.7384820  69.7621810  20.1053900  50.8124600  70.0042950  20.0959310
  52.2041250  70.5896070  19.9838650  53.8597620  72.8794310  33.4197970
  54.6610350  73.2006360  33.8333370  53.3449440  72.5189890  34.1417880
  57.9641650  72.8678550  16.0537960  58.7570260  73.1567380  15.6019750
  57.4446000  72.4370720  15.3750440  62.6962250  68.9874180  33.3673380
  62.0900410  69.0105780  32.6269130  62.3916360  68.2557220  33.9040630
  64.1262620  72.7154470  31.9782790  65.0784370  72.6312490  31.9283030
  63.9790840  73.3796180  32.6516580  67.0171820  72.0948680  17.4774700
  66.7313330  71.6813820  16.6628880  66.8191370  73.0236390  17.3575220
  51.5795430  65.3667770  32.3634020  52.0834450  64.7875050  32.9350250
  50.8402850  65.6508000  32.9010390  58.4819050  68.0881960  15.9180310
  58.3769690  67.4734310  16.6441690  58.3143270  67.5647850  15.1343320
  58.6333370  66.7738760  31.8969540  57.8679040  67.3423760  31.8124210
  58.8149330  66.4814970  31.0037770  61.7221780  67.1501990  16.5222300
  61.1731880  67.5971290  17.1665040  62.3441040  66.6451240  17.0459970
  65.7756720  68.5044090  32.4544560  66.5166190  68.8419850  31.9512020
  65.0129400  68.6736150  31.9014330  53.6118510  63.5097360  33.2584090
  53.6523850  63.2111230  34.1669320  54.4664010  63.9104970  33.0991610
  57.3896900  66.1092910  18.4187600  57.8113320  65.9432780  19.2618990
  57.5147740  65.2993140  17.9242740  59.9024540  65.1330520  15.6664700
  60.4230200  64.4179540  15.3005850  60.5492940  65.7716390  15.9665210
  64.4502380  66.5558920  30.9899770  64.8643400  66.7104000  31.8390190
  63.5153380  66.6814140  31.1525550  64.9224550  63.8955080  32.9938920
  65.5045320  63.1407400  32.9059400  65.0986320  64.4262520  32.2170400
  59.2117610  66.5079400  28.9595700  59.6305720  67.3512130  28.7871940
  58.2926240  66.6451440  28.7302480  61.5481510  64.2395580  30.3433540
  61.6677720  63.6436720  31.0828380  62.4075510  64.2765270  29.9234840
  63.8869410  64.7932770  28.9196050  63.3604630  65.3175390  28.3161190
  64.2300750  65.4260160  29.5505780  56.2855800  62.1826140  15.3645760
  56.0844860  61.3193500  15.7259100  56.1147850  62.0959500  14.4267360
  57.0625030  72.8132410  30.0753430  56.5246120  73.5378470  29.7562130
  57.3158990  72.3362750  29.2850770  63.1343710  60.3982740  31.8342380
  62.4459230  59.7364280  31.7692370  63.8549730  59.9521010  32.2790840
  63.7644110  56.9934370  17.8932640  64.0446400  56.1502270  18.2492060
  62.9909840  57.2257480  18.4071390  55.0838600  59.2826760  15.3523640
  55.3864500  59.2894190  14.4442790  55.8233190  58.9324620  15.8491300
  59.9187240  74.0483620  30.3340080  59.8445940  74.9518760  30.6412450
  59.0166080  73.7295520  30.3062150  58.3023530  58.2261380  16.3379840
  57.9545530  57.5485370  15.7582290  58.5036300  57.7650890  17.1523230
  60.4672570  73.2142130  17.9566440  61.3623360  73.5527100  17.9785200
  60.4990200  72.4921540  17.3290720  54.1068730  68.5869180  16.1853440
  54.5443600  69.1298850  16.8411020  54.5916460  67.7616130  16.1949780
  51.3214530  71.3758210  23.6373700  51.6517540  70.5079270  23.4052340
  51.7505530  71.5816730  24.4678660  55.9176450  69.7067220  21.2975670
  55.6171990  69.5832190  22.1979580  55.8113940  68.8475810  20.8891400
  51.8104740  72.2428800  26.3755330  51.3735730  72.4229600  27.2079480
  52.3782420  73.0003420  26.2337050  67.4466920  71.7445800  30.6632640
  66.8468910  71.8038360  29.9196560  67.5760820  70.8050780  30.7929490
  68.6868370  69.4863620  16.0002350  67.8561330  69.5540270  16.4709580
  68.8640200  70.3767740  15.6969210  68.1424830  66.2311100  18.5036550
  68.9043740  66.8007750  18.6096240  68.1579200  65.6638300  19.2744860
  51.6429170  64.7549030  22.7344210  50.9878010  64.4860670  22.0903910
  52.4807120  64.6453510  22.2846190  69.1484800  67.0861200  23.3478480
  69.5193630  66.3028520  22.9414450  69.7886730  67.7750300  23.1695780
  66.1318560  68.4697780  28.7608800  65.3178400  68.8994940  29.0234590
  66.5392760  69.0816190  28.1477850  68.1944000  66.5245470  15.6609070
  68.4692840  67.4324350  15.5328290  68.0054740  66.4608000  16.5971060
  64.5919610  59.5490320  16.9562700  65.0104490  59.3621300  16.1159360
  64.2855670  58.6969370  17.2665630  68.0909340  64.4614460  20.6538500
  67.7152940  63.6942390  20.2219790  67.3612460  64.8437160  21.1413430
  67.4808960  63.6085980  30.2878020  67.2495050  63.3798730  29.3875970
  67.7413510  64.5285530  30.2422910  52.2321100  62.0510690  31.1805970
  51.3377150  62.0177450  31.5199680  52.7718650  62.2497480  31.9457220
  65.9197030  58.8342410  33.0657720  66.7967210  58.8425810  33.4491720
  65.9317870  58.0973250  32.4550070  50.8567250  61.9647960  18.6769540
  49.9531330  62.2278160  18.5021200  51.3407870  62.2359130  17.8969500
  67.3660300  62.6871950  23.9545740  67.8897780  62.1934600  23.3235910
  67.9519720  62.8222310  24.6993310  67.5450020  62.7711820  27.4765290
  66.5952730  62.7375360  27.5910280  67.7263030  63.6811930  27.2415060
  53.3994460  61.0213500  16.5863920  54.1086160  60.5996720  16.1011200
  52.6834400  61.0888730  15.9547270  53.0468620  57.0752830  15.6266570
  53.7696750  57.6161770  15.9447790  53.3193140  56.8016250  14.7508110
  66.8560270  61.9445300  19.8938150  67.3519390  61.7116170  20.6787030
  66.6576340  61.1057140  19.4775790  68.2847430  60.5806250  22.4275830
  68.1746710  60.4262290  23.3658100  69.0455020  60.0527190  22.1851240
  66.6313150  56.5200380  28.8858830  67.2685370  57.1334520  29.2518020
  66.7788040  56.5561040  27.9408060  69.1737700  58.4114170  15.6681970
  70.0987010  58.2795350  15.4600260  69.1513490  58.4906990  16.6218420
  69.2476190  59.1824830  18.2938680  68.4527690  59.1169950  18.8231590
  69.4519470  60.1175470  18.2824030  66.1894610  73.2216380  22.2877070
  66.7853680  72.9000950  21.6111490  66.4472760  72.7488200  23.0790340
  54.0957180  69.6534290  32.4367700  54.0526810  69.2827200  33.3182160
  54.2268190  70.5911860  32.5769520  57.7963210  71.2093880  28.0377420
  57.5554570  71.4768440  27.1507940  58.7365850  71.3799610  28.0928280
  62.6392190  57.3296630  31.4326220  63.2532600  57.6475920  30.7707300
  63.1841750  56.8445220  32.0522080  69.0567370  73.2288260  28.8388060
  68.5625650  73.6257130  28.1215190  68.4480660  72.6037470  29.2325340
  53.9345210  72.5996540  29.5565480  53.3405530  72.4681240  30.2955520
  53.9269050  71.7634680  29.0907580  63.3800230  55.8928770  27.7595510
  62.5060070  56.2263880  27.5568440  63.2710980  55.4201950  28.5847380
  64.2872210  58.0999640  29.1437230  63.9585570  57.2851400  28.7638960
  65.2354510  58.0569450  29.0202920  66.7406820  73.8711680  26.1174800
  66.2809790  74.6227490  25.7432820  66.1119280  73.1518150  26.0589600
  53.5657440  69.9654920  28.5073520  52.8391500  69.3460210  28.4399470
  53.6266590  70.3595530  27.6371600  57.1702540  72.1799920  25.2922930
  57.6867560  71.5687280  24.7671190  57.8199920  72.6828700  25.7833940
  59.9098040  73.0708410  26.1191910  60.1975850  72.8162710  25.2424920
  60.4221260  72.5185770  26.7097480  65.6796120  57.5121710  24.7437510
  66.1204210  57.4566810  23.8959110  65.4103710  58.4279720  24.8147690
  67.5434690  57.1436950  22.7546330  67.4823090  56.1998170  22.6077350
  68.3226720  57.2517040  23.2999790  51.8487440  73.2829310  21.7170280
  51.6809480  72.6499990  22.4152170  50.9821950  73.4888710  21.3664470
  52.4715460  57.1146090  19.2202140  53.2294820  57.2274970  18.6466170
  52.0092630  57.9515290  19.1745570  63.5154250  55.8927810  23.4487520
  64.1183620  56.4648020  23.9236040  62.7747240  56.4567250  23.2261420
  66.6588850  56.2949370  18.7227800  66.8539480  57.1932820  18.9895230
  65.8718720  56.0636450  19.2160750  53.4550140  71.9762540  19.1620420
  52.9297760  72.3570570  18.4582380  53.3794720  72.6013310  19.8830130
  54.8440610  57.6410140  17.7604110  55.3733370  56.8539940  17.6312060
  55.4768930  58.3201330  17.9939640  57.0378450  57.3785280  20.8149500
  56.4081190  56.6772590  20.9819630  56.4983590  58.1389410  20.5982660
  59.9770400  73.9924510  33.4860110  60.9037710  73.7568780  33.5296070
  59.9620830  74.8196510  33.0046140  68.2115460  73.5350080  20.4834360
  68.3867650  72.8487820  19.8395280  67.5137030  74.0597130  20.0911030
  57.1634010  56.6569260  33.2501990  56.8818280  57.1602860  32.4862810
  57.5453710  55.8591010  32.8844120  56.0543110  73.9244920  18.0369670
  56.7861930  73.6404200  17.4893560  56.3136780  73.6858200  18.9269050
  55.2157900  70.0409650  18.0416000  54.5866780  70.5094750  18.5901830
  55.3305730  69.1958870  18.4762190  63.7649470  56.0722840  33.8282460
  63.6514920  56.3917450  34.7233980  64.5819210  56.4735350  33.5319740
  66.5447960  73.2194370  33.3101150  67.3373280  72.7243600  33.1027110
  66.8381110  73.8984510  33.9176760  62.6707620  64.0915310   4.1917200
  62.5901670  63.1769920   3.9208910  62.2572040  64.5882380   3.4856910
  60.8025660  65.8694330   6.0726470  60.0267760  65.3894770   6.3625040
  61.4538590  65.1899980   5.8982630  54.8191490  66.1814140   6.9502230
  53.9876370  65.9262850   7.3498740  55.4272470  66.2524910   7.6860150
  64.8233090  70.2754520   4.8525600  64.3614620  69.5041760   5.1812770
  65.6358640  70.3020590   5.3578050  54.7992750  70.2154230   7.1460250
  55.1020790  69.3251970   6.9670470  55.5436340  70.7724450   6.9182500
  51.1916450  63.7421680   6.6184320  51.7632560  62.9743880   6.6187960
  51.1917990  64.0410440   5.7090930  61.0496400  72.5612530   4.4729590
  60.4307840  73.0170030   3.9024030  61.9048180  72.7163990   4.0719290
  60.2434650  68.5451520   6.0796630  60.1742930  67.6041460   5.9185760
  61.0054510  68.6352930   6.6519200  52.4341320  59.1506040   8.4053250
  52.2544160  58.2531790   8.6856010  52.0321400  59.6977910   9.0800200
  61.2739820  61.3521900   6.3065560  61.6504640  60.4793780   6.1939230
  61.1759330  61.6880600   5.4156000  55.4044830  59.7247530   1.7683000
  55.5111580  60.6251260   2.0751760  54.4937190  59.6765500   1.4777650
  65.0563940  58.8472340   3.2393900  65.8773560  58.3568910   3.2819380
  65.0898020  59.4370000   3.9925740  53.0527990  61.6466540   7.0135590
  53.7338100  61.9104910   7.6322990  52.7376040  60.8067410   7.3473600
  57.2452560  62.6933900   6.1008180  57.7530780  63.1914870   6.7413200
  57.7765800  61.9169100   5.9247540  69.3463490  60.8639090   9.8037530
  68.6415660  61.2520800   9.2852640  69.6121410  61.5589380  10.4058460
  55.5288660  57.3332460  10.3671600  55.5307100  57.8504850   9.5617500
  54.6992970  56.8562640  10.3441530  56.7791510  66.9727640   8.5445100
  56.4460890  67.5996560   9.1866170  56.9558190  67.4989520   7.7646770
  65.2925420  60.7872720   6.0121440  64.5880990  61.0757610   6.5924550
  65.6537580  61.5972830   5.6521000  55.2103990  59.0442420   8.3742050
  55.5520800  59.8884470   8.0795920  54.2719800  59.1926160   8.4907390
  55.9910610  68.9408440  10.3594280  56.6084610  69.6159520  10.0778730
  55.1303730  69.3496420  10.2681780  66.9088200  70.4047850   8.2748920
  66.2251720  71.0746960   8.2665590  67.4482490  70.6028500   7.5093780
  68.3612340  60.2327510   6.4030650  67.4137250  60.2666490   6.5346080
  68.6862330  61.0466460   6.7880010  58.8931880  56.5324690   4.6986640
  59.2006860  55.9771580   3.9822140  57.9632580  56.6669150   4.5159630
  64.4446940  72.2491980   6.9894100  64.4574100  71.8454270   6.1216360
  63.8922160  73.0239270   6.8855530  65.7392360  68.9708200   2.0784270
  65.6288690  68.0282530   2.2033690  65.7360610  69.3323840   2.9647030
  63.8432380  67.1521820   8.3176710  64.2601170  66.9381930   7.4830170
  64.5672200  67.4094610   8.8885330  67.7894480  65.5509040   8.4092950
  66.9613110  65.6202130   7.9343080  68.3844960  66.1363350   7.9408780
  64.7536490  62.3378360   9.3547820  64.3407670  63.1632070   9.6087810
  64.0212440  61.7523400   9.1624180  56.8869280  65.1238260   4.2166490
  56.4826280  64.4115510   3.7212390  56.9732400  64.7791500   5.1054530
  57.3550980  68.8105820   6.3805700  57.0579270  68.2051290   5.7013480
  58.3050800  68.8483130   6.2695060  55.5997900  61.8981470   7.9965530
  56.1512490  62.0076810   7.2218780  56.1141410  62.2719070   8.7120760
  65.4436590  72.3837690  10.0428800  64.9667150  73.1909880   9.8501410
  64.7598380  71.7316020  10.1955010  56.4469410  68.5487510  13.0313500
  55.5497940  68.7727480  13.2786900  56.4722280  68.6722450  12.0824900
  55.2740630  65.4200830  11.6070870  55.1348400  66.2923630  11.9758270
  54.3921990  65.0773640  11.4618810  61.5970010  70.3376700   2.9136000
  62.0365920  71.0801030   2.4991390  61.5356900  70.5803270   3.8374960
  57.0720980  71.3622530  13.8156020  57.0436410  71.7665480  12.9484450
  56.9085950  70.4332890  13.6527620  69.0235800  72.1449630  15.1120190
  69.4995520  72.6232520  15.7909270  69.6442960  72.0767120  14.3865690
  51.2259280  67.1898380   7.5241780  51.3039700  67.3247150   6.5797500
  51.8400960  66.4814270   7.7169900  52.4706910  68.8898570   3.9347960
  52.0634990  69.0313160   3.0801560  53.3619920  68.6058730   3.7319170
  68.4269050  69.3362480  12.2720200  68.5532110  69.0974360  11.3537380
  68.4690430  68.5047020  12.7442280  62.2885790  73.0390480  10.8415010
  62.8030460  72.9498490  11.6437440  61.4454870  73.3850180  11.1342920
  56.7428570  73.1044350   2.0470630  56.5671050  72.1879890   1.8338430
  55.8884310  73.4631640   2.2868430  63.5316250  72.4596090   2.9045500
  63.9873200  71.6785470   3.2184120  63.8708770  73.1702910   3.4486680
  68.2793060  61.3894940  13.2369940  67.6637330  61.8974610  12.7085400
  67.9589480  60.4893270  13.1795880  51.2818800  68.2312550  10.0636240
  51.4449840  67.7617910   9.2455610  51.7471250  67.7236110  10.7285080
  56.0537570  57.3618310   5.0996810  55.6105720  58.1427850   4.7681330
  56.6122560  57.6848200   5.8067750  60.3407380  60.2286830  10.7032130
  59.8786750  60.4369850  11.5152070  59.9385490  59.4146180  10.4002800
  65.3411890  61.4495780  11.8328790  64.4905480  61.1501530  12.1537860
  65.1813680  61.6937790  10.9212610  62.4361600  62.9497530  13.9327580
  62.7615010  62.1161280  13.5929810  63.2241930  63.4726050  14.0805910
  58.0913470  57.9065640   6.9586410  58.3885800  58.8128470   6.8778430
  58.6399030  57.4184420   6.3445980  55.8451790  62.4851880   2.8278060
  55.6192710  62.2689050   3.7324680  55.0644320  62.9180340   2.4824030
  58.2851000  63.3837460  13.4938330  58.1894600  62.4432190  13.3438730
  59.1282980  63.6052530  13.0986400  61.6814420  61.1278790   3.4571990
  62.0743990  61.4450990   2.6440680  62.0431270  60.2490670   3.5716510
  53.4161540  59.7951130  11.6472110  53.0224930  60.6426340  11.8544890
  52.7279940  59.1577500  11.8380750  59.9906590  59.8786100  14.7168850
  59.3004910  59.6858300  15.3514940  60.7338890  60.1620740  15.2493150
  50.7178590  57.7179590   5.6802190  50.4291640  58.2882450   6.3927170
  51.4624350  57.2384040   6.0433420  62.2669560  63.7184540   7.5522770
  61.5350680  64.2271350   7.9012870  61.8693900  62.9014520   7.2511550
  58.7046950  60.3938740   5.9575260  58.7083010  59.9528690   5.1079800
  59.5998070  60.7156070   6.0647080  54.5549330  60.2765230   4.9169470
  54.2149380  60.7540460   5.6736520  53.7926650  59.8230350   4.5570570
  62.7295470  59.1718220   6.9645710  62.7468210  59.6226870   7.8087560
  62.4811050  58.2723860   7.1779150  66.1566220  56.5850400  12.8032090
  66.4811990  55.8540060  13.3290070  66.1922730  56.2664040  11.9013080
  52.8557780  67.6063980  12.2232050  52.4712570  66.9657650  12.8215010
  53.1669970  68.3100100  12.7926780  59.0054920  64.4540520   7.7040670
  59.3725050  63.9799090   8.4502010  58.8159980  65.3282090   8.0449010
  51.8695410  59.1984210   3.8334140  51.5842330  58.8339880   4.6712760
  51.8074270  58.4664670   3.2197280  56.7954290  63.4949160  10.0224880
  56.4911360  64.3741140  10.2475240  57.7500750  63.5548950  10.0582320
  66.0824060  66.6975510   6.4118120  66.8023180  67.1930800   6.0214230
  65.8805880  66.0193400   5.7671990  61.4642860  66.7684570  12.2987120
  61.3980170  65.8480240  12.0444710  60.8348000  66.8660010  13.0131760
  55.3673480  67.3690530   4.2570540  55.8852150  66.5658790   4.2027430
  54.9157500  67.3069670   5.0987370  52.8518020  64.3351900  11.1696240
  52.4932960  65.0005750  11.7569580  52.5572580  63.5035450  11.5408860
  56.0531140  64.7936140  14.0535790  55.7531280  64.9393320  13.1563610
  56.8242380  64.2341430  13.9609180  61.3959590  69.5905140  12.0490920
  61.4104130  68.6586100  11.8309830  60.6884690  69.6764900  12.6880690
  67.6070800  66.2312480  11.3959500  66.8818990  66.8241260  11.1988890
  68.1346260  66.2236020  10.5972870  63.1370390  67.9572650   4.8943350
  63.4894210  67.3600780   4.2344720  62.2532720  67.6316880   5.0651600
  59.2233670  68.7170340   2.3013760  59.9104800  69.2639550   2.6821350
  58.4366090  69.2611070   2.3363370  58.5260880  65.7216370   1.9139120
  58.9823660  66.5321620   2.1399310  58.1749090  65.4039510   2.7457610
  60.8293490  71.2322710   9.1431420  61.4735710  71.4382090   9.8204840
  61.1922930  70.4711110   8.6902270  54.4272660  56.0654020   2.3861640
  54.2987290  56.0571920   3.3346560  53.6034680  56.4037110   2.0352650
  62.1025570  69.2355060   7.8608870  62.7447800  68.5348220   7.9741040
  62.6274920  70.0153500   7.6805760  63.8763190  70.0349960  11.0644930
  64.2119430  70.6216650  11.7422850  62.9563530  69.9042670  11.2942720
  51.4266590  57.8245140  11.8468340  50.7125110  58.0242060  12.4520950
  51.8461630  57.0484710  12.2183140  51.7139180  71.8125400  12.8334870
  51.8230300  70.8720140  12.6930260  51.0619740  72.0780150  12.1848600
  59.7051770  70.0841290  14.2332990  59.3848640  69.3650530  14.7778680
  59.0310130  70.7596360  14.3069050  62.9205370  60.3167450   9.5969790
  63.2886190  59.4962660   9.9249360  62.0603570  60.3769340  10.0125440
  58.2551430  61.5510340   1.8215230  57.5467580  62.0196680   2.2628840
  58.5395910  60.8932350   2.4560420  59.8807360  62.9707040   9.8207760
  60.3792610  63.4452860  10.4859610  60.0230310  62.0470560  10.0277790
  62.2866860  58.2761000   3.2611020  62.1634640  58.2947130   2.3120530
  63.2351420  58.3239940   3.3809420  59.3743650  73.5116300   2.5339000
  59.6285150  73.4737690   1.6118370  58.4256130  73.3849630   2.5267250
  67.0874220  59.1875000  10.6636150  66.5847820  59.9280400  11.0029960
  67.9030880  59.5759000  10.3472940  65.3796230  64.4308180   4.1097510
  64.4386370  64.4458410   4.2845200  65.6940300  63.6444140   4.5557810
  67.3821810  71.6017030   5.7851770  67.5069230  72.4248200   6.2575580
  68.2487370  71.3907760   5.4375920  54.8539340  73.6948240   5.4568900
  55.5901820  73.1463700   5.7277470  55.2380260  74.5604250   5.3174890
  53.8597620  72.8794310  14.6454480  54.6610350  73.2006360  15.0589880
  53.3449440  72.5189890  15.3674390  62.6962250  68.9874180  14.5929890
  62.0900410  69.0105780  13.8525640  62.3916360  68.2557220  15.1297140
  64.1262620  72.7154470  13.2039300  65.0784370  72.6312490  13.1539540
  63.9790840  73.3796180  13.8773090  51.5795430  65.3667770  13.5890530
  52.0834450  64.7875050  14.1606760  50.8402850  65.6508000  14.1266900
  58.6333370  66.7738760  13.1226050  57.8679040  67.3423760  13.0380720
  58.8149330  66.4814970  12.2294280  65.7756720  68.5044090  13.6801070
  66.5166190  68.8419850  13.1768530  65.0129400  68.6736150  13.1270840
  53.6118510  63.5097360  14.4840600  53.6523850  63.2111230  15.3925830
  54.4664010  63.9104970  14.3248120  55.5524320  62.0889460  12.4515090
  55.0220780  61.5980410  11.8238430  56.2212390  62.5173660  11.9173020
  64.4502380  66.5558920  12.2156280  64.8643400  66.7104000  13.0646700
  63.5153380  66.6814140  12.3782060  64.9224550  63.8955080  14.2195430
  65.5045320  63.1407400  14.1315910  65.0986320  64.4262520  13.4426910
  56.0396620  59.0551830  12.5312380  55.9453490  58.4372580  11.8063250
  55.4594010  59.7818120  12.3042290  58.8058060  57.6125070   9.5639770
  58.3575360  57.6349330   8.7185320  58.1723260  57.2144090  10.1610070
  59.2117610  66.5079400  10.1852210  59.6305720  67.3512130  10.0128450
  58.2926240  66.6451440   9.9558990  61.5481510  64.2395580  11.5690050
  61.6677720  63.6436720  12.3084890  62.4075510  64.2765270  11.1491350
  63.8869410  64.7932770  10.1452560  63.3604630  65.3175390   9.5417700
  64.2300750  65.4260160  10.7762290  57.0625030  72.8132410  11.3009940
  56.5246120  73.5378470  10.9818640  57.3158990  72.3362750  10.5107280
  58.3150280  60.7816930  12.8265870  58.9049970  60.4732780  13.5143690
  57.4970520  60.3096680  12.9825770  63.1343710  60.3982740  13.0598890
  62.4459230  59.7364280  12.9948880  63.8549730  59.9521010  13.5047350
  59.9187240  74.0483620  11.5596590  59.8445940  74.9518760  11.8668960
  59.0166080  73.7295520  11.5318660  51.3214530  71.3758210   4.8630210
  51.6517540  70.5079270   4.6308850  51.7505530  71.5816730   5.6935170
  55.9176450  69.7067220   2.5232180  55.6171990  69.5832190   3.4236090
  55.8113940  68.8475810   2.1147910  51.8104740  72.2428800   7.6011840
  51.3735730  72.4229600   8.4335990  52.3782420  73.0003420   7.4593560
  67.4466920  71.7445800  11.8889150  66.8468910  71.8038360  11.1453070
  67.5760820  70.8050780  12.0186000  51.6429170  64.7549030   3.9600720
  50.9878010  64.4860670   3.3160420  52.4807120  64.6453510   3.5102700
  69.1484800  67.0861200   4.5734990  69.5193630  66.3028520   4.1670960
  69.7886730  67.7750300   4.3952290  66.1318560  68.4697780   9.9865310
  65.3178400  68.8994940  10.2491100  66.5392760  69.0816190   9.3734360
  68.0909340  64.4614460   1.8795010  67.7152940  63.6942390   1.4476300
  67.3612460  64.8437160   2.3669940  52.6805100  65.1401600   8.5004060
  53.0478140  65.0529000   9.3800080  52.1115920  64.3768150   8.4010920
  67.4808960  63.6085980  11.5134530  67.2495050  63.3798730  10.6132480
  67.7413510  64.5285530  11.4679420  52.2321100  62.0510690  12.4062480
  51.3377150  62.0177450  12.7456190  52.7718650  62.2497480  13.1713730
  65.9197030  58.8342410  14.2914230  66.7967210  58.8425810  14.6748230
  65.9317870  58.0973250  13.6806580  67.3660300  62.6871950   5.1802250
  67.8897780  62.1934600   4.5492420  67.9519720  62.8222310   5.9249820
  67.5450020  62.7711820   8.7021800  66.5952730  62.7375360   8.8166790
  67.7263030  63.6811930   8.4671570  52.7360810  56.3259020   6.7545700
  53.3837000  55.7756400   6.3140860  53.1562650  56.5802170   7.5761510
  68.2847430  60.5806250   3.6532340  68.1746710  60.4262290   4.5914610
  69.0455020  60.0527190   3.4107750  66.6313150  56.5200380  10.1115340
  67.2685370  57.1334520  10.4774530  66.7788040  56.5561040   9.1664570
  66.1894610  73.2216380   3.5133580  66.7853680  72.9000950   2.8368000
  66.4472760  72.7488200   4.3046850  52.4892810  56.4814690   9.4971020
  52.1407630  56.9378510  10.2629200  52.1580510  55.5871820   9.5793450
  54.0957180  69.6534290  13.6624210  54.0526810  69.2827200  14.5438670
  54.2268190  70.5911860  13.8026030  57.7963210  71.2093880   9.2633930
  57.5554570  71.4768440   8.3764450  58.7365850  71.3799610   9.3184790
  60.0017630  57.6726570  13.0190440  59.9406520  58.2648400  13.7685850
  60.9418010  57.5652530  12.8740700  62.6392190  57.3296630  12.6582730
  63.2532600  57.6475920  11.9963810  63.1841750  56.8445220  13.2778590
  69.0567370  73.2288260  10.0644570  68.5625650  73.6257130   9.3471700
  68.4480660  72.6037470  10.4581850  53.1613450  56.0090890  12.7721790
  53.7096440  55.8278940  12.0087900  53.2268760  55.2185000  13.3078100
  53.9345210  72.5996540  10.7821990  53.3405530  72.4681240  11.5212030
  53.9269050  71.7634680  10.3164090  63.3800230  55.8928770   8.9852020
  62.5060070  56.2263880   8.7824950  63.2710980  55.4201950   9.8103890
  64.2872210  58.0999640  10.3693740  63.9585570  57.2851400   9.9895470
  65.2354510  58.0569450  10.2459430  66.7406820  73.8711680   7.3431310
  66.2809790  74.6227490   6.9689330  66.1119280  73.1518150   7.2846110
  53.5657440  69.9654920   9.7330030  52.8391500  69.3460210   9.6655980
  53.6266590  70.3595530   8.8628110  57.1702540  72.1799920   6.5179440
  57.6867560  71.5687280   5.9927700  57.8199920  72.6828700   7.0090450
  59.9098040  73.0708410   7.3448420  60.1975850  72.8162710   6.4681430
  60.4221260  72.5185770   7.9353990  61.1275050  56.8098610   7.9244930
  60.3446840  57.2844110   8.2041690  60.8337980  55.9053440   7.8158110
  65.6796120  57.5121710   5.9694020  66.1204210  57.4566810   5.1215620
  65.4103710  58.4279720   6.0404200  67.5434690  57.1436950   3.9802840
  67.4823090  56.1998170   3.8333860  68.3226720  57.2517040   4.5256300
  51.8487440  73.2829310   2.9426790  51.6809480  72.6499990   3.6408680
  50.9821950  73.4888710   2.5920980  59.0129270  59.2285360   3.4360960
  58.2003780  58.8542250   3.0956840  59.5170910  58.4730440   3.7382150
  63.5154250  55.8927810   4.6744030  64.1183620  56.4648020   5.1492550
  62.7747240  56.4567250   4.4517930  57.0378450  57.3785280   2.0406010
  56.4081190  56.6772590   2.2076140  56.4983590  58.1389410   1.8239170
  59.9770400  73.9924510  14.7116620  60.9037710  73.7568780  14.7552580
  59.9620830  74.8196510  14.2302650  57.1634010  56.6569260  14.4758500
  56.8818280  57.1602860  13.7119320  57.5453710  55.8591010  14.1100630
  63.7649470  56.0722840  15.0538970  63.6514920  56.3917450  15.9490490
  64.5819210  56.4735350  14.7576250  66.5447960  73.2194370  14.5357660
  67.3373280  72.7243600  14.3283620  66.8381110  73.8984510  15.1433270
  62.6707620  45.3171820  60.5147670  62.5901670  44.4026430  60.2439380
  62.2572040  45.8138890  59.8087380  60.8025660  47.0950840  62.3956940
  60.0267760  46.6151280  62.6855510  61.4538590  46.4156490  62.2213100
  54.8191490  47.4070650  63.2732700  53.9876370  47.1519360  63.6729210
  55.4272470  47.4781420  64.0090620  64.8233090  51.5011030  61.1756070
  64.3614620  50.7298270  61.5043240  65.6358640  51.5277100  61.6808520
  54.7992750  51.4410740  63.4690720  55.1020790  50.5508480  63.2900940
  55.5436340  51.9980960  63.2412970  53.2283440  42.3672540  57.0575090
  52.3400140  42.7088510  56.9554970  53.5124630  42.1672860  56.1655920
  51.1916450  44.9678190  62.9414790  51.7632560  44.2000390  62.9418430
  51.1917990  45.2666950  62.0321400  61.0496400  53.7869040  60.7960060
  60.4307840  54.2426540  60.2254500  61.9048180  53.9420500  60.3949760
  60.2434650  49.7708030  62.4027100  60.1742930  48.8297970  62.2416230
  61.0054510  49.8609440  62.9749670  52.4341320  40.3762550  64.7283720
  52.2544160  39.4788300  65.0086480  52.0321400  40.9234420  65.4030670
  61.2739820  42.5778410  62.6296030  61.6504640  41.7050290  62.5169700
  61.1759330  42.9137110  61.7386470  55.4044830  40.9504040  58.0913470
  55.5111580  41.8507770  58.3982230  54.4937190  40.9022010  57.8008120
  65.0563940  40.0728850  59.5624370  65.8773560  39.5825420  59.6049850
  65.0898020  40.6626510  60.3156210  53.0527990  42.8723050  63.3366060
  53.7338100  43.1361420  63.9553460  52.7376040  42.0323920  63.6704070
  57.2452560  43.9190410  62.4238650  57.7530780  44.4171380  63.0643670
  57.7765800  43.1425610  62.2478010  61.9159750  48.6708280  58.1891970
  61.2977020  49.1357730  57.6254690  62.4283000  49.3635760  58.6061480
  56.7791510  48.1984150  64.8675570  56.4460890  48.8253070  65.5096640
  56.9558190  48.7246030  64.0877240  65.2925420  42.0129230  62.3351910
  64.5880990  42.3014120  62.9155020  65.6537580  42.8229340  61.9751470
  55.2103990  40.2698930  64.6972520  55.5520800  41.1140980  64.4026390
  54.2719800  40.4182670  64.8137860  51.2842950  49.3564810  55.5631600
  50.9070930  49.8451910  54.8316500  51.5416020  50.0290090  56.1938130
  66.9088200  51.6304360  64.5979390  66.2251720  52.3003470  64.5896060
  67.4482490  51.8285010  63.8324250  68.3612340  41.4584020  62.7261120
  67.4137250  41.4923000  62.8576550  68.6862330  42.2722970  63.1110480
  58.8931880  37.7581200  61.0217110  59.2006860  37.2028090  60.3052610
  57.9632580  37.8925660  60.8390100  64.4446940  53.4748490  63.3124570
  64.4574100  53.0710780  62.4446830  63.8922160  54.2495780  63.2086000
  65.7392360  50.1964710  58.4014740  65.6288690  49.2539040  58.5264160
  65.7360610  50.5580350  59.2877500  63.8432380  48.3778330  64.6407180
  64.2601170  48.1638440  63.8060640  64.5672200  48.6351120  65.2115800
  61.2812640  45.8230030  57.7577230  60.3541920  45.7567410  57.9865700
  61.4337460  46.7610160  57.6432470  61.2681720  42.0947030  54.7544390
  60.3285390  42.2560990  54.8396850  61.5864980  42.8132710  54.2080380
  67.7894480  46.7765550  64.7323420  66.9613110  46.8458640  64.2573550
  68.3844960  47.3619860  64.2639250  65.3109930  47.3850330  58.2612480
  64.6922350  47.0469880  57.6138780  65.2934380  46.7410090  58.9691670
  64.7536490  43.5634870  65.6778290  64.3407670  44.3888580  65.9318280
  64.0212440  42.9779910  65.4854650  56.8869280  46.3494770  60.5396960
  56.4826280  45.6372020  60.0442860  56.9732400  46.0048010  61.4285000
  57.3550980  50.0362330  62.7036170  57.0579270  49.4307800  62.0243950
  58.3050800  50.0739640  62.5925530  55.5997900  43.1237980  64.3196000
  56.1512490  43.2333320  63.5449250  56.1141410  43.4975580  65.0351230
  65.4436590  53.6094200  66.3659270  64.9667150  54.4166390  66.1731880
  64.7598380  52.9572530  66.5185480  63.4874630  46.6237140  55.2685230
  63.9267910  45.7859570  55.1223050  64.2003050  47.2566540  55.3549370
  61.5970010  51.5633210  59.2366470  62.0365920  52.3057540  58.8221860
  61.5356900  51.8059780  60.1605430  67.0691770  37.8779950  53.5826270
  66.7564430  37.9706780  54.4825340  67.8304240  38.4560980  53.5323700
  53.5873910  45.2439750  58.0403610  53.4671510  45.9701840  57.4284880
  53.2774800  44.4742660  57.5631520  51.2259280  48.4154890  63.8472250
  51.3039700  48.5503660  62.9027970  51.8400960  47.7070780  64.0400370
  52.4706910  50.1155080  60.2578430  52.0634990  50.2569670  59.4032030
  53.3619920  49.8315240  60.0549640  64.2640190  54.5502330  56.5929480
  64.1041330  54.2605270  57.4911310  64.0986900  53.7742460  56.0574710
  56.7428570  54.3300860  58.3701100  56.5671050  53.4136400  58.1568900
  55.8884310  54.6888150  58.6098900  63.9666320  52.0589890  55.1527480
  63.2731480  52.0567180  54.4929760  64.7089180  51.6349210  54.7221650
  63.5316250  53.6852600  59.2275970  63.9873200  52.9041980  59.5414590
  63.8708770  54.3959420  59.7717150  56.0537570  38.5874820  61.4227280
  55.6105720  39.3684360  61.0911800  56.6122560  38.9104710  62.1298220
  59.1696390  38.2085520  56.3033110  58.5450570  38.2045390  57.0286420
  59.0826510  37.3416480  55.9069080  58.0913470  39.1322150  63.2816880
  58.3885800  40.0384980  63.2008900  58.6399030  38.6440930  62.6676450
  55.8451790  43.7108390  59.1508530  55.6192710  43.4945560  60.0555150
  55.0644320  44.1436850  58.8054500  63.0749550  43.7171760  57.7499180
  62.4758440  44.4407560  57.5662800  63.6229160  43.6548540  56.9675630
  61.6814420  42.3535300  59.7802460  62.0743990  42.6707500  58.9671150
  62.0431270  41.4747180  59.8946980  50.7178590  38.9436100  62.0032660
  50.4291640  39.5138960  62.7157640  51.4624350  38.4640550  62.3663890
  50.9048820  42.8856220  53.2135380  50.8223490  43.8286980  53.3550370
  50.5531880  42.7431130  52.3347730  62.2669560  44.9441050  63.8753240
  61.5350680  45.4527860  64.2243340  61.8693900  44.1271030  63.5742020
  58.7046950  41.6195250  62.2805730  58.7083010  41.1785200  61.4310270
  59.5998070  41.9412580  62.3877550  54.5549330  41.5021740  61.2399940
  54.2149380  41.9796970  61.9966990  53.7926650  41.0486860  60.8801040
  58.7667100  42.6207330  55.2712490  58.8879920  42.5793810  56.2198310
  58.3815610  43.4831480  55.1159220  62.7295470  40.3974730  63.2876180
  62.7468210  40.8483380  64.1318030  62.4811050  39.4980370  63.5009620
  57.7788600  44.9308470  54.6695790  57.2105500  44.4826720  54.0431700
  58.4877600  45.2901250  54.1360940  59.0054920  45.6797030  64.0271140
  59.3725050  45.2055600  64.7732480  58.8159980  46.5538600  64.3679480
  51.8695410  40.4240720  60.1564610  51.5842330  40.0596390  60.9943230
  51.8074270  39.6921180  59.5427750  55.3236080  48.9266660  56.9422200
  54.5498340  48.3864280  56.7820920  56.0530710  48.4073270  56.6039960
  66.0824060  47.9232020  62.7348590  66.8023180  48.4187310  62.3444700
  65.8805880  47.2449910  62.0902460  61.5434000  39.3169980  56.8777980
  60.7298610  38.8183150  56.8023290  61.3495950  40.1568230  56.4614330
  64.2582390  43.6889630  55.1740140  65.1462010  44.0006860  54.9991480
  64.2287480  42.8161880  54.7820720  55.3673480  48.5947040  60.5801010
  55.8852150  47.7915300  60.5257900  54.9157500  48.5326180  61.4217840
  60.2542980  49.8613320  55.8528310  60.5958680  50.6055550  55.3571630
  59.4255690  50.1744440  56.2153140  66.5296660  45.0001470  54.6420000
  66.4460380  45.4315690  53.7916440  67.2490850  45.4599820  55.0746820
  67.5583910  51.8543730  57.3702130  66.9160070  51.1999350  57.6445850
  67.1714570  52.2598820  56.5942800  63.1370390  49.1829160  61.2173820
  63.4894210  48.5857290  60.5575190  62.2532720  48.8573390  61.3882070
  59.2233670  49.9426850  58.6244230  59.9104800  50.4896060  59.0051820
  58.4366090  50.4867580  58.6593840  51.3626070  45.5599670  54.1161310
  52.2320920  45.8424470  54.3997230  50.8716390  46.3735540  54.0010120
  58.5260880  46.9472880  58.2369590  58.9823660  47.7578130  58.4629780
  58.1749090  46.6296020  59.0688080  60.8293490  52.4579220  65.4661890
  61.4735710  52.6638600  66.1435310  61.1922930  51.6967620  65.0132740
  54.4272660  37.2910530  58.7092110  54.2987290  37.2828430  59.6577030
  53.6034680  37.6293620  58.3583120  62.1025570  50.4611570  64.1839340
  62.7447800  49.7604730  64.2971510  62.6274920  51.2410010  64.0036230
  65.9481290  50.7460190  53.9078480  65.7218870  50.0290630  54.5003120
  65.5577490  50.4972630  53.0700230  51.7297320  54.7727050  54.6822940
  52.0894960  55.3716390  54.0280210  51.5889660  55.3186940  55.4557970
  65.5297540  48.6632130  55.5692640  65.2419240  49.1244820  56.3570520
  66.3249710  48.2029900  55.8376860  57.7465940  52.1558250  55.4996610
  57.7376040  52.8887940  54.8841120  56.8264300  51.9089830  55.5923570
  53.3472580  47.3773140  56.2443370  52.7400530  48.1172040  56.2538670
  53.8221930  47.4672500  55.4181570  62.9205370  41.5423960  65.9200260
  63.2886190  40.7219170  66.2479830  62.0603570  41.6025850  66.3355910
  66.2867400  40.4980900  56.7287820  65.6580560  40.6026570  56.0146050
  65.7919320  40.7177680  57.5181700  60.7325540  52.2186490  54.1621800
  60.8337520  52.0150480  53.2323780  59.8327280  51.9644770  54.3669580
  58.2551430  42.7766850  58.1445700  57.5467580  43.2453190  58.5859310
  58.5395910  42.1188860  58.7790890  62.2866860  39.5017510  59.5841490
  62.1634640  39.5203640  58.6351000  63.2351420  39.5496450  59.7039890
  59.3743650  54.7372810  58.8569470  59.6285150  54.6994200  57.9348840
  58.4256130  54.6106140  58.8497720  56.4586450  41.0851930  55.5196410
  57.3076980  41.5222080  55.4536600  56.0917720  41.3972190  56.3468470
  65.3796230  45.6564690  60.4327980  64.4386370  45.6714920  60.6075670
  65.6940300  44.8700650  60.8788280  55.3577870  47.3384290  53.9931940
  56.1241140  47.2265650  54.5557370  55.4352560  46.6422260  53.3408710
  54.0524630  44.7709360  54.6764830  54.1328220  43.8236870  54.7882230
  54.9444380  45.1016240  54.7825490  67.3821810  52.8273540  62.1082240
  67.5069230  53.6504710  62.5806050  68.2487370  52.6164270  61.7606390
  54.8539340  54.9204750  61.7799370  55.5901820  54.3720210  62.0507940
  55.2380260  55.7860760  61.6405360  51.7384820  50.9878320  57.6540880
  50.8124600  51.2299460  57.6446290  52.2041250  51.8152580  57.5325630
  57.9641650  54.0935060  53.6024940  58.7570260  54.3823890  53.1506730
  57.4446000  53.6627230  52.9237420  67.0171820  53.3205190  55.0261680
  66.7313330  52.9070330  54.2115860  66.8191370  54.2492900  54.9062200
  58.4819050  49.3138470  53.4667290  58.3769690  48.6990820  54.1928670
  58.3143270  48.7904360  52.6830300  61.7221780  48.3758500  54.0709280
  61.1731880  48.8227800  54.7152020  62.3441040  47.8707750  54.5946950
  57.3896900  47.3349420  55.9674580  57.8113320  47.1689290  56.8105970
  57.5147740  46.5249650  55.4729720  59.9024540  46.3587030  53.2151680
  60.4230200  45.6436050  52.8492830  60.5492940  46.9972900  53.5152190
  58.8058060  38.8381580  65.8870240  58.3575360  38.8605840  65.0415790
  58.1723260  38.4400600  66.4840540  59.2117610  47.7335910  66.5082680
  59.6305720  48.5768640  66.3358920  58.2926240  47.8707950  66.2789460
  56.2855800  43.4082650  52.9132740  56.0844860  42.5450010  53.2746080
  56.1147850  43.3216010  51.9754340  63.7644110  38.2190880  55.4419620
  64.0446400  37.3758780  55.7979040  62.9909840  38.4513990  55.9558370
  55.0838600  40.5083270  52.9010620  55.3864500  40.5150700  51.9929770
  55.8233190  40.1581130  53.3978280  58.3023530  39.4517890  53.8866820
  57.9545530  38.7741880  53.3069270  58.5036300  38.9907400  54.7010210
  60.4672570  54.4398640  55.5053420  61.3623360  54.7783610  55.5272180
  60.4990200  53.7178050  54.8777700  54.1068730  49.8125690  53.7340420
  54.5443600  50.3555360  54.3898000  54.5916460  48.9872640  53.7436760
  51.3214530  52.6014720  61.1860680  51.6517540  51.7335780  60.9539320
  51.7505530  52.8073240  62.0165640  55.9176450  50.9323730  58.8462650
  55.6171990  50.8088700  59.7466560  55.8113940  50.0732320  58.4378380
  51.8104740  53.4685310  63.9242310  51.3735730  53.6486110  64.7566460
  52.3782420  54.2259930  63.7824030  68.6868370  50.7120130  53.5489330
  67.8561330  50.7796780  54.0196560  68.8640200  51.6024250  53.2456190
  68.1424830  47.4567610  56.0523530  68.9043740  48.0264260  56.1583220
  68.1579200  46.8894810  56.8231840  51.6429170  45.9805540  60.2831190
  50.9878010  45.7117180  59.6390890  52.4807120  45.8710020  59.8333170
  69.1484800  48.3117710  60.8965460  69.5193630  47.5285030  60.4901430
  69.7886730  49.0006810  60.7182760  68.1944000  47.7501980  53.2096050
  68.4692840  48.6580860  53.0815270  68.0054740  47.6864510  54.1458040
  64.5919610  40.7746830  54.5049680  65.0104490  40.5877810  53.6646340
  64.2855670  39.9225880  54.8152610  68.0909340  45.6870970  58.2025480
  67.7152940  44.9198900  57.7706770  67.3612460  46.0693670  58.6900410
  52.6805100  46.3658110  64.8234530  53.0478140  46.2785510  65.7030550
  52.1115920  45.6024660  64.7241390  50.8567250  43.1904470  56.2256520
  49.9531330  43.4534670  56.0508180  51.3407870  43.4615640  55.4456480
  67.3660300  43.9128460  61.5032720  67.8897780  43.4191110  60.8722890
  67.9519720  44.0478820  62.2480290  67.5450020  43.9968330  65.0252270
  66.5952730  43.9631870  65.1397260  67.7263030  44.9068440  64.7902040
  53.3994460  42.2470010  54.1350900  54.1086160  41.8253230  53.6498180
  52.6834400  42.3145240  53.5034250  53.0468620  38.3009340  53.1753550
  53.7696750  38.8418280  53.4934770  53.3193140  38.0272760  52.2995090
  66.8560270  43.1701810  57.4425130  67.3519390  42.9372680  58.2274010
  66.6576340  42.3313650  57.0262770  52.7360810  37.5515530  63.0776170
  53.3837000  37.0012910  62.6371330  53.1562650  37.8058680  63.8991980
  68.2847430  41.8062760  59.9762810  68.1746710  41.6518800  60.9145080
  69.0455020  41.2783700  59.7338220  69.1737700  39.6370680  53.2168950
  70.0987010  39.5051860  53.0087240  69.1513490  39.7163500  54.1705400
  69.2476190  40.4081340  55.8425660  68.4527690  40.3426460  56.3718570
  69.4519470  41.3431980  55.8311010  66.1894610  54.4472890  59.8364050
  66.7853680  54.1257460  59.1598470  66.4472760  53.9744710  60.6277320
  57.7963210  52.4350390  65.5864400  57.5554570  52.7024950  64.6994920
  58.7365850  52.6056120  65.6415260  63.3800230  37.1185280  65.3082490
  62.5060070  37.4520390  65.1055420  63.2710980  36.6458460  66.1334360
  66.7406820  55.0968190  63.6661780  66.2809790  55.8484000  63.2919800
  66.1119280  54.3774660  63.6076580  53.5657440  51.1911430  66.0560500
  52.8391500  50.5716720  65.9886450  53.6266590  51.5852040  65.1858580
  57.1702540  53.4056430  62.8409910  57.6867560  52.7943790  62.3158170
  57.8199920  53.9085210  63.3320920  59.9098040  54.2964920  63.6678890
  60.1975850  54.0419220  62.7911900  60.4221260  53.7442280  64.2584460
  61.1275050  38.0355120  64.2475400  60.3446840  38.5100620  64.5272160
  60.8337980  37.1309950  64.1388580  65.6796120  38.7378220  62.2924490
  66.1204210  38.6823320  61.4446090  65.4103710  39.6536230  62.3634670
  67.5434690  38.3693460  60.3033310  67.4823090  37.4254680  60.1564330
  68.3226720  38.4773550  60.8486770  51.8487440  54.5085820  59.2657260
  51.6809480  53.8756500  59.9639150  50.9821950  54.7145220  58.9151450
  52.4715460  38.3402600  56.7689120  53.2294820  38.4531480  56.1953150
  52.0092630  39.1771800  56.7232550  59.0129270  40.4541870  59.7591430
  58.2003780  40.0798760  59.4187310  59.5170910  39.6986950  60.0612620
  63.5154250  37.1184320  60.9974500  64.1183620  37.6904530  61.4723020
  62.7747240  37.6823760  60.7748400  66.6588850  37.5205880  56.2714780
  66.8539480  38.4189330  56.5382210  65.8718720  37.2892960  56.7647730
  53.4550140  53.2019050  56.7107400  52.9297760  53.5827080  56.0069360
  53.3794720  53.8269820  57.4317110  54.8440610  38.8666650  55.3091090
  55.3733370  38.0796450  55.1799040  55.4768930  39.5457840  55.5426620
  57.0378450  38.6041790  58.3636480  56.4081190  37.9029100  58.5306610
  56.4983590  39.3645920  58.1469640  68.2115460  54.7606590  58.0321340
  68.3867650  54.0744330  57.3882260  67.5137030  55.2853640  57.6398010
  56.0543110  55.1501430  55.5856650  56.7861930  54.8660710  55.0380540
  56.3136780  54.9114710  56.4756030  55.2157900  51.2666160  55.5902980
  54.5866780  51.7351260  56.1388810  55.3305730  50.4215380  56.0249170
  62.6707620  45.3171820  41.7404180  62.5901670  44.4026430  41.4695890
  62.2572040  45.8138890  41.0343890  60.8025660  47.0950840  43.6213450
  60.0267760  46.6151280  43.9112020  61.4538590  46.4156490  43.4469610
  64.8233090  51.5011030  42.4012580  64.3614620  50.7298270  42.7299750
  65.6358640  51.5277100  42.9065030  54.7992750  51.4410740  44.6947230
  55.1020790  50.5508480  44.5157450  55.5436340  51.9980960  44.4669480
  61.0496400  53.7869040  42.0216570  60.4307840  54.2426540  41.4511010
  61.9048180  53.9420500  41.6206270  60.2434650  49.7708030  43.6283610
  60.1742930  48.8297970  43.4672740  61.0054510  49.8609440  44.2006180
  61.2739820  42.5778410  43.8552540  61.6504640  41.7050290  43.7426210
  61.1759330  42.9137110  42.9642980  65.0563940  40.0728850  40.7880880
  65.8773560  39.5825420  40.8306360  65.0898020  40.6626510  41.5412720
  57.2452560  43.9190410  43.6495160  57.7530780  44.4171380  44.2900180
  57.7765800  43.1425610  43.4734520  69.3463490  42.0895600  47.3524510
  68.6415660  42.4777310  46.8339620  69.6121410  42.7845890  47.9545440
  61.9159750  48.6708280  39.4148480  61.2977020  49.1357730  38.8511200
  62.4283000  49.3635760  39.8317990  56.7791510  48.1984150  46.0932080
  56.4460890  48.8253070  46.7353150  56.9558190  48.7246030  45.3133750
  65.2925420  42.0129230  43.5608420  64.5880990  42.3014120  44.1411530
  65.6537580  42.8229340  43.2007980  55.9910610  50.1664950  47.9081260
  56.6084610  50.8416030  47.6265710  55.1303730  50.5752930  47.8168760
  66.9088200  51.6304360  45.8235900  66.2251720  52.3003470  45.8152570
  67.4482490  51.8285010  45.0580760  68.3612340  41.4584020  43.9517630
  67.4137250  41.4923000  44.0833060  68.6862330  42.2722970  44.3366990
  64.4446940  53.4748490  44.5381080  64.4574100  53.0710780  43.6703340
  63.8922160  54.2495780  44.4342510  65.7392360  50.1964710  39.6271250
  65.6288690  49.2539040  39.7520670  65.7360610  50.5580350  40.5134010
  63.8432380  48.3778330  45.8663690  64.2601170  48.1638440  45.0317150
  64.5672200  48.6351120  46.4372310  61.2812640  45.8230030  38.9833740
  60.3541920  45.7567410  39.2122210  61.4337460  46.7610160  38.8688980
  61.2681720  42.0947030  35.9800900  60.3285390  42.2560990  36.0653360
  61.5864980  42.8132710  35.4336890  67.7894480  46.7765550  45.9579930
  66.9613110  46.8458640  45.4830060  68.3844960  47.3619860  45.4895760
  65.3109930  47.3850330  39.4868990  64.6922350  47.0469880  38.8395290
  65.2934380  46.7410090  40.1948180  64.7536490  43.5634870  46.9034800
  64.3407670  44.3888580  47.1574790  64.0212440  42.9779910  46.7111160
  57.3550980  50.0362330  43.9292680  57.0579270  49.4307800  43.2500460
  58.3050800  50.0739640  43.8182040  65.4436590  53.6094200  47.5915780
  64.9667150  54.4166390  47.3988390  64.7598380  52.9572530  47.7441990
  56.4469410  49.7744020  50.5800480  55.5497940  49.9983990  50.8273880
  56.4722280  49.8978960  49.6311880  63.4874630  46.6237140  36.4941740
  63.9267910  45.7859570  36.3479560  64.2003050  47.2566540  36.5805880
  55.2740630  46.6457340  49.1557850  55.1348400  47.5180140  49.5245250
  54.3921990  46.3030150  49.0105790  61.5970010  51.5633210  40.4622980
  62.0365920  52.3057540  40.0478370  61.5356900  51.8059780  41.3861940
  57.0720980  52.5879040  51.3643000  57.0436410  52.9921990  50.4971430
  56.9085950  51.6589400  51.2014600  69.0235800  53.3706140  52.6607170
  69.4995520  53.8489030  53.3396250  69.6442960  53.3023630  51.9352670
  68.4269050  50.5618990  49.8207180  68.5532110  50.3230870  48.9024360
  68.4690430  49.7303530  50.2929260  62.2885790  54.2646990  48.3901990
  62.8030460  54.1755000  49.1924420  61.4454870  54.6106690  48.6829900
  64.2640190  54.5502330  37.8185990  64.1041330  54.2605270  38.7167820
  64.0986900  53.7742460  37.2831220  56.7428570  54.3300860  39.5957610
  56.5671050  53.4136400  39.3825410  55.8884310  54.6888150  39.8355410
  63.9666320  52.0589890  36.3783990  63.2731480  52.0567180  35.7186270
  64.7089180  51.6349210  35.9478160  63.5316250  53.6852600  40.4532480
  63.9873200  52.9041980  40.7671100  63.8708770  54.3959420  40.9973660
  68.2793060  42.6151450  50.7856920  67.6637330  43.1231120  50.2572380
  67.9589480  41.7149780  50.7282860  51.2818800  49.4569060  47.6123220
  51.4449840  48.9874420  46.7942590  51.7471250  48.9492620  48.2772060
  60.3407380  41.4543340  48.2519110  59.8786750  41.6626360  49.0639050
  59.9385490  40.6402690  47.9489780  65.3411890  42.6752290  49.3815770
  64.4905480  42.3758040  49.7024840  65.1813680  42.9194300  48.4699590
  62.4361600  44.1754040  51.4814560  62.7615010  43.3417790  51.1416790
  63.2241930  44.6982560  51.6292890  63.0749550  43.7171760  38.9755690
  62.4758440  44.4407560  38.7919310  63.6229160  43.6548540  38.1932140
  58.2851000  44.6093970  51.0425310  58.1894600  43.6688700  50.8925710
  59.1282980  44.8309040  50.6473380  59.9906590  41.1042610  52.2655830
  59.3004910  40.9114810  52.9001920  60.7338890  41.3877250  52.7980130
  62.2669560  44.9441050  45.1009750  61.5350680  45.4527860  45.4499850
  61.8693900  44.1271030  44.7998530  58.7046950  41.6195250  43.5062240
  58.7083010  41.1785200  42.6566780  59.5998070  41.9412580  43.6134060
  62.7295470  40.3974730  44.5132690  62.7468210  40.8483380  45.3574540
  62.4811050  39.4980370  44.7266130  66.1566220  37.8106910  50.3519070
  66.4811990  37.0796570  50.8777050  66.1922730  37.4920550  49.4500060
  52.8557780  48.8320490  49.7719030  52.4712570  48.1914160  50.3701990
  53.1669970  49.5356610  50.3413760  59.0054920  45.6797030  45.2527650
  59.3725050  45.2055600  45.9988990  58.8159980  46.5538600  45.5935990
  66.0824060  47.9232020  43.9605100  66.8023180  48.4187310  43.5701210
  65.8805880  47.2449910  43.3158970  61.4642860  47.9941080  49.8474100
  61.3980170  47.0736750  49.5931690  60.8348000  48.0916520  50.5618740
  64.2582390  43.6889630  36.3996650  65.1462010  44.0006860  36.2247990
  64.2287480  42.8161880  36.0077230  56.0531140  46.0192650  51.6022770
  55.7531280  46.1649830  50.7050590  56.8242380  45.4597940  51.5096160
  61.3959590  50.8161650  49.5977900  61.4104130  49.8842610  49.3796810
  60.6884690  50.9021410  50.2367670  66.5296660  45.0001470  35.8676510
  66.4460380  45.4315690  35.0172950  67.2490850  45.4599820  36.3003330
  67.6070800  47.4568990  48.9446480  66.8818990  48.0497770  48.7475870
  68.1346260  47.4492530  48.1459850  67.5583910  51.8543730  38.5958640
  66.9160070  51.1999350  38.8702360  67.1714570  52.2598820  37.8199310
  63.1370390  49.1829160  42.4430330  63.4894210  48.5857290  41.7831700
  62.2532720  48.8573390  42.6138580  59.2233670  49.9426850  39.8500740
  59.9104800  50.4896060  40.2308330  58.4366090  50.4867580  39.8850350
  58.5260880  46.9472880  39.4626100  58.9823660  47.7578130  39.6886290
  58.1749090  46.6296020  40.2944590  60.8293490  52.4579220  46.6918400
  61.4735710  52.6638600  47.3691820  61.1922930  51.6967620  46.2389250
  62.1025570  50.4611570  45.4095850  62.7447800  49.7604730  45.5228020
  62.6274920  51.2410010  45.2292740  65.9481290  50.7460190  35.1334990
  65.7218870  50.0290630  35.7259630  65.5577490  50.4972630  34.2956740
  63.8763190  51.2606470  48.6131910  64.2119430  51.8473160  49.2909830
  62.9563530  51.1299180  48.8429700  65.5297540  48.6632130  36.7949150
  65.2419240  49.1244820  37.5827030  66.3249710  48.2029900  37.0633370
  51.7139180  53.0381910  50.3821850  51.8230300  52.0976650  50.2417240
  51.0619740  53.3036660  49.7335580  59.7051770  51.3097800  51.7819970
  59.3848640  50.5907040  52.3265660  59.0310130  51.9852870  51.8556030
  62.9205370  41.5423960  47.1456770  63.2886190  40.7219170  47.4736340
  62.0603570  41.6025850  47.5612420  66.2867400  40.4980900  37.9544330
  65.6580560  40.6026570  37.2402560  65.7919320  40.7177680  38.7438210
  59.8807360  44.1963550  47.3694740  60.3792610  44.6709370  48.0346590
  60.0230310  43.2727070  47.5764770  59.3743650  54.7372810  40.0825980
  59.6285150  54.6994200  39.1605350  58.4256130  54.6106140  40.0754230
  67.0874220  40.4131510  48.2123130  66.5847820  41.1536910  48.5516940
  67.9030880  40.8015510  47.8959920  65.3796230  45.6564690  41.6584490
  64.4386370  45.6714920  41.8332180  65.6940300  44.8700650  42.1044790
  67.3821810  52.8273540  43.3338750  67.5069230  53.6504710  43.8062560
  68.2487370  52.6164270  42.9862900  54.8539340  54.9204750  43.0055880
  55.5901820  54.3720210  43.2764450  55.2380260  55.7860760  42.8661870
  53.8597620  54.1050820  52.1941460  54.6610350  54.4262870  52.6076860
  53.3449440  53.7446400  52.9161370  62.6962250  50.2130690  52.1416870
  62.0900410  50.2362290  51.4012620  62.3916360  49.4813730  52.6784120
  64.1262620  53.9410980  50.7526280  65.0784370  53.8569000  50.7026520
  63.9790840  54.6052690  51.4260070  67.0171820  53.3205190  36.2518190
  66.7313330  52.9070330  35.4372370  66.8191370  54.2492900  36.1318710
  51.5795430  46.5924280  51.1377510  52.0834450  46.0131560  51.7093740
  50.8402850  46.8764510  51.6753880  58.6333370  47.9995270  50.6713030
  57.8679040  48.5680270  50.5867700  58.8149330  47.7071480  49.7781260
  61.7221780  48.3758500  35.2965790  61.1731880  48.8227800  35.9408530
  62.3441040  47.8707750  35.8203460  65.7756720  49.7300600  51.2288050
  66.5166190  50.0676360  50.7255510  65.0129400  49.8992660  50.6757820
  53.6118510  44.7353870  52.0327580  53.6523850  44.4367740  52.9412810
  54.4664010  45.1361480  51.8735100  55.5524320  43.3145970  50.0002070
  55.0220780  42.8236920  49.3725410  56.2212390  43.7430170  49.4660000
  59.9024540  46.3587030  34.4408190  60.4230200  45.6436050  34.0749340
  60.5492940  46.9972900  34.7408700  64.4502380  47.7815430  49.7643260
  64.8643400  47.9360510  50.6133680  63.5153380  47.9070650  49.9269040
  64.9224550  45.1211590  51.7682410  65.5045320  44.3663910  51.6802890
  65.0986320  45.6519030  50.9913890  56.0396620  40.2808340  50.0799360
  55.9453490  39.6629090  49.3550230  55.4594010  41.0074630  49.8529270
  58.8058060  38.8381580  47.1126750  58.3575360  38.8605840  46.2672300
  58.1723260  38.4400600  47.7097050  59.2117610  47.7335910  47.7339190
  59.6305720  48.5768640  47.5615430  58.2926240  47.8707950  47.5045970
  61.5481510  45.4652090  49.1177030  61.6677720  44.8693230  49.8571870
  62.4075510  45.5021780  48.6978330  63.8869410  46.0189280  47.6939540
  63.3604630  46.5431900  47.0904680  64.2300750  46.6516670  48.3249270
  57.0625030  54.0388920  48.8496920  56.5246120  54.7634980  48.5305620
  57.3158990  53.5619260  48.0594260  58.3150280  42.0073440  50.3752850
  58.9049970  41.6989290  51.0630670  57.4970520  41.5353190  50.5312750
  63.1343710  41.6239250  50.6085870  62.4459230  40.9620790  50.5435860
  63.8549730  41.1777520  51.0534330  59.9187240  55.2740130  49.1083570
  59.8445940  56.1775270  49.4155940  59.0166080  54.9552030  49.0805640
  51.3214530  52.6014720  42.4117190  51.6517540  51.7335780  42.1795830
  51.7505530  52.8073240  43.2422150  55.9176450  50.9323730  40.0719160
  55.6171990  50.8088700  40.9723070  55.8113940  50.0732320  39.6634890
  51.8104740  53.4685310  45.1498820  51.3735730  53.6486110  45.9822970
  52.3782420  54.2259930  45.0080540  67.4466920  52.9702310  49.4376130
  66.8468910  53.0294870  48.6940050  67.5760820  52.0307290  49.5672980
  68.6868370  50.7120130  34.7745840  67.8561330  50.7796780  35.2453070
  68.8640200  51.6024250  34.4712700  68.1424830  47.4567610  37.2780040
  68.9043740  48.0264260  37.3839730  68.1579200  46.8894810  38.0488350
  69.1484800  48.3117710  42.1221970  69.5193630  47.5285030  41.7157940
  69.7886730  49.0006810  41.9439270  66.1318560  49.6954290  47.5352290
  65.3178400  50.1251450  47.7978080  66.5392760  50.3072700  46.9221340
  68.1944000  47.7501980  34.4352560  68.4692840  48.6580860  34.3071780
  68.0054740  47.6864510  35.3714550  64.5919610  40.7746830  35.7306190
  65.0104490  40.5877810  34.8902850  64.2855670  39.9225880  36.0409120
  68.0909340  45.6870970  39.4281990  67.7152940  44.9198900  38.9963280
  67.3612460  46.0693670  39.9156920  67.4808960  44.8342490  49.0621510
  67.2495050  44.6055240  48.1619460  67.7413510  45.7542040  49.0166400
  65.9197030  40.0598920  51.8401210  66.7967210  40.0682320  52.2235210
  65.9317870  39.3229760  51.2293560  67.3660300  43.9128460  42.7289230
  67.8897780  43.4191110  42.0979400  67.9519720  44.0478820  43.4736800
  67.5450020  43.9968330  46.2508780  66.5952730  43.9631870  46.3653770
  67.7263030  44.9068440  46.0158550  66.8560270  43.1701810  38.6681640
  67.3519390  42.9372680  39.4530520  66.6576340  42.3313650  38.2519280
  68.2847430  41.8062760  41.2019320  68.1746710  41.6518800  42.1401590
  69.0455020  41.2783700  40.9594730  66.6313150  37.7456890  47.6602320
  67.2685370  38.3591030  48.0261510  66.7788040  37.7817550  46.7151550
  69.1737700  39.6370680  34.4425460  70.0987010  39.5051860  34.2343750
  69.1513490  39.7163500  35.3961910  69.2476190  40.4081340  37.0682170
  68.4527690  40.3426460  37.5975080  69.4519470  41.3431980  37.0567520
  66.1894610  54.4472890  41.0620560  66.7853680  54.1257460  40.3854980
  66.4472760  53.9744710  41.8533830  54.0957180  50.8790800  51.2111190
  54.0526810  50.5083710  52.0925650  54.2268190  51.8168370  51.3513010
  57.7963210  52.4350390  46.8120910  57.5554570  52.7024950  45.9251430
  58.7365850  52.6056120  46.8671770  60.0017630  38.8983080  50.5677420
  59.9406520  39.4904910  51.3172830  60.9418010  38.7909040  50.4227680
  62.6392190  38.5553140  50.2069710  63.2532600  38.8732430  49.5450790
  63.1841750  38.0701730  50.8265570  69.0567370  54.4544770  47.6131550
  68.5625650  54.8513640  46.8958680  68.4480660  53.8293980  48.0068830
  53.9345210  53.8253050  48.3308970  53.3405530  53.6937750  49.0699010
  53.9269050  52.9891190  47.8651070  63.3800230  37.1185280  46.5339000
  62.5060070  37.4520390  46.3311930  63.2710980  36.6458460  47.3590870
  64.2872210  39.3256150  47.9180720  63.9585570  38.5107910  47.5382450
  65.2354510  39.2825960  47.7946410  66.7406820  55.0968190  44.8918290
  66.2809790  55.8484000  44.5176310  66.1119280  54.3774660  44.8333090
  53.5657440  51.1911430  47.2817010  52.8391500  50.5716720  47.2142960
  53.6266590  51.5852040  46.4115090  57.1702540  53.4056430  44.0666420
  57.6867560  52.7943790  43.5414680  57.8199920  53.9085210  44.5577430
  59.9098040  54.2964920  44.8935400  60.1975850  54.0419220  44.0168410
  60.4221260  53.7442280  45.4840970  65.6796120  38.7378220  43.5181000
  66.1204210  38.6823320  42.6702600  65.4103710  39.6536230  43.5891180
  67.5434690  38.3693460  41.5289820  67.4823090  37.4254680  41.3820840
  68.3226720  38.4773550  42.0743280  51.8487440  54.5085820  40.4913770
  51.6809480  53.8756500  41.1895660  50.9821950  54.7145220  40.1407960
  53.4550140  53.2019050  37.9363910  52.9297760  53.5827080  37.2325870
  53.3794720  53.8269820  38.6573620  59.9770400  55.2181020  52.2603600
  60.9037710  54.9825290  52.3039560  59.9620830  56.0453020  51.7789630
  68.2115460  54.7606590  39.2577850  68.3867650  54.0744330  38.6138770
  67.5137030  55.2853640  38.8654520  57.1634010  37.8825770  52.0245480
  56.8818280  38.3859370  51.2606300  57.5453710  37.0847520  51.6587610
  63.7649470  37.2979350  52.6025950  63.6514920  37.6173960  53.4977470
  64.5819210  37.6991860  52.3063230  66.5447960  54.4450880  52.0844640
  67.3373280  53.9500110  51.8770600  66.8381110  55.1241020  52.6920250
  62.6707620  45.3171820  22.9660690  62.5901670  44.4026430  22.6952400
  62.2572040  45.8138890  22.2600400  60.8025660  47.0950840  24.8469960
  60.0267760  46.6151280  25.1368530  61.4538590  46.4156490  24.6726120
  54.8191490  47.4070650  25.7245720  53.9876370  47.1519360  26.1242230
  55.4272470  47.4781420  26.4603640  64.8233090  51.5011030  23.6269090
  64.3614620  50.7298270  23.9556260  65.6358640  51.5277100  24.1321540
  51.1916450  44.9678190  25.3927810  51.7632560  44.2000390  25.3931450
  51.1917990  45.2666950  24.4834420  61.0496400  53.7869040  23.2473080
  60.4307840  54.2426540  22.6767520  61.9048180  53.9420500  22.8462780
  60.2434650  49.7708030  24.8540120  60.1742930  48.8297970  24.6929250
  61.0054510  49.8609440  25.4262690  52.4341320  40.3762550  27.1796740
  52.2544160  39.4788300  27.4599500  52.0321400  40.9234420  27.8543690
  61.2739820  42.5778410  25.0809050  61.6504640  41.7050290  24.9682720
  61.1759330  42.9137110  24.1899490  65.0563940  40.0728850  22.0137390
  65.8773560  39.5825420  22.0562870  65.0898020  40.6626510  22.7669230
  53.0527990  42.8723050  25.7879080  53.7338100  43.1361420  26.4066480
  52.7376040  42.0323920  26.1217090  57.2452560  43.9190410  24.8751670
  57.7530780  44.4171380  25.5156690  57.7765800  43.1425610  24.6991030
  69.3463490  42.0895600  28.5781020  68.6415660  42.4777310  28.0596130
  69.6121410  42.7845890  29.1801950  55.5288660  38.5588970  29.1415090
  55.5307100  39.0761360  28.3360990  54.6992970  38.0819150  29.1185020
  61.9159750  48.6708280  20.6404990  61.2977020  49.1357730  20.0767710
  62.4283000  49.3635760  21.0574500  65.2925420  42.0129230  24.7864930
  64.5880990  42.3014120  25.3668040  65.6537580  42.8229340  24.4264490
  55.2103990  40.2698930  27.1485540  55.5520800  41.1140980  26.8539410
  54.2719800  40.4182670  27.2650880  51.2842950  49.3564810  18.0144620
  50.9070930  49.8451910  17.2829520  51.5416020  50.0290090  18.6451150
  66.9088200  51.6304360  27.0492410  66.2251720  52.3003470  27.0409080
  67.4482490  51.8285010  26.2837270  68.3612340  41.4584020  25.1774140
  67.4137250  41.4923000  25.3089570  68.6862330  42.2722970  25.5623500
  58.8931880  37.7581200  23.4730130  59.2006860  37.2028090  22.7565630
  57.9632580  37.8925660  23.2903120  64.4446940  53.4748490  25.7637590
  64.4574100  53.0710780  24.8959850  63.8922160  54.2495780  25.6599020
  65.7392360  50.1964710  20.8527760  65.6288690  49.2539040  20.9777180
  65.7360610  50.5580350  21.7390520  63.8432380  48.3778330  27.0920200
  64.2601170  48.1638440  26.2573660  64.5672200  48.6351120  27.6628820
  61.2812640  45.8230030  20.2090250  60.3541920  45.7567410  20.4378720
  61.4337460  46.7610160  20.0945490  61.2681720  42.0947030  17.2057410
  60.3285390  42.2560990  17.2909870  61.5864980  42.8132710  16.6593400
  67.7894480  46.7765550  27.1836440  66.9613110  46.8458640  26.7086570
  68.3844960  47.3619860  26.7152270  65.3109930  47.3850330  20.7125500
  64.6922350  47.0469880  20.0651800  65.2934380  46.7410090  21.4204690
  64.7536490  43.5634870  28.1291310  64.3407670  44.3888580  28.3831300
  64.0212440  42.9779910  27.9367670  56.8869280  46.3494770  22.9909980
  56.4826280  45.6372020  22.4955880  56.9732400  46.0048010  23.8798020
  55.5997900  43.1237980  26.7709020  56.1512490  43.2333320  25.9962270
  56.1141410  43.4975580  27.4864250  65.4436590  53.6094200  28.8172290
  64.9667150  54.4166390  28.6244900  64.7598380  52.9572530  28.9698500
  63.4874630  46.6237140  17.7198250  63.9267910  45.7859570  17.5736070
  64.2003050  47.2566540  17.8062390  61.5970010  51.5633210  21.6879490
  62.0365920  52.3057540  21.2734880  61.5356900  51.8059780  22.6118450
  67.0691770  37.8779950  16.0339290  66.7564430  37.9706780  16.9338360
  67.8304240  38.4560980  15.9836720  69.0235800  53.3706140  33.8863680
  69.4995520  53.8489030  34.5652760  69.6442960  53.3023630  33.1609180
  51.2259280  48.4154890  26.2985270  51.3039700  48.5503660  25.3540990
  51.8400960  47.7070780  26.4913390  52.4706910  50.1155080  22.7091450
  52.0634990  50.2569670  21.8545050  53.3619920  49.8315240  22.5062660
  68.4269050  50.5618990  31.0463690  68.5532110  50.3230870  30.1280870
  68.4690430  49.7303530  31.5185770  62.2885790  54.2646990  29.6158500
  62.8030460  54.1755000  30.4180930  61.4454870  54.6106690  29.9086410
  64.2640190  54.5502330  19.0442500  64.1041330  54.2605270  19.9424330
  64.0986900  53.7742460  18.5087730  56.7428570  54.3300860  20.8214120
  56.5671050  53.4136400  20.6081920  55.8884310  54.6888150  21.0611920
  63.9666320  52.0589890  17.6040500  63.2731480  52.0567180  16.9442780
  64.7089180  51.6349210  17.1734670  63.5316250  53.6852600  21.6788990
  63.9873200  52.9041980  21.9927610  63.8708770  54.3959420  22.2230170
  68.2793060  42.6151450  32.0113430  67.6637330  43.1231120  31.4828890
  67.9589480  41.7149780  31.9539370  56.0537570  38.5874820  23.8740300
  55.6105720  39.3684360  23.5424820  56.6122560  38.9104710  24.5811240
  60.3407380  41.4543340  29.4775620  59.8786750  41.6626360  30.2895560
  59.9385490  40.6402690  29.1746290  65.3411890  42.6752290  30.6072280
  64.4905480  42.3758040  30.9281350  65.1813680  42.9194300  29.6956100
  62.4361600  44.1754040  32.7071070  62.7615010  43.3417790  32.3673300
  63.2241930  44.6982560  32.8549400  59.1696390  38.2085520  18.7546130
  58.5450570  38.2045390  19.4799440  59.0826510  37.3416480  18.3582100
  58.0913470  39.1322150  25.7329900  58.3885800  40.0384980  25.6521920
  58.6399030  38.6440930  25.1189470  63.0749550  43.7171760  20.2012200
  62.4758440  44.4407560  20.0175820  63.6229160  43.6548540  19.4188650
  58.2851000  44.6093970  32.2681820  58.1894600  43.6688700  32.1182220
  59.1282980  44.8309040  31.8729890  61.6814420  42.3535300  22.2315480
  62.0743990  42.6707500  21.4184170  62.0431270  41.4747180  22.3460000
  53.4161540  41.0207640  30.4215600  53.0224930  41.8682850  30.6288380
  52.7279940  40.3834010  30.6124240  59.9906590  41.1042610  33.4912340
  59.3004910  40.9114810  34.1258430  60.7338890  41.3877250  34.0236640
  50.7178590  38.9436100  24.4545680  50.4291640  39.5138960  25.1670660
  51.4624350  38.4640550  24.8176910  62.2669560  44.9441050  26.3266260
  61.5350680  45.4527860  26.6756360  61.8693900  44.1271030  26.0255040
  58.7046950  41.6195250  24.7318750  58.7083010  41.1785200  23.8823290
  59.5998070  41.9412580  24.8390570  54.5549330  41.5021740  23.6912960
  54.2149380  41.9796970  24.4480010  53.7926650  41.0486860  23.3314060
  62.7295470  40.3974730  25.7389200  62.7468210  40.8483380  26.5831050
  62.4811050  39.4980370  25.9522640  66.1566220  37.8106910  31.5775580
  66.4811990  37.0796570  32.1033560  66.1922730  37.4920550  30.6756570
  59.0054920  45.6797030  26.4784160  59.3725050  45.2055600  27.2245500
  58.8159980  46.5538600  26.8192500  56.7954290  44.7205670  28.7968370
  56.4911360  45.5997650  29.0218730  57.7500750  44.7805460  28.8325810
  66.0824060  47.9232020  25.1861610  66.8023180  48.4187310  24.7957720
  65.8805880  47.2449910  24.5415480  61.5434000  39.3169980  19.3291000
  60.7298610  38.8183150  19.2536310  61.3495950  40.1568230  18.9127350
  61.4642860  47.9941080  31.0730610  61.3980170  47.0736750  30.8188200
  60.8348000  48.0916520  31.7875250  64.2582390  43.6889630  17.6253160
  65.1462010  44.0006860  17.4504500  64.2287480  42.8161880  17.2333740
  55.3673480  48.5947040  23.0314030  55.8852150  47.7915300  22.9770920
  54.9157500  48.5326180  23.8730860  60.2542980  49.8613320  18.3041330
  60.5958680  50.6055550  17.8084650  59.4255690  50.1744440  18.6666160
  52.8518020  45.5608410  29.9439730  52.4932960  46.2262260  30.5313070
  52.5572580  44.7291960  30.3152350  61.3959590  50.8161650  30.8234410
  61.4104130  49.8842610  30.6053320  60.6884690  50.9021410  31.4624180
  66.5296660  45.0001470  17.0933020  66.4460380  45.4315690  16.2429460
  67.2490850  45.4599820  17.5259840  67.6070800  47.4568990  30.1702990
  66.8818990  48.0497770  29.9732380  68.1346260  47.4492530  29.3716360
  67.5583910  51.8543730  19.8215150  66.9160070  51.1999350  20.0958870
  67.1714570  52.2598820  19.0455820  63.1370390  49.1829160  23.6686840
  63.4894210  48.5857290  23.0088210  62.2532720  48.8573390  23.8395090
  59.2233670  49.9426850  21.0757250  59.9104800  50.4896060  21.4564840
  58.4366090  50.4867580  21.1106860  58.5260880  46.9472880  20.6882610
  58.9823660  47.7578130  20.9142800  58.1749090  46.6296020  21.5201100
  60.8293490  52.4579220  27.9174910  61.4735710  52.6638600  28.5948330
  61.1922930  51.6967620  27.4645760  62.1025570  50.4611570  26.6352360
  62.7447800  49.7604730  26.7484530  62.6274920  51.2410010  26.4549250
  65.9481290  50.7460190  16.3591500  65.7218870  50.0290630  16.9516140
  65.5577490  50.4972630  15.5213250  63.8763190  51.2606470  29.8388420
  64.2119430  51.8473160  30.5166340  62.9563530  51.1299180  30.0686210
  51.7297320  54.7727050  17.1335960  52.0894960  55.3716390  16.4793230
  51.5889660  55.3186940  17.9070990  65.5297540  48.6632130  18.0205660
  65.2419240  49.1244820  18.8083540  66.3249710  48.2029900  18.2889880
  57.7465940  52.1558250  17.9509630  57.7376040  52.8887940  17.3354140
  56.8264300  51.9089830  18.0436590  62.9205370  41.5423960  28.3713280
  63.2886190  40.7219170  28.6992850  62.0603570  41.6025850  28.7868930
  66.2867400  40.4980900  19.1800840  65.6580560  40.6026570  18.4659070
  65.7919320  40.7177680  19.9694720  60.7325540  52.2186490  16.6134820
  60.8337520  52.0150480  15.6836800  59.8327280  51.9644770  16.8182600
  59.8807360  44.1963550  28.5951250  60.3792610  44.6709370  29.2603100
  60.0230310  43.2727070  28.8021280  62.2866860  39.5017510  22.0354510
  62.1634640  39.5203640  21.0864020  63.2351420  39.5496450  22.1552910
  59.3743650  54.7372810  21.3082490  59.6285150  54.6994200  20.3861860
  58.4256130  54.6106140  21.3010740  67.0874220  40.4131510  29.4379640
  66.5847820  41.1536910  29.7773450  67.9030880  40.8015510  29.1216430
  65.3796230  45.6564690  22.8841000  64.4386370  45.6714920  23.0588690
  65.6940300  44.8700650  23.3301300  55.3577870  47.3384290  16.4444960
  56.1241140  47.2265650  17.0070390  55.4352560  46.6422260  15.7921730
  67.3821810  52.8273540  24.5595260  67.5069230  53.6504710  25.0319070
  68.2487370  52.6164270  24.2119410  51.7384820  50.9878320  20.1053900
  50.8124600  51.2299460  20.0959310  52.2041250  51.8152580  19.9838650
  57.9641650  54.0935060  16.0537960  58.7570260  54.3823890  15.6019750
  57.4446000  53.6627230  15.3750440  62.6962250  50.2130690  33.3673380
  62.0900410  50.2362290  32.6269130  62.3916360  49.4813730  33.9040630
  64.1262620  53.9410980  31.9782790  65.0784370  53.8569000  31.9283030
  63.9790840  54.6052690  32.6516580  67.0171820  53.3205190  17.4774700
  66.7313330  52.9070330  16.6628880  66.8191370  54.2492900  17.3575220
  58.4819050  49.3138470  15.9180310  58.3769690  48.6990820  16.6441690
  58.3143270  48.7904360  15.1343320  61.7221780  48.3758500  16.5222300
  61.1731880  48.8227800  17.1665040  62.3441040  47.8707750  17.0459970
  65.7756720  49.7300600  32.4544560  66.5166190  50.0676360  31.9512020
  65.0129400  49.8992660  31.9014330  55.5524320  43.3145970  31.2258580
  55.0220780  42.8236920  30.5981920  56.2212390  43.7430170  30.6916510
  59.9024540  46.3587030  15.6664700  60.4230200  45.6436050  15.3005850
  60.5492940  46.9972900  15.9665210  64.4502380  47.7815430  30.9899770
  64.8643400  47.9360510  31.8390190  63.5153380  47.9070650  31.1525550
  64.9224550  45.1211590  32.9938920  65.5045320  44.3663910  32.9059400
  65.0986320  45.6519030  32.2170400  58.8058060  38.8381580  28.3383260
  58.3575360  38.8605840  27.4928810  58.1723260  38.4400600  28.9353560
  59.2117610  47.7335910  28.9595700  59.6305720  48.5768640  28.7871940
  58.2926240  47.8707950  28.7302480  61.5481510  45.4652090  30.3433540
  61.6677720  44.8693230  31.0828380  62.4075510  45.5021780  29.9234840
  63.8869410  46.0189280  28.9196050  63.3604630  46.5431900  28.3161190
  64.2300750  46.6516670  29.5505780  56.2855800  43.4082650  15.3645760
  56.0844860  42.5450010  15.7259100  56.1147850  43.3216010  14.4267360
  58.3150280  42.0073440  31.6009360  58.9049970  41.6989290  32.2887180
  57.4970520  41.5353190  31.7569260  63.1343710  41.6239250  31.8342380
  62.4459230  40.9620790  31.7692370  63.8549730  41.1777520  32.2790840
  63.7644110  38.2190880  17.8932640  64.0446400  37.3758780  18.2492060
  62.9909840  38.4513990  18.4071390  55.0838600  40.5083270  15.3523640
  55.3864500  40.5150700  14.4442790  55.8233190  40.1581130  15.8491300
  59.9187240  55.2740130  30.3340080  59.8445940  56.1775270  30.6412450
  59.0166080  54.9552030  30.3062150  58.3023530  39.4517890  16.3379840
  57.9545530  38.7741880  15.7582290  58.5036300  38.9907400  17.1523230
  60.4672570  54.4398640  17.9566440  61.3623360  54.7783610  17.9785200
  60.4990200  53.7178050  17.3290720  54.1068730  49.8125690  16.1853440
  54.5443600  50.3555360  16.8411020  54.5916460  48.9872640  16.1949780
  51.3214530  52.6014720  23.6373700  51.6517540  51.7335780  23.4052340
  51.7505530  52.8073240  24.4678660  55.9176450  50.9323730  21.2975670
  55.6171990  50.8088700  22.1979580  55.8113940  50.0732320  20.8891400
  67.4466920  52.9702310  30.6632640  66.8468910  53.0294870  29.9196560
  67.5760820  52.0307290  30.7929490  68.6868370  50.7120130  16.0002350
  67.8561330  50.7796780  16.4709580  68.8640200  51.6024250  15.6969210
  68.1424830  47.4567610  18.5036550  68.9043740  48.0264260  18.6096240
  68.1579200  46.8894810  19.2744860  51.6429170  45.9805540  22.7344210
  50.9878010  45.7117180  22.0903910  52.4807120  45.8710020  22.2846190
  69.1484800  48.3117710  23.3478480  69.5193630  47.5285030  22.9414450
  69.7886730  49.0006810  23.1695780  66.1318560  49.6954290  28.7608800
  65.3178400  50.1251450  29.0234590  66.5392760  50.3072700  28.1477850
  68.1944000  47.7501980  15.6609070  68.4692840  48.6580860  15.5328290
  68.0054740  47.6864510  16.5971060  64.5919610  40.7746830  16.9562700
  65.0104490  40.5877810  16.1159360  64.2855670  39.9225880  17.2665630
  68.0909340  45.6870970  20.6538500  67.7152940  44.9198900  20.2219790
  67.3612460  46.0693670  21.1413430  52.6805100  46.3658110  27.2747550
  53.0478140  46.2785510  28.1543570  52.1115920  45.6024660  27.1754410
  67.4808960  44.8342490  30.2878020  67.2495050  44.6055240  29.3875970
  67.7413510  45.7542040  30.2422910  65.9197030  40.0598920  33.0657720
  66.7967210  40.0682320  33.4491720  65.9317870  39.3229760  32.4550070
  67.3660300  43.9128460  23.9545740  67.8897780  43.4191110  23.3235910
  67.9519720  44.0478820  24.6993310  67.5450020  43.9968330  27.4765290
  66.5952730  43.9631870  27.5910280  67.7263030  44.9068440  27.2415060
  53.0468620  38.3009340  15.6266570  53.7696750  38.8418280  15.9447790
  53.3193140  38.0272760  14.7508110  66.8560270  43.1701810  19.8938150
  67.3519390  42.9372680  20.6787030  66.6576340  42.3313650  19.4775790
  52.7360810  37.5515530  25.5289190  53.3837000  37.0012910  25.0884350
  53.1562650  37.8058680  26.3505000  68.2847430  41.8062760  22.4275830
  68.1746710  41.6518800  23.3658100  69.0455020  41.2783700  22.1851240
  66.6313150  37.7456890  28.8858830  67.2685370  38.3591030  29.2518020
  66.7788040  37.7817550  27.9408060  69.1737700  39.6370680  15.6681970
  70.0987010  39.5051860  15.4600260  69.1513490  39.7163500  16.6218420
  69.2476190  40.4081340  18.2938680  68.4527690  40.3426460  18.8231590
  69.4519470  41.3431980  18.2824030  66.1894610  54.4472890  22.2877070
  66.7853680  54.1257460  21.6111490  66.4472760  53.9744710  23.0790340
  52.4892810  37.7071200  28.2714510  52.1407630  38.1635020  29.0372690
  52.1580510  36.8128330  28.3536940  60.0017630  38.8983080  31.7933930
  59.9406520  39.4904910  32.5429340  60.9418010  38.7909040  31.6484190
  62.6392190  38.5553140  31.4326220  63.2532600  38.8732430  30.7707300
  63.1841750  38.0701730  32.0522080  69.0567370  54.4544770  28.8388060
  68.5625650  54.8513640  28.1215190  68.4480660  53.8293980  29.2325340
  63.3800230  37.1185280  27.7595510  62.5060070  37.4520390  27.5568440
  63.2710980  36.6458460  28.5847380  64.2872210  39.3256150  29.1437230
  63.9585570  38.5107910  28.7638960  65.2354510  39.2825960  29.0202920
  66.7406820  55.0968190  26.1174800  66.2809790  55.8484000  25.7432820
  66.1119280  54.3774660  26.0589600  59.9098040  54.2964920  26.1191910
  60.1975850  54.0419220  25.2424920  60.4221260  53.7442280  26.7097480
  61.1275050  38.0355120  26.6988420  60.3446840  38.5100620  26.9785180
  60.8337980  37.1309950  26.5901600  65.6796120  38.7378220  24.7437510
  66.1204210  38.6823320  23.8959110  65.4103710  39.6536230  24.8147690
  67.5434690  38.3693460  22.7546330  67.4823090  37.4254680  22.6077350
  68.3226720  38.4773550  23.2999790  51.8487440  54.5085820  21.7170280
  51.6809480  53.8756500  22.4152170  50.9821950  54.7145220  21.3664470
  59.0129270  40.4541870  22.2104450  58.2003780  40.0798760  21.8700330
  59.5170910  39.6986950  22.5125640  63.5154250  37.1184320  23.4487520
  64.1183620  37.6904530  23.9236040  62.7747240  37.6823760  23.2261420
  66.6588850  37.5205880  18.7227800  66.8539480  38.4189330  18.9895230
  65.8718720  37.2892960  19.2160750  53.4550140  53.2019050  19.1620420
  52.9297760  53.5827080  18.4582380  53.3794720  53.8269820  19.8830130
  68.2115460  54.7606590  20.4834360  68.3867650  54.0744330  19.8395280
  67.5137030  55.2853640  20.0911030  56.0543110  55.1501430  18.0369670
  56.7861930  54.8660710  17.4893560  56.3136780  54.9114710  18.9269050
  55.2157900  51.2666160  18.0416000  54.5866780  51.7351260  18.5901830
  55.3305730  50.4215380  18.4762190  66.5447960  54.4450880  33.3101150
  67.3373280  53.9500110  33.1027110  66.8381110  55.1241020  33.9176760
  62.6707620  45.3171820   4.1917200  62.5901670  44.4026430   3.9208910
  62.2572040  45.8138890   3.4856910  60.8025660  47.0950840   6.0726470
  60.0267760  46.6151280   6.3625040  61.4538590  46.4156490   5.8982630
  54.8191490  47.4070650   6.9502230  53.9876370  47.1519360   7.3498740
  55.4272470  47.4781420   7.6860150  64.8233090  51.5011030   4.8525600
  64.3614620  50.7298270   5.1812770  65.6358640  51.5277100   5.3578050
  54.7992750  51.4410740   7.1460250  55.1020790  50.5508480   6.9670470
  55.5436340  51.9980960   6.9182500  51.1916450  44.9678190   6.6184320
  51.7632560  44.2000390   6.6187960  51.1917990  45.2666950   5.7090930
  61.0496400  53.7869040   4.4729590  60.4307840  54.2426540   3.9024030
  61.9048180  53.9420500   4.0719290  60.2434650  49.7708030   6.0796630
  60.1742930  48.8297970   5.9185760  61.0054510  49.8609440   6.6519200
  52.4341320  40.3762550   8.4053250  52.2544160  39.4788300   8.6856010
  52.0321400  40.9234420   9.0800200  61.2739820  42.5778410   6.3065560
  61.6504640  41.7050290   6.1939230  61.1759330  42.9137110   5.4156000
  55.4044830  40.9504040   1.7683000  55.5111580  41.8507770   2.0751760
  54.4937190  40.9022010   1.4777650  65.0563940  40.0728850   3.2393900
  65.8773560  39.5825420   3.2819380  65.0898020  40.6626510   3.9925740
  53.0527990  42.8723050   7.0135590  53.7338100  43.1361420   7.6322990
  52.7376040  42.0323920   7.3473600  57.2452560  43.9190410   6.1008180
  57.7530780  44.4171380   6.7413200  57.7765800  43.1425610   5.9247540
  69.3463490  42.0895600   9.8037530  68.6415660  42.4777310   9.2852640
  69.6121410  42.7845890  10.4058460  55.5288660  38.5588970  10.3671600
  55.5307100  39.0761360   9.5617500  54.6992970  38.0819150  10.3441530
  56.7791510  48.1984150   8.5445100  56.4460890  48.8253070   9.1866170
  56.9558190  48.7246030   7.7646770  65.2925420  42.0129230   6.0121440
  64.5880990  42.3014120   6.5924550  65.6537580  42.8229340   5.6521000
  55.2103990  40.2698930   8.3742050  55.5520800  41.1140980   8.0795920
  54.2719800  40.4182670   8.4907390  55.9910610  50.1664950  10.3594280
  56.6084610  50.8416030  10.0778730  55.1303730  50.5752930  10.2681780
  66.9088200  51.6304360   8.2748920  66.2251720  52.3003470   8.2665590
  67.4482490  51.8285010   7.5093780  68.3612340  41.4584020   6.4030650
  67.4137250  41.4923000   6.5346080  68.6862330  42.2722970   6.7880010
  58.8931880  37.7581200   4.6986640  59.2006860  37.2028090   3.9822140
  57.9632580  37.8925660   4.5159630  64.4446940  53.4748490   6.9894100
  64.4574100  53.0710780   6.1216360  63.8922160  54.2495780   6.8855530
  65.7392360  50.1964710   2.0784270  65.6288690  49.2539040   2.2033690
  65.7360610  50.5580350   2.9647030  63.8432380  48.3778330   8.3176710
  64.2601170  48.1638440   7.4830170  64.5672200  48.6351120   8.8885330
  67.7894480  46.7765550   8.4092950  66.9613110  46.8458640   7.9343080
  68.3844960  47.3619860   7.9408780  64.7536490  43.5634870   9.3547820
  64.3407670  44.3888580   9.6087810  64.0212440  42.9779910   9.1624180
  56.8869280  46.3494770   4.2166490  56.4826280  45.6372020   3.7212390
  56.9732400  46.0048010   5.1054530  57.3550980  50.0362330   6.3805700
  57.0579270  49.4307800   5.7013480  58.3050800  50.0739640   6.2695060
  55.5997900  43.1237980   7.9965530  56.1512490  43.2333320   7.2218780
  56.1141410  43.4975580   8.7120760  65.4436590  53.6094200  10.0428800
  64.9667150  54.4166390   9.8501410  64.7598380  52.9572530  10.1955010
  56.4469410  49.7744020  13.0313500  55.5497940  49.9983990  13.2786900
  56.4722280  49.8978960  12.0824900  55.2740630  46.6457340  11.6070870
  55.1348400  47.5180140  11.9758270  54.3921990  46.3030150  11.4618810
  61.5970010  51.5633210   2.9136000  62.0365920  52.3057540   2.4991390
  61.5356900  51.8059780   3.8374960  57.0720980  52.5879040  13.8156020
  57.0436410  52.9921990  12.9484450  56.9085950  51.6589400  13.6527620
  69.0235800  53.3706140  15.1120190  69.4995520  53.8489030  15.7909270
  69.6442960  53.3023630  14.3865690  51.2259280  48.4154890   7.5241780
  51.3039700  48.5503660   6.5797500  51.8400960  47.7070780   7.7169900
  52.4706910  50.1155080   3.9347960  52.0634990  50.2569670   3.0801560
  53.3619920  49.8315240   3.7319170  68.4269050  50.5618990  12.2720200
  68.5532110  50.3230870  11.3537380  68.4690430  49.7303530  12.7442280
  62.2885790  54.2646990  10.8415010  62.8030460  54.1755000  11.6437440
  61.4454870  54.6106690  11.1342920  56.7428570  54.3300860   2.0470630
  56.5671050  53.4136400   1.8338430  55.8884310  54.6888150   2.2868430
  63.5316250  53.6852600   2.9045500  63.9873200  52.9041980   3.2184120
  63.8708770  54.3959420   3.4486680  68.2793060  42.6151450  13.2369940
  67.6637330  43.1231120  12.7085400  67.9589480  41.7149780  13.1795880
  51.2818800  49.4569060  10.0636240  51.4449840  48.9874420   9.2455610
  51.7471250  48.9492620  10.7285080  56.0537570  38.5874820   5.0996810
  55.6105720  39.3684360   4.7681330  56.6122560  38.9104710   5.8067750
  60.3407380  41.4543340  10.7032130  59.8786750  41.6626360  11.5152070
  59.9385490  40.6402690  10.4002800  65.3411890  42.6752290  11.8328790
  64.4905480  42.3758040  12.1537860  65.1813680  42.9194300  10.9212610
  62.4361600  44.1754040  13.9327580  62.7615010  43.3417790  13.5929810
  63.2241930  44.6982560  14.0805910  58.0913470  39.1322150   6.9586410
  58.3885800  40.0384980   6.8778430  58.6399030  38.6440930   6.3445980
  55.8451790  43.7108390   2.8278060  55.6192710  43.4945560   3.7324680
  55.0644320  44.1436850   2.4824030  58.2851000  44.6093970  13.4938330
  58.1894600  43.6688700  13.3438730  59.1282980  44.8309040  13.0986400
  61.6814420  42.3535300   3.4571990  62.0743990  42.6707500   2.6440680
  62.0431270  41.4747180   3.5716510  53.4161540  41.0207640  11.6472110
  53.0224930  41.8682850  11.8544890  52.7279940  40.3834010  11.8380750
  59.9906590  41.1042610  14.7168850  59.3004910  40.9114810  15.3514940
  60.7338890  41.3877250  15.2493150  50.7178590  38.9436100   5.6802190
  50.4291640  39.5138960   6.3927170  51.4624350  38.4640550   6.0433420
  62.2669560  44.9441050   7.5522770  61.5350680  45.4527860   7.9012870
  61.8693900  44.1271030   7.2511550  58.7046950  41.6195250   5.9575260
  58.7083010  41.1785200   5.1079800  59.5998070  41.9412580   6.0647080
  54.5549330  41.5021740   4.9169470  54.2149380  41.9796970   5.6736520
  53.7926650  41.0486860   4.5570570  62.7295470  40.3974730   6.9645710
  62.7468210  40.8483380   7.8087560  62.4811050  39.4980370   7.1779150
  66.1566220  37.8106910  12.8032090  66.4811990  37.0796570  13.3290070
  66.1922730  37.4920550  11.9013080  52.8557780  48.8320490  12.2232050
  52.4712570  48.1914160  12.8215010  53.1669970  49.5356610  12.7926780
  59.0054920  45.6797030   7.7040670  59.3725050  45.2055600   8.4502010
  58.8159980  46.5538600   8.0449010  51.8695410  40.4240720   3.8334140
  51.5842330  40.0596390   4.6712760  51.8074270  39.6921180   3.2197280
  56.7954290  44.7205670  10.0224880  56.4911360  45.5997650  10.2475240
  57.7500750  44.7805460  10.0582320  66.0824060  47.9232020   6.4118120
  66.8023180  48.4187310   6.0214230  65.8805880  47.2449910   5.7671990
  61.4642860  47.9941080  12.2987120  61.3980170  47.0736750  12.0444710
  60.8348000  48.0916520  13.0131760  55.3673480  48.5947040   4.2570540
  55.8852150  47.7915300   4.2027430  54.9157500  48.5326180   5.0987370
  52.8518020  45.5608410  11.1696240  52.4932960  46.2262260  11.7569580
  52.5572580  44.7291960  11.5408860  56.0531140  46.0192650  14.0535790
  55.7531280  46.1649830  13.1563610  56.8242380  45.4597940  13.9609180
  61.3959590  50.8161650  12.0490920  61.4104130  49.8842610  11.8309830
  60.6884690  50.9021410  12.6880690  67.6070800  47.4568990  11.3959500
  66.8818990  48.0497770  11.1988890  68.1346260  47.4492530  10.5972870
  63.1370390  49.1829160   4.8943350  63.4894210  48.5857290   4.2344720
  62.2532720  48.8573390   5.0651600  59.2233670  49.9426850   2.3013760
  59.9104800  50.4896060   2.6821350  58.4366090  50.4867580   2.3363370
  58.5260880  46.9472880   1.9139120  58.9823660  47.7578130   2.1399310
  58.1749090  46.6296020   2.7457610  60.8293490  52.4579220   9.1431420
  61.4735710  52.6638600   9.8204840  61.1922930  51.6967620   8.6902270
  54.4272660  37.2910530   2.3861640  54.2987290  37.2828430   3.3346560
  53.6034680  37.6293620   2.0352650  62.1025570  50.4611570   7.8608870
  62.7447800  49.7604730   7.9741040  62.6274920  51.2410010   7.6805760
  63.8763190  51.2606470  11.0644930  64.2119430  51.8473160  11.7422850
  62.9563530  51.1299180  11.2942720  51.4266590  39.0501650  11.8468340
  50.7125110  39.2498570  12.4520950  51.8461630  38.2741220  12.2183140
  51.7139180  53.0381910  12.8334870  51.8230300  52.0976650  12.6930260
  51.0619740  53.3036660  12.1848600  59.7051770  51.3097800  14.2332990
  59.3848640  50.5907040  14.7778680  59.0310130  51.9852870  14.3069050
  62.9205370  41.5423960   9.5969790  63.2886190  40.7219170   9.9249360
  62.0603570  41.6025850  10.0125440  58.2551430  42.7766850   1.8215230
  57.5467580  43.2453190   2.2628840  58.5395910  42.1188860   2.4560420
  59.8807360  44.1963550   9.8207760  60.3792610  44.6709370  10.4859610
  60.0230310  43.2727070  10.0277790  62.2866860  39.5017510   3.2611020
  62.1634640  39.5203640   2.3120530  63.2351420  39.5496450   3.3809420
  59.3743650  54.7372810   2.5339000  59.6285150  54.6994200   1.6118370
  58.4256130  54.6106140   2.5267250  67.0874220  40.4131510  10.6636150
  66.5847820  41.1536910  11.0029960  67.9030880  40.8015510  10.3472940
  65.3796230  45.6564690   4.1097510  64.4386370  45.6714920   4.2845200
  65.6940300  44.8700650   4.5557810  67.3821810  52.8273540   5.7851770
  67.5069230  53.6504710   6.2575580  68.2487370  52.6164270   5.4375920
  54.8539340  54.9204750   5.4568900  55.5901820  54.3720210   5.7277470
  55.2380260  55.7860760   5.3174890  53.8597620  54.1050820  14.6454480
  54.6610350  54.4262870  15.0589880  53.3449440  53.7446400  15.3674390
  62.6962250  50.2130690  14.5929890  62.0900410  50.2362290  13.8525640
  62.3916360  49.4813730  15.1297140  64.1262620  53.9410980  13.2039300
  65.0784370  53.8569000  13.1539540  63.9790840  54.6052690  13.8773090
  51.5795430  46.5924280  13.5890530  52.0834450  46.0131560  14.1606760
  50.8402850  46.8764510  14.1266900  58.6333370  47.9995270  13.1226050
  57.8679040  48.5680270  13.0380720  58.8149330  47.7071480  12.2294280
  65.7756720  49.7300600  13.6801070  66.5166190  50.0676360  13.1768530
  65.0129400  49.8992660  13.1270840  53.6118510  44.7353870  14.4840600
  53.6523850  44.4367740  15.3925830  54.4664010  45.1361480  14.3248120
  55.5524320  43.3145970  12.4515090  55.0220780  42.8236920  11.8238430
  56.2212390  43.7430170  11.9173020  64.4502380  47.7815430  12.2156280
  64.8643400  47.9360510  13.0646700  63.5153380  47.9070650  12.3782060
  64.9224550  45.1211590  14.2195430  65.5045320  44.3663910  14.1315910
  65.0986320  45.6519030  13.4426910  56.0396620  40.2808340  12.5312380
  55.9453490  39.6629090  11.8063250  55.4594010  41.0074630  12.3042290
  58.8058060  38.8381580   9.5639770  58.3575360  38.8605840   8.7185320
  58.1723260  38.4400600  10.1610070  59.2117610  47.7335910  10.1852210
  59.6305720  48.5768640  10.0128450  58.2926240  47.8707950   9.9558990
  61.5481510  45.4652090  11.5690050  61.6677720  44.8693230  12.3084890
  62.4075510  45.5021780  11.1491350  63.8869410  46.0189280  10.1452560
  63.3604630  46.5431900   9.5417700  64.2300750  46.6516670  10.7762290
  57.0625030  54.0388920  11.3009940  56.5246120  54.7634980  10.9818640
  57.3158990  53.5619260  10.5107280  58.3150280  42.0073440  12.8265870
  58.9049970  41.6989290  13.5143690  57.4970520  41.5353190  12.9825770
  63.1343710  41.6239250  13.0598890  62.4459230  40.9620790  12.9948880
  63.8549730  41.1777520  13.5047350  59.9187240  55.2740130  11.5596590
  59.8445940  56.1775270  11.8668960  59.0166080  54.9552030  11.5318660
  51.3214530  52.6014720   4.8630210  51.6517540  51.7335780   4.6308850
  51.7505530  52.8073240   5.6935170  55.9176450  50.9323730   2.5232180
  55.6171990  50.8088700   3.4236090  55.8113940  50.0732320   2.1147910
  51.8104740  53.4685310   7.6011840  51.3735730  53.6486110   8.4335990
  52.3782420  54.2259930   7.4593560  67.4466920  52.9702310  11.8889150
  66.8468910  53.0294870  11.1453070  67.5760820  52.0307290  12.0186000
  51.6429170  45.9805540   3.9600720  50.9878010  45.7117180   3.3160420
  52.4807120  45.8710020   3.5102700  69.1484800  48.3117710   4.5734990
  69.5193630  47.5285030   4.1670960  69.7886730  49.0006810   4.3952290
  66.1318560  49.6954290   9.9865310  65.3178400  50.1251450  10.2491100
  66.5392760  50.3072700   9.3734360  68.0909340  45.6870970   1.8795010
  67.7152940  44.9198900   1.4476300  67.3612460  46.0693670   2.3669940
  52.6805100  46.3658110   8.5004060  53.0478140  46.2785510   9.3800080
  52.1115920  45.6024660   8.4010920  67.4808960  44.8342490  11.5134530
  67.2495050  44.6055240  10.6132480  67.7413510  45.7542040  11.4679420
  52.2321100  43.2767200  12.4062480  51.3377150  43.2433960  12.7456190
  52.7718650  43.4753990  13.1713730  65.9197030  40.0598920  14.2914230
  66.7967210  40.0682320  14.6748230  65.9317870  39.3229760  13.6806580
  67.3660300  43.9128460   5.1802250  67.8897780  43.4191110   4.5492420
  67.9519720  44.0478820   5.9249820  67.5450020  43.9968330   8.7021800
  66.5952730  43.9631870   8.8166790  67.7263030  44.9068440   8.4671570
  52.7360810  37.5515530   6.7545700  53.3837000  37.0012910   6.3140860
  53.1562650  37.8058680   7.5761510  68.2847430  41.8062760   3.6532340
  68.1746710  41.6518800   4.5914610  69.0455020  41.2783700   3.4107750
  66.6313150  37.7456890  10.1115340  67.2685370  38.3591030  10.4774530
  66.7788040  37.7817550   9.1664570  66.1894610  54.4472890   3.5133580
  66.7853680  54.1257460   2.8368000  66.4472760  53.9744710   4.3046850
  52.4892810  37.7071200   9.4971020  52.1407630  38.1635020  10.2629200
  52.1580510  36.8128330   9.5793450  54.0957180  50.8790800  13.6624210
  54.0526810  50.5083710  14.5438670  54.2268190  51.8168370  13.8026030
  57.7963210  52.4350390   9.2633930  57.5554570  52.7024950   8.3764450
  58.7365850  52.6056120   9.3184790  60.0017630  38.8983080  13.0190440
  59.9406520  39.4904910  13.7685850  60.9418010  38.7909040  12.8740700
  62.6392190  38.5553140  12.6582730  63.2532600  38.8732430  11.9963810
  63.1841750  38.0701730  13.2778590  69.0567370  54.4544770  10.0644570
  68.5625650  54.8513640   9.3471700  68.4480660  53.8293980  10.4581850
  53.1613450  37.2347400  12.7721790  53.7096440  37.0535450  12.0087900
  53.2268760  36.4441510  13.3078100  53.9345210  53.8253050  10.7821990
  53.3405530  53.6937750  11.5212030  53.9269050  52.9891190  10.3164090
  63.3800230  37.1185280   8.9852020  62.5060070  37.4520390   8.7824950
  63.2710980  36.6458460   9.8103890  64.2872210  39.3256150  10.3693740
  63.9585570  38.5107910   9.9895470  65.2354510  39.2825960  10.2459430
  66.7406820  55.0968190   7.3431310  66.2809790  55.8484000   6.9689330
  66.1119280  54.3774660   7.2846110  53.5657440  51.1911430   9.7330030
  52.8391500  50.5716720   9.6655980  53.6266590  51.5852040   8.8628110
  57.1702540  53.4056430   6.5179440  57.6867560  52.7943790   5.9927700
  57.8199920  53.9085210   7.0090450  59.9098040  54.2964920   7.3448420
  60.1975850  54.0419220   6.4681430  60.4221260  53.7442280   7.9353990
  61.1275050  38.0355120   7.9244930  60.3446840  38.5100620   8.2041690
  60.8337980  37.1309950   7.8158110  65.6796120  38.7378220   5.9694020
  66.1204210  38.6823320   5.1215620  65.4103710  39.6536230   6.0404200
  67.5434690  38.3693460   3.9802840  67.4823090  37.4254680   3.8333860
  68.3226720  38.4773550   4.5256300  51.8487440  54.5085820   2.9426790
  51.6809480  53.8756500   3.6408680  50.9821950  54.7145220   2.5920980
  59.0129270  40.4541870   3.4360960  58.2003780  40.0798760   3.0956840
  59.5170910  39.6986950   3.7382150  63.5154250  37.1184320   4.6744030
  64.1183620  37.6904530   5.1492550  62.7747240  37.6823760   4.4517930
  57.0378450  38.6041790   2.0406010  56.4081190  37.9029100   2.2076140
  56.4983590  39.3645920   1.8239170  59.9770400  55.2181020  14.7116620
  60.9037710  54.9825290  14.7552580  59.9620830  56.0453020  14.2302650
  57.1634010  37.8825770  14.4758500  56.8818280  38.3859370  13.7119320
  57.5453710  37.0847520  14.1100630  63.7649470  37.2979350  15.0538970
  63.6514920  37.6173960  15.9490490  64.5819210  37.6991860  14.7576250
  66.5447960  54.4450880  14.5357660  67.3373280  53.9500110  14.3283620
  66.8381110  55.1241020  15.1433270  62.6707620  26.5428330  60.5147670
  62.5901670  25.6282940  60.2439380  62.2572040  27.0395400  59.8087380
  60.8025660  28.3207350  62.3956940  60.0267760  27.8407790  62.6855510
  61.4538590  27.6413000  62.2213100  54.8191490  28.6327160  63.2732700
  53.9876370  28.3775870  63.6729210  55.4272470  28.7037930  64.0090620
  64.8233090  32.7267540  61.1756070  64.3614620  31.9554780  61.5043240
  65.6358640  32.7533610  61.6808520  54.7992750  32.6667250  63.4690720
  55.1020790  31.7764990  63.2900940  55.5436340  33.2237470  63.2412970
  53.2283440  23.5929050  57.0575090  52.3400140  23.9345020  56.9554970
  53.5124630  23.3929370  56.1655920  51.1916450  26.1934700  62.9414790
  51.7632560  25.4256900  62.9418430  51.1917990  26.4923460  62.0321400
  61.0496400  35.0125550  60.7960060  60.4307840  35.4683050  60.2254500
  61.9048180  35.1677010  60.3949760  60.2434650  30.9964540  62.4027100
  60.1742930  30.0554480  62.2416230  61.0054510  31.0865950  62.9749670
  52.4341320  21.6019060  64.7283720  52.2544160  20.7044810  65.0086480
  52.0321400  22.1490930  65.4030670  61.2739820  23.8034920  62.6296030
  61.6504640  22.9306800  62.5169700  61.1759330  24.1393620  61.7386470
  55.4044830  22.1760550  58.0913470  55.5111580  23.0764280  58.3982230
  54.4937190  22.1278520  57.8008120  65.0563940  21.2985360  59.5624370
  65.8773560  20.8081930  59.6049850  65.0898020  21.8883020  60.3156210
  53.0527990  24.0979560  63.3366060  53.7338100  24.3617930  63.9553460
  52.7376040  23.2580430  63.6704070  57.2452560  25.1446920  62.4238650
  57.7530780  25.6427890  63.0643670  57.7765800  24.3682120  62.2478010
  61.9159750  29.8964790  58.1891970  61.2977020  30.3614240  57.6254690
  62.4283000  30.5892270  58.6061480  56.7791510  29.4240660  64.8675570
  56.4460890  30.0509580  65.5096640  56.9558190  29.9502540  64.0877240
  65.2925420  23.2385740  62.3351910  64.5880990  23.5270630  62.9155020
  65.6537580  24.0485850  61.9751470  55.2103990  21.4955440  64.6972520
  55.5520800  22.3397490  64.4026390  54.2719800  21.6439180  64.8137860
  51.2842950  30.5821320  55.5631600  50.9070930  31.0708420  54.8316500
  51.5416020  31.2546600  56.1938130  66.9088200  32.8560870  64.5979390
  66.2251720  33.5259980  64.5896060  67.4482490  33.0541520  63.8324250
  68.3612340  22.6840530  62.7261120  67.4137250  22.7179510  62.8576550
  68.6862330  23.4979480  63.1110480  58.8931880  18.9837710  61.0217110
  59.2006860  18.4284600  60.3052610  57.9632580  19.1182170  60.8390100
  64.4446940  34.7005000  63.3124570  64.4574100  34.2967290  62.4446830
  63.8922160  35.4752290  63.2086000  65.7392360  31.4221220  58.4014740
  65.6288690  30.4795550  58.5264160  65.7360610  31.7836860  59.2877500
  63.8432380  29.6034840  64.6407180  64.2601170  29.3894950  63.8060640
  64.5672200  29.8607630  65.2115800  61.2812640  27.0486540  57.7577230
  60.3541920  26.9823920  57.9865700  61.4337460  27.9866670  57.6432470
  61.2681720  23.3203540  54.7544390  60.3285390  23.4817500  54.8396850
  61.5864980  24.0389220  54.2080380  67.7894480  28.0022060  64.7323420
  66.9613110  28.0715150  64.2573550  68.3844960  28.5876370  64.2639250
  65.3109930  28.6106840  58.2612480  64.6922350  28.2726390  57.6138780
  65.2934380  27.9666600  58.9691670  64.7536490  24.7891380  65.6778290
  64.3407670  25.6145090  65.9318280  64.0212440  24.2036420  65.4854650
  56.8869280  27.5751280  60.5396960  56.4826280  26.8628530  60.0442860
  56.9732400  27.2304520  61.4285000  57.3550980  31.2618840  62.7036170
  57.0579270  30.6564310  62.0243950  58.3050800  31.2996150  62.5925530
  55.5997900  24.3494490  64.3196000  56.1512490  24.4589830  63.5449250
  56.1141410  24.7232090  65.0351230  65.4436590  34.8350710  66.3659270
  64.9667150  35.6422900  66.1731880  64.7598380  34.1829040  66.5185480
  63.4874630  27.8493650  55.2685230  63.9267910  27.0116080  55.1223050
  64.2003050  28.4823050  55.3549370  61.5970010  32.7889720  59.2366470
  62.0365920  33.5314050  58.8221860  61.5356900  33.0316290  60.1605430
  67.0691770  19.1036460  53.5826270  66.7564430  19.1963290  54.4825340
  67.8304240  19.6817490  53.5323700  53.5873910  26.4696260  58.0403610
  53.4671510  27.1958350  57.4284880  53.2774800  25.6999170  57.5631520
  51.2259280  29.6411400  63.8472250  51.3039700  29.7760170  62.9027970
  51.8400960  28.9327290  64.0400370  52.4706910  31.3411590  60.2578430
  52.0634990  31.4826180  59.4032030  53.3619920  31.0571750  60.0549640
  64.2640190  35.7758840  56.5929480  64.1041330  35.4861780  57.4911310
  64.0986900  34.9998970  56.0574710  56.7428570  35.5557370  58.3701100
  56.5671050  34.6392910  58.1568900  55.8884310  35.9144660  58.6098900
  63.9666320  33.2846400  55.1527480  63.2731480  33.2823690  54.4929760
  64.7089180  32.8605720  54.7221650  63.5316250  34.9109110  59.2275970
  63.9873200  34.1298490  59.5414590  63.8708770  35.6215930  59.7717150
  56.0537570  19.8131330  61.4227280  55.6105720  20.5940870  61.0911800
  56.6122560  20.1361220  62.1298220  59.1696390  19.4342030  56.3033110
  58.5450570  19.4301900  57.0286420  59.0826510  18.5672990  55.9069080
  58.0913470  20.3578660  63.2816880  58.3885800  21.2641490  63.2008900
  58.6399030  19.8697440  62.6676450  55.8451790  24.9364900  59.1508530
  55.6192710  24.7202070  60.0555150  55.0644320  25.3693360  58.8054500
  63.0749550  24.9428270  57.7499180  62.4758440  25.6664070  57.5662800
  63.6229160  24.8805050  56.9675630  61.6814420  23.5791810  59.7802460
  62.0743990  23.8964010  58.9671150  62.0431270  22.7003690  59.8946980
  50.7178590  20.1692610  62.0032660  50.4291640  20.7395470  62.7157640
  51.4624350  19.6897060  62.3663890  50.9048820  24.1112730  53.2135380
  50.8223490  25.0543490  53.3550370  50.5531880  23.9687640  52.3347730
  62.2669560  26.1697560  63.8753240  61.5350680  26.6784370  64.2243340
  61.8693900  25.3527540  63.5742020  58.7046950  22.8451760  62.2805730
  58.7083010  22.4041710  61.4310270  59.5998070  23.1669090  62.3877550
  54.5549330  22.7278250  61.2399940  54.2149380  23.2053480  61.9966990
  53.7926650  22.2743370  60.8801040  58.7667100  23.8463840  55.2712490
  58.8879920  23.8050320  56.2198310  58.3815610  24.7087990  55.1159220
  62.7295470  21.6231240  63.2876180  62.7468210  22.0739890  64.1318030
  62.4811050  20.7236880  63.5009620  57.7788600  26.1564980  54.6695790
  57.2105500  25.7083230  54.0431700  58.4877600  26.5157760  54.1360940
  59.0054920  26.9053540  64.0271140  59.3725050  26.4312110  64.7732480
  58.8159980  27.7795110  64.3679480  51.8695410  21.6497230  60.1564610
  51.5842330  21.2852900  60.9943230  51.8074270  20.9177690  59.5427750
  55.3236080  30.1523170  56.9422200  54.5498340  29.6120790  56.7820920
  56.0530710  29.6329780  56.6039960  66.0824060  29.1488530  62.7348590
  66.8023180  29.6443820  62.3444700  65.8805880  28.4706420  62.0902460
  61.5434000  20.5426490  56.8777980  60.7298610  20.0439660  56.8023290
  61.3495950  21.3824740  56.4614330  64.2582390  24.9146140  55.1740140
  65.1462010  25.2263370  54.9991480  64.2287480  24.0418390  54.7820720
  55.3673480  29.8203550  60.5801010  55.8852150  29.0171810  60.5257900
  54.9157500  29.7582690  61.4217840  60.2542980  31.0869830  55.8528310
  60.5958680  31.8312060  55.3571630  59.4255690  31.4000950  56.2153140
  66.5296660  26.2257980  54.6420000  66.4460380  26.6572200  53.7916440
  67.2490850  26.6856330  55.0746820  67.5583910  33.0800240  57.3702130
  66.9160070  32.4255860  57.6445850  67.1714570  33.4855330  56.5942800
  63.1370390  30.4085670  61.2173820  63.4894210  29.8113800  60.5575190
  62.2532720  30.0829900  61.3882070  59.2233670  31.1683360  58.6244230
  59.9104800  31.7152570  59.0051820  58.4366090  31.7124090  58.6593840
  51.3626070  26.7856180  54.1161310  52.2320920  27.0680980  54.3997230
  50.8716390  27.5992050  54.0010120  58.5260880  28.1729390  58.2369590
  58.9823660  28.9834640  58.4629780  58.1749090  27.8552530  59.0688080
  60.8293490  33.6835730  65.4661890  61.4735710  33.8895110  66.1435310
  61.1922930  32.9224130  65.0132740  54.4272660  18.5167040  58.7092110
  54.2987290  18.5084940  59.6577030  53.6034680  18.8550130  58.3583120
  62.1025570  31.6868080  64.1839340  62.7447800  30.9861240  64.2971510
  62.6274920  32.4666520  64.0036230  65.9481290  31.9716700  53.9078480
  65.7218870  31.2547140  54.5003120  65.5577490  31.7229140  53.0700230
  51.7297320  35.9983560  54.6822940  52.0894960  36.5972900  54.0280210
  51.5889660  36.5443450  55.4557970  65.5297540  29.8888640  55.5692640
  65.2419240  30.3501330  56.3570520  66.3249710  29.4286410  55.8376860
  57.7465940  33.3814760  55.4996610  57.7376040  34.1144450  54.8841120
  56.8264300  33.1346340  55.5923570  53.3472580  28.6029650  56.2443370
  52.7400530  29.3428550  56.2538670  53.8221930  28.6929010  55.4181570
  62.9205370  22.7680470  65.9200260  63.2886190  21.9475680  66.2479830
  62.0603570  22.8282360  66.3355910  66.2867400  21.7237410  56.7287820
  65.6580560  21.8283080  56.0146050  65.7919320  21.9434190  57.5181700
  60.7325540  33.4443000  54.1621800  60.8337520  33.2406990  53.2323780
  59.8327280  33.1901280  54.3669580  58.2551430  24.0023360  58.1445700
  57.5467580  24.4709700  58.5859310  58.5395910  23.3445370  58.7790890
  62.2866860  20.7274020  59.5841490  62.1634640  20.7460150  58.6351000
  63.2351420  20.7752960  59.7039890  59.3743650  35.9629320  58.8569470
  59.6285150  35.9250710  57.9348840  58.4256130  35.8362650  58.8497720
  56.4586450  22.3108440  55.5196410  57.3076980  22.7478590  55.4536600
  56.0917720  22.6228700  56.3468470  65.3796230  26.8821200  60.4327980
  64.4386370  26.8971430  60.6075670  65.6940300  26.0957160  60.8788280
  55.3577870  28.5640800  53.9931940  56.1241140  28.4522160  54.5557370
  55.4352560  27.8678770  53.3408710  54.0524630  25.9965870  54.6764830
  54.1328220  25.0493380  54.7882230  54.9444380  26.3272750  54.7825490
  67.3821810  34.0530050  62.1082240  67.5069230  34.8761220  62.5806050
  68.2487370  33.8420780  61.7606390  54.8539340  36.1461260  61.7799370
  55.5901820  35.5976720  62.0507940  55.2380260  37.0117270  61.6405360
  51.7384820  32.2134830  57.6540880  50.8124600  32.4555970  57.6446290
  52.2041250  33.0409090  57.5325630  57.9641650  35.3191570  53.6024940
  58.7570260  35.6080400  53.1506730  57.4446000  34.8883740  52.9237420
  67.0171820  34.5461700  55.0261680  66.7313330  34.1326840  54.2115860
  66.8191370  35.4749410  54.9062200  58.4819050  30.5394980  53.4667290
  58.3769690  29.9247330  54.1928670  58.3143270  30.0160870  52.6830300
  61.7221780  29.6015010  54.0709280  61.1731880  30.0484310  54.7152020
  62.3441040  29.0964260  54.5946950  57.3896900  28.5605930  55.9674580
  57.8113320  28.3945800  56.8105970  57.5147740  27.7506160  55.4729720
  59.9024540  27.5843540  53.2151680  60.4230200  26.8692560  52.8492830
  60.5492940  28.2229410  53.5152190  58.8058060  20.0638090  65.8870240
  58.3575360  20.0862350  65.0415790  58.1723260  19.6657110  66.4840540
  59.2117610  28.9592420  66.5082680  59.6305720  29.8025150  66.3358920
  58.2926240  29.0964460  66.2789460  56.2855800  24.6339160  52.9132740
  56.0844860  23.7706520  53.2746080  56.1147850  24.5472520  51.9754340
  63.7644110  19.4447390  55.4419620  64.0446400  18.6015290  55.7979040
  62.9909840  19.6770500  55.9558370  55.0838600  21.7339780  52.9010620
  55.3864500  21.7407210  51.9929770  55.8233190  21.3837640  53.3978280
  58.3023530  20.6774400  53.8866820  57.9545530  19.9998390  53.3069270
  58.5036300  20.2163910  54.7010210  60.4672570  35.6655150  55.5053420
  61.3623360  36.0040120  55.5272180  60.4990200  34.9434560  54.8777700
  54.1068730  31.0382200  53.7340420  54.5443600  31.5811870  54.3898000
  54.5916460  30.2129150  53.7436760  51.3214530  33.8271230  61.1860680
  51.6517540  32.9592290  60.9539320  51.7505530  34.0329750  62.0165640
  55.9176450  32.1580240  58.8462650  55.6171990  32.0345210  59.7466560
  55.8113940  31.2988830  58.4378380  51.8104740  34.6941820  63.9242310
  51.3735730  34.8742620  64.7566460  52.3782420  35.4516440  63.7824030
  68.6868370  31.9376640  53.5489330  67.8561330  32.0053290  54.0196560
  68.8640200  32.8280760  53.2456190  68.1424830  28.6824120  56.0523530
  68.9043740  29.2520770  56.1583220  68.1579200  28.1151320  56.8231840
  51.6429170  27.2062050  60.2831190  50.9878010  26.9373690  59.6390890
  52.4807120  27.0966530  59.8333170  69.1484800  29.5374220  60.8965460
  69.5193630  28.7541540  60.4901430  69.7886730  30.2263320  60.7182760
  68.1944000  28.9758490  53.2096050  68.4692840  29.8837370  53.0815270
  68.0054740  28.9121020  54.1458040  64.5919610  22.0003340  54.5049680
  65.0104490  21.8134320  53.6646340  64.2855670  21.1482390  54.8152610
  68.0909340  26.9127480  58.2025480  67.7152940  26.1455410  57.7706770
  67.3612460  27.2950180  58.6900410  52.6805100  27.5914620  64.8234530
  53.0478140  27.5042020  65.7030550  52.1115920  26.8281170  64.7241390
  50.8567250  24.4160980  56.2256520  49.9531330  24.6791180  56.0508180
  51.3407870  24.6872150  55.4456480  67.3660300  25.1384970  61.5032720
  67.8897780  24.6447620  60.8722890  67.9519720  25.2735330  62.2480290
  67.5450020  25.2224840  65.0252270  66.5952730  25.1888380  65.1397260
  67.7263030  26.1324950  64.7902040  53.3994460  23.4726520  54.1350900
  54.1086160  23.0509740  53.6498180  52.6834400  23.5401750  53.5034250
  53.0468620  19.5265850  53.1753550  53.7696750  20.0674790  53.4934770
  53.3193140  19.2529270  52.2995090  66.8560270  24.3958320  57.4425130
  67.3519390  24.1629190  58.2274010  66.6576340  23.5570160  57.0262770
  52.7360810  18.7772040  63.0776170  53.3837000  18.2269420  62.6371330
  53.1562650  19.0315190  63.8991980  68.2847430  23.0319270  59.9762810
  68.1746710  22.8775310  60.9145080  69.0455020  22.5040210  59.7338220
  69.1737700  20.8627190  53.2168950  70.0987010  20.7308370  53.0087240
  69.1513490  20.9420010  54.1705400  69.2476190  21.6337850  55.8425660
  68.4527690  21.5682970  56.3718570  69.4519470  22.5688490  55.8311010
  66.1894610  35.6729400  59.8364050  66.7853680  35.3513970  59.1598470
  66.4472760  35.2001220  60.6277320  57.7963210  33.6606900  65.5864400
  57.5554570  33.9281460  64.6994920  58.7365850  33.8312630  65.6415260
  63.3800230  18.3441790  65.3082490  62.5060070  18.6776900  65.1055420
  63.2710980  17.8714970  66.1334360  66.7406820  36.3224700  63.6661780
  66.2809790  37.0740510  63.2919800  66.1119280  35.6031170  63.6076580
  53.5657440  32.4167940  66.0560500  52.8391500  31.7973230  65.9886450
  53.6266590  32.8108550  65.1858580  57.1702540  34.6312940  62.8409910
  57.6867560  34.0200300  62.3158170  57.8199920  35.1341720  63.3320920
  59.9098040  35.5221430  63.6678890  60.1975850  35.2675730  62.7911900
  60.4221260  34.9698790  64.2584460  61.1275050  19.2611630  64.2475400
  60.3446840  19.7357130  64.5272160  60.8337980  18.3566460  64.1388580
  65.6796120  19.9634730  62.2924490  66.1204210  19.9079830  61.4446090
  65.4103710  20.8792740  62.3634670  67.5434690  19.5949970  60.3033310
  67.4823090  18.6511190  60.1564330  68.3226720  19.7030060  60.8486770
  51.8487440  35.7342330  59.2657260  51.6809480  35.1013010  59.9639150
  50.9821950  35.9401730  58.9151450  52.4715460  19.5659110  56.7689120
  53.2294820  19.6787990  56.1953150  52.0092630  20.4028310  56.7232550
  59.0129270  21.6798380  59.7591430  58.2003780  21.3055270  59.4187310
  59.5170910  20.9243460  60.0612620  63.5154250  18.3440830  60.9974500
  64.1183620  18.9161040  61.4723020  62.7747240  18.9080270  60.7748400
  66.6588850  18.7462390  56.2714780  66.8539480  19.6445840  56.5382210
  65.8718720  18.5149470  56.7647730  53.4550140  34.4275560  56.7107400
  52.9297760  34.8083590  56.0069360  53.3794720  35.0526330  57.4317110
  54.8440610  20.0923160  55.3091090  55.3733370  19.3052960  55.1799040
  55.4768930  20.7714350  55.5426620  57.0378450  19.8298300  58.3636480
  56.4081190  19.1285610  58.5306610  56.4983590  20.5902430  58.1469640
  68.2115460  35.9863100  58.0321340  68.3867650  35.3000840  57.3882260
  67.5137030  36.5110150  57.6398010  56.0543110  36.3757940  55.5856650
  56.7861930  36.0917220  55.0380540  56.3136780  36.1371220  56.4756030
  55.2157900  32.4922670  55.5902980  54.5866780  32.9607770  56.1388810
  55.3305730  31.6471890  56.0249170  51.1916450  26.1934700  44.1671300
  51.7632560  25.4256900  44.1674940  51.1917990  26.4923460  43.2577910
  52.4341320  21.6019060  45.9540230  52.2544160  20.7044810  46.2342990
  52.0321400  22.1490930  46.6287180  61.2739820  23.8034920  43.8552540
  61.6504640  22.9306800  43.7426210  61.1759330  24.1393620  42.9642980
  65.0563940  21.2985360  40.7880880  65.8773560  20.8081930  40.8306360
  65.0898020  21.8883020  41.5412720  53.0527990  24.0979560  44.5622570
  53.7338100  24.3617930  45.1809970  52.7376040  23.2580430  44.8960580
  57.2452560  25.1446920  43.6495160  57.7530780  25.6427890  44.2900180
  57.7765800  24.3682120  43.4734520  69.3463490  23.3152110  47.3524510
  68.6415660  23.7033820  46.8339620  69.6121410  24.0102400  47.9545440
  55.5288660  19.7845480  47.9158580  55.5307100  20.3017870  47.1104480
  54.6992970  19.3075660  47.8928510  65.2925420  23.2385740  43.5608420
  64.5880990  23.5270630  44.1411530  65.6537580  24.0485850  43.2007980
  55.2103990  21.4955440  45.9229030  55.5520800  22.3397490  45.6282900
  54.2719800  21.6439180  46.0394370  68.3612340  22.6840530  43.9517630
  67.4137250  22.7179510  44.0833060  68.6862330  23.4979480  44.3366990
  58.8931880  18.9837710  42.2473620  59.2006860  18.4284600  41.5309120
  57.9632580  19.1182170  42.0646610  61.2681720  23.3203540  35.9800900
  60.3285390  23.4817500  36.0653360  61.5864980  24.0389220  35.4336890
  64.7536490  24.7891380  46.9034800  64.3407670  25.6145090  47.1574790
  64.0212440  24.2036420  46.7111160  55.5997900  24.3494490  45.5452510
  56.1512490  24.4589830  44.7705760  56.1141410  24.7232090  46.2607740
  65.4436590  34.8350710  47.5915780  64.9667150  35.6422900  47.3988390
  64.7598380  34.1829040  47.7441990  56.4469410  31.0000530  50.5800480
  55.5497940  31.2240500  50.8273880  56.4722280  31.1235470  49.6311880
  63.4874630  27.8493650  36.4941740  63.9267910  27.0116080  36.3479560
  64.2003050  28.4823050  36.5805880  57.0720980  33.8135550  51.3643000
  57.0436410  34.2178500  50.4971430  56.9085950  32.8845910  51.2014600
  67.0691770  19.1036460  34.8082780  66.7564430  19.1963290  35.7081850
  67.8304240  19.6817490  34.7580210  69.0235800  34.5962650  52.6607170
  69.4995520  35.0745540  53.3396250  69.6442960  34.5280140  51.9352670
  68.4269050  31.7875500  49.8207180  68.5532110  31.5487380  48.9024360
  68.4690430  30.9560040  50.2929260  68.2793060  23.8407960  50.7856920
  67.6637330  24.3487630  50.2572380  67.9589480  22.9406290  50.7282860
  56.0537570  19.8131330  42.6483790  55.6105720  20.5940870  42.3168310
  56.6122560  20.1361220  43.3554730  60.3407380  22.6799850  48.2519110
  59.8786750  22.8882870  49.0639050  59.9385490  21.8659200  47.9489780
  65.3411890  23.9008800  49.3815770  64.4905480  23.6014550  49.7024840
  65.1813680  24.1450810  48.4699590  62.4361600  25.4010550  51.4814560
  62.7615010  24.5674300  51.1416790  63.2241930  25.9239070  51.6292890
  59.1696390  19.4342030  37.5289620  58.5450570  19.4301900  38.2542930
  59.0826510  18.5672990  37.1325590  58.0913470  20.3578660  44.5073390
  58.3885800  21.2641490  44.4265410  58.6399030  19.8697440  43.8932960
  63.0749550  24.9428270  38.9755690  62.4758440  25.6664070  38.7919310
  63.6229160  24.8805050  38.1932140  58.2851000  25.8350480  51.0425310
  58.1894600  24.8945210  50.8925710  59.1282980  26.0565550  50.6473380
  61.6814420  23.5791810  41.0058970  62.0743990  23.8964010  40.1927660
  62.0431270  22.7003690  41.1203490  53.4161540  22.2464150  49.1959090
  53.0224930  23.0939360  49.4031870  52.7279940  21.6090520  49.3867730
  59.9906590  22.3299120  52.2655830  59.3004910  22.1371320  52.9001920
  60.7338890  22.6133760  52.7980130  50.7178590  20.1692610  43.2289170
  50.4291640  20.7395470  43.9414150  51.4624350  19.6897060  43.5920400
  50.9048820  24.1112730  34.4391890  50.8223490  25.0543490  34.5806880
  50.5531880  23.9687640  33.5604240  62.2669560  26.1697560  45.1009750
  61.5350680  26.6784370  45.4499850  61.8693900  25.3527540  44.7998530
  58.7046950  22.8451760  43.5062240  58.7083010  22.4041710  42.6566780
  59.5998070  23.1669090  43.6134060  54.5549330  22.7278250  42.4656450
  54.2149380  23.2053480  43.2223500  53.7926650  22.2743370  42.1057550
  58.7667100  23.8463840  36.4969000  58.8879920  23.8050320  37.4454820
  58.3815610  24.7087990  36.3415730  62.7295470  21.6231240  44.5132690
  62.7468210  22.0739890  45.3574540  62.4811050  20.7236880  44.7266130
  57.7788600  26.1564980  35.8952300  57.2105500  25.7083230  35.2688210
  58.4877600  26.5157760  35.3617450  66.1566220  19.0363420  50.3519070
  66.4811990  18.3053080  50.8777050  66.1922730  18.7177060  49.4500060
  59.0054920  26.9053540  45.2527650  59.3725050  26.4312110  45.9988990
  58.8159980  27.7795110  45.5935990  51.8695410  21.6497230  41.3821120
  51.5842330  21.2852900  42.2199740  51.8074270  20.9177690  40.7684260
  56.7954290  25.9462180  47.5711860  56.4911360  26.8254160  47.7962220
  57.7500750  26.0061970  47.6069300  61.5434000  20.5426490  38.1034490
  60.7298610  20.0439660  38.0279800  61.3495950  21.3824740  37.6870840
  61.4642860  29.2197590  49.8474100  61.3980170  28.2993260  49.5931690
  60.8348000  29.3173030  50.5618740  64.2582390  24.9146140  36.3996650
  65.1462010  25.2263370  36.2247990  64.2287480  24.0418390  36.0077230
  56.0531140  27.2449160  51.6022770  55.7531280  27.3906340  50.7050590
  56.8242380  26.6854450  51.5096160  66.5296660  26.2257980  35.8676510
  66.4460380  26.6572200  35.0172950  67.2490850  26.6856330  36.3003330
  67.6070800  28.6825500  48.9446480  66.8818990  29.2754280  48.7475870
  68.1346260  28.6749040  48.1459850  54.4272660  18.5167040  39.9348620
  54.2987290  18.5084940  40.8833540  53.6034680  18.8550130  39.5839630
  51.4266590  20.2758160  49.3955320  50.7125110  20.4755080  50.0007930
  51.8461630  19.4997730  49.7670120  65.5297540  29.8888640  36.7949150
  65.2419240  30.3501330  37.5827030  66.3249710  29.4286410  37.0633370
  59.7051770  32.5354310  51.7819970  59.3848640  31.8163550  52.3265660
  59.0310130  33.2109380  51.8556030  62.9205370  22.7680470  47.1456770
  63.2886190  21.9475680  47.4736340  62.0603570  22.8282360  47.5612420
  66.2867400  21.7237410  37.9544330  65.6580560  21.8283080  37.2402560
  65.7919320  21.9434190  38.7438210  58.2551430  24.0023360  39.3702210
  57.5467580  24.4709700  39.8115820  58.5395910  23.3445370  40.0047400
  59.8807360  25.4220060  47.3694740  60.3792610  25.8965880  48.0346590
  60.0230310  24.4983580  47.5764770  62.2866860  20.7274020  40.8098000
  62.1634640  20.7460150  39.8607510  63.2351420  20.7752960  40.9296400
  56.4586450  22.3108440  36.7452920  57.3076980  22.7478590  36.6793110
  56.0917720  22.6228700  37.5724980  67.0874220  21.6388020  48.2123130
  66.5847820  22.3793420  48.5516940  67.9030880  22.0272020  47.8959920
  65.3796230  26.8821200  41.6584490  64.4386370  26.8971430  41.8332180
  65.6940300  26.0957160  42.1044790  67.3821810  34.0530050  43.3338750
  67.5069230  34.8761220  43.8062560  68.2487370  33.8420780  42.9862900
  53.8597620  35.3307330  52.1941460  54.6610350  35.6519380  52.6076860
  53.3449440  34.9702910  52.9161370  62.6962250  31.4387200  52.1416870
  62.0900410  31.4618800  51.4012620  62.3916360  30.7070240  52.6784120
  64.1262620  35.1667490  50.7526280  65.0784370  35.0825510  50.7026520
  63.9790840  35.8309200  51.4260070  51.5795430  27.8180790  51.1377510
  52.0834450  27.2388070  51.7093740  50.8402850  28.1021020  51.6753880
  58.4819050  30.5394980  34.6923800  58.3769690  29.9247330  35.4185180
  58.3143270  30.0160870  33.9086810  58.6333370  29.2251780  50.6713030
  57.8679040  29.7936780  50.5867700  58.8149330  28.9327990  49.7781260
  61.7221780  29.6015010  35.2965790  61.1731880  30.0484310  35.9408530
  62.3441040  29.0964260  35.8203460  65.7756720  30.9557110  51.2288050
  66.5166190  31.2932870  50.7255510  65.0129400  31.1249170  50.6757820
  53.6118510  25.9610380  52.0327580  53.6523850  25.6624250  52.9412810
  54.4664010  26.3617990  51.8735100  55.5524320  24.5402480  50.0002070
  55.0220780  24.0493430  49.3725410  56.2212390  24.9686680  49.4660000
  59.9024540  27.5843540  34.4408190  60.4230200  26.8692560  34.0749340
  60.5492940  28.2229410  34.7408700  64.4502380  29.0071940  49.7643260
  64.8643400  29.1617020  50.6133680  63.5153380  29.1327160  49.9269040
  64.9224550  26.3468100  51.7682410  65.5045320  25.5920420  51.6802890
  65.0986320  26.8775540  50.9913890  56.0396620  21.5064850  50.0799360
  55.9453490  20.8885600  49.3550230  55.4594010  22.2331140  49.8529270
  58.8058060  20.0638090  47.1126750  58.3575360  20.0862350  46.2672300
  58.1723260  19.6657110  47.7097050  61.5481510  26.6908600  49.1177030
  61.6677720  26.0949740  49.8571870  62.4075510  26.7278290  48.6978330
  56.2855800  24.6339160  34.1389250  56.0844860  23.7706520  34.5002590
  56.1147850  24.5472520  33.2010850  58.3150280  23.2329950  50.3752850
  58.9049970  22.9245800  51.0630670  57.4970520  22.7609700  50.5312750
  63.1343710  22.8495760  50.6085870  62.4459230  22.1877300  50.5435860
  63.8549730  22.4034030  51.0534330  63.7644110  19.4447390  36.6676130
  64.0446400  18.6015290  37.0235550  62.9909840  19.6770500  37.1814880
  55.0838600  21.7339780  34.1267130  55.3864500  21.7407210  33.2186280
  55.8233190  21.3837640  34.6234790  58.3023530  20.6774400  35.1123330
  57.9545530  19.9998390  34.5325780  58.5036300  20.2163910  35.9266720
  67.4466920  34.1958820  49.4376130  66.8468910  34.2551380  48.6940050
  67.5760820  33.2563800  49.5672980  68.1424830  28.6824120  37.2780040
  68.9043740  29.2520770  37.3839730  68.1579200  28.1151320  38.0488350
  69.1484800  29.5374220  42.1221970  69.5193630  28.7541540  41.7157940
  69.7886730  30.2263320  41.9439270  68.1944000  28.9758490  34.4352560
  68.4692840  29.8837370  34.3071780  68.0054740  28.9121020  35.3714550
  64.5919610  22.0003340  35.7306190  65.0104490  21.8134320  34.8902850
  64.2855670  21.1482390  36.0409120  68.0909340  26.9127480  39.4281990
  67.7152940  26.1455410  38.9963280  67.3612460  27.2950180  39.9156920
  67.4808960  26.0599000  49.0621510  67.2495050  25.8311750  48.1619460
  67.7413510  26.9798550  49.0166400  52.2321100  24.5023710  49.9549460
  51.3377150  24.4690470  50.2943170  52.7718650  24.7010500  50.7200710
  65.9197030  21.2855430  51.8401210  66.7967210  21.2938830  52.2235210
  65.9317870  20.5486270  51.2293560  67.3660300  25.1384970  42.7289230
  67.8897780  24.6447620  42.0979400  67.9519720  25.2735330  43.4736800
  67.5450020  25.2224840  46.2508780  66.5952730  25.1888380  46.3653770
  67.7263030  26.1324950  46.0158550  53.0468620  19.5265850  34.4010060
  53.7696750  20.0674790  34.7191280  53.3193140  19.2529270  33.5251600
  66.8560270  24.3958320  38.6681640  67.3519390  24.1629190  39.4530520
  66.6576340  23.5570160  38.2519280  52.7360810  18.7772040  44.3032680
  53.3837000  18.2269420  43.8627840  53.1562650  19.0315190  45.1248490
  68.2847430  23.0319270  41.2019320  68.1746710  22.8775310  42.1401590
  69.0455020  22.5040210  40.9594730  66.6313150  18.9713400  47.6602320
  67.2685370  19.5847540  48.0261510  66.7788040  19.0074060  46.7151550
  69.1737700  20.8627190  34.4425460  70.0987010  20.7308370  34.2343750
  69.1513490  20.9420010  35.3961910  69.2476190  21.6337850  37.0682170
  68.4527690  21.5682970  37.5975080  69.4519470  22.5688490  37.0567520
  52.4892810  18.9327710  47.0458000  52.1407630  19.3891530  47.8116180
  52.1580510  18.0384840  47.1280430  54.0957180  32.1047310  51.2111190
  54.0526810  31.7340220  52.0925650  54.2268190  33.0424880  51.3513010
  60.0017630  20.1239590  50.5677420  59.9406520  20.7161420  51.3172830
  60.9418010  20.0165550  50.4227680  62.6392190  19.7809650  50.2069710
  63.2532600  20.0988940  49.5450790  63.1841750  19.2958240  50.8265570
  69.0567370  35.6801280  47.6131550  68.5625650  36.0770150  46.8958680
  68.4480660  35.0550490  48.0068830  53.1613450  18.4603910  50.3208770
  53.7096440  18.2791960  49.5574880  53.2268760  17.6698020  50.8565080
  63.3800230  18.3441790  46.5339000  62.5060070  18.6776900  46.3311930
  63.2710980  17.8714970  47.3590870  64.2872210  20.5512660  47.9180720
  63.9585570  19.7364420  47.5382450  65.2354510  20.5082470  47.7946410
  66.7406820  36.3224700  44.8918290  66.2809790  37.0740510  44.5176310
  66.1119280  35.6031170  44.8333090  61.1275050  19.2611630  45.4731910
  60.3446840  19.7357130  45.7528670  60.8337980  18.3566460  45.3645090
  65.6796120  19.9634730  43.5181000  66.1204210  19.9079830  42.6702600
  65.4103710  20.8792740  43.5891180  67.5434690  19.5949970  41.5289820
  67.4823090  18.6511190  41.3820840  68.3226720  19.7030060  42.0743280
  52.4715460  19.5659110  37.9945630  53.2294820  19.6787990  37.4209660
  52.0092630  20.4028310  37.9489060  59.0129270  21.6798380  40.9847940
  58.2003780  21.3055270  40.6443820  59.5170910  20.9243460  41.2869130
  63.5154250  18.3440830  42.2231010  64.1183620  18.9161040  42.6979530
  62.7747240  18.9080270  42.0004910  66.6588850  18.7462390  37.4971290
  66.8539480  19.6445840  37.7638720  65.8718720  18.5149470  37.9904240
  54.8440610  20.0923160  36.5347600  55.3733370  19.3052960  36.4055550
  55.4768930  20.7714350  36.7683130  57.0378450  19.8298300  39.5892990
  56.4081190  19.1285610  39.7563120  56.4983590  20.5902430  39.3726150
  59.9770400  36.4437530  52.2603600  60.9037710  36.2081800  52.3039560
  59.9620830  37.2709530  51.7789630  57.1634010  19.1082280  52.0245480
  56.8818280  19.6115880  51.2606300  57.5453710  18.3104030  51.6587610
  63.7649470  18.5235860  52.6025950  63.6514920  18.8430470  53.4977470
  64.5819210  18.9248370  52.3063230  66.5447960  35.6707390  52.0844640
  67.3373280  35.1756620  51.8770600  66.8381110  36.3497530  52.6920250
  62.6707620  26.5428330  22.9660690  62.5901670  25.6282940  22.6952400
  62.2572040  27.0395400  22.2600400  60.8025660  28.3207350  24.8469960
  60.0267760  27.8407790  25.1368530  61.4538590  27.6413000  24.6726120
  54.8191490  28.6327160  25.7245720  53.9876370  28.3775870  26.1242230
  55.4272470  28.7037930  26.4603640  64.8233090  32.7267540  23.6269090
  64.3614620  31.9554780  23.9556260  65.6358640  32.7533610  24.1321540
  54.7992750  32.6667250  25.9203740  55.1020790  31.7764990  25.7413960
  55.5436340  33.2237470  25.6925990  53.2283440  23.5929050  19.5088110
  52.3400140  23.9345020  19.4067990  53.5124630  23.3929370  18.6168940
  51.1916450  26.1934700  25.3927810  51.7632560  25.4256900  25.3931450
  51.1917990  26.4923460  24.4834420  61.0496400  35.0125550  23.2473080
  60.4307840  35.4683050  22.6767520  61.9048180  35.1677010  22.8462780
  60.2434650  30.9964540  24.8540120  60.1742930  30.0554480  24.6929250
  61.0054510  31.0865950  25.4262690  52.4341320  21.6019060  27.1796740
  52.2544160  20.7044810  27.4599500  52.0321400  22.1490930  27.8543690
  61.2739820  23.8034920  25.0809050  61.6504640  22.9306800  24.9682720
  61.1759330  24.1393620  24.1899490  55.4044830  22.1760550  20.5426490
  55.5111580  23.0764280  20.8495250  54.4937190  22.1278520  20.2521140
  65.0563940  21.2985360  22.0137390  65.8773560  20.8081930  22.0562870
  65.0898020  21.8883020  22.7669230  53.0527990  24.0979560  25.7879080
  53.7338100  24.3617930  26.4066480  52.7376040  23.2580430  26.1217090
  57.2452560  25.1446920  24.8751670  57.7530780  25.6427890  25.5156690
  57.7765800  24.3682120  24.6991030  69.3463490  23.3152110  28.5781020
  68.6415660  23.7033820  28.0596130  69.6121410  24.0102400  29.1801950
  55.5288660  19.7845480  29.1415090  55.5307100  20.3017870  28.3360990
  54.6992970  19.3075660  29.1185020  61.9159750  29.8964790  20.6404990
  61.2977020  30.3614240  20.0767710  62.4283000  30.5892270  21.0574500
  56.7791510  29.4240660  27.3188590  56.4460890  30.0509580  27.9609660
  56.9558190  29.9502540  26.5390260  65.2925420  23.2385740  24.7864930
  64.5880990  23.5270630  25.3668040  65.6537580  24.0485850  24.4264490
  55.2103990  21.4955440  27.1485540  55.5520800  22.3397490  26.8539410
  54.2719800  21.6439180  27.2650880  55.9910610  31.3921460  29.1337770
  56.6084610  32.0672540  28.8522220  55.1303730  31.8009440  29.0425270
  51.2842950  30.5821320  18.0144620  50.9070930  31.0708420  17.2829520
  51.5416020  31.2546600  18.6451150  66.9088200  32.8560870  27.0492410
  66.2251720  33.5259980  27.0409080  67.4482490  33.0541520  26.2837270
  68.3612340  22.6840530  25.1774140  67.4137250  22.7179510  25.3089570
  68.6862330  23.4979480  25.5623500  58.8931880  18.9837710  23.4730130
  59.2006860  18.4284600  22.7565630  57.9632580  19.1182170  23.2903120
  64.4446940  34.7005000  25.7637590  64.4574100  34.2967290  24.8959850
  63.8922160  35.4752290  25.6599020  65.7392360  31.4221220  20.8527760
  65.6288690  30.4795550  20.9777180  65.7360610  31.7836860  21.7390520
  63.8432380  29.6034840  27.0920200  64.2601170  29.3894950  26.2573660
  64.5672200  29.8607630  27.6628820  61.2812640  27.0486540  20.2090250
  60.3541920  26.9823920  20.4378720  61.4337460  27.9866670  20.0945490
  61.2681720  23.3203540  17.2057410  60.3285390  23.4817500  17.2909870
  61.5864980  24.0389220  16.6593400  67.7894480  28.0022060  27.1836440
  66.9613110  28.0715150  26.7086570  68.3844960  28.5876370  26.7152270
  65.3109930  28.6106840  20.7125500  64.6922350  28.2726390  20.0651800
  65.2934380  27.9666600  21.4204690  64.7536490  24.7891380  28.1291310
  64.3407670  25.6145090  28.3831300  64.0212440  24.2036420  27.9367670
  56.8869280  27.5751280  22.9909980  56.4826280  26.8628530  22.4955880
  56.9732400  27.2304520  23.8798020  57.3550980  31.2618840  25.1549190
  57.0579270  30.6564310  24.4756970  58.3050800  31.2996150  25.0438550
  55.5997900  24.3494490  26.7709020  56.1512490  24.4589830  25.9962270
  56.1141410  24.7232090  27.4864250  65.4436590  34.8350710  28.8172290
  64.9667150  35.6422900  28.6244900  64.7598380  34.1829040  28.9698500
  56.4469410  31.0000530  31.8056990  55.5497940  31.2240500  32.0530390
  56.4722280  31.1235470  30.8568390  63.4874630  27.8493650  17.7198250
  63.9267910  27.0116080  17.5736070  64.2003050  28.4823050  17.8062390
  55.2740630  27.8713850  30.3814360  55.1348400  28.7436650  30.7501760
  54.3921990  27.5286660  30.2362300  61.5970010  32.7889720  21.6879490
  62.0365920  33.5314050  21.2734880  61.5356900  33.0316290  22.6118450
  67.0691770  19.1036460  16.0339290  66.7564430  19.1963290  16.9338360
  67.8304240  19.6817490  15.9836720  53.5873910  26.4696260  20.4916630
  53.4671510  27.1958350  19.8797900  53.2774800  25.6999170  20.0144540
  51.2259280  29.6411400  26.2985270  51.3039700  29.7760170  25.3540990
  51.8400960  28.9327290  26.4913390  52.4706910  31.3411590  22.7091450
  52.0634990  31.4826180  21.8545050  53.3619920  31.0571750  22.5062660
  62.2885790  35.4903500  29.6158500  62.8030460  35.4011510  30.4180930
  61.4454870  35.8363200  29.9086410  64.2640190  35.7758840  19.0442500
  64.1041330  35.4861780  19.9424330  64.0986900  34.9998970  18.5087730
  56.7428570  35.5557370  20.8214120  56.5671050  34.6392910  20.6081920
  55.8884310  35.9144660  21.0611920  63.9666320  33.2846400  17.6040500
  63.2731480  33.2823690  16.9442780  64.7089180  32.8605720  17.1734670
  63.5316250  34.9109110  21.6788990  63.9873200  34.1298490  21.9927610
  63.8708770  35.6215930  22.2230170  68.2793060  23.8407960  32.0113430
  67.6637330  24.3487630  31.4828890  67.9589480  22.9406290  31.9539370
  56.0537570  19.8131330  23.8740300  55.6105720  20.5940870  23.5424820
  56.6122560  20.1361220  24.5811240  60.3407380  22.6799850  29.4775620
  59.8786750  22.8882870  30.2895560  59.9385490  21.8659200  29.1746290
  65.3411890  23.9008800  30.6072280  64.4905480  23.6014550  30.9281350
  65.1813680  24.1450810  29.6956100  62.4361600  25.4010550  32.7071070
  62.7615010  24.5674300  32.3673300  63.2241930  25.9239070  32.8549400
  59.1696390  19.4342030  18.7546130  58.5450570  19.4301900  19.4799440
  59.0826510  18.5672990  18.3582100  58.0913470  20.3578660  25.7329900
  58.3885800  21.2641490  25.6521920  58.6399030  19.8697440  25.1189470
  55.8451790  24.9364900  21.6021550  55.6192710  24.7202070  22.5068170
  55.0644320  25.3693360  21.2567520  63.0749550  24.9428270  20.2012200
  62.4758440  25.6664070  20.0175820  63.6229160  24.8805050  19.4188650
  58.2851000  25.8350480  32.2681820  58.1894600  24.8945210  32.1182220
  59.1282980  26.0565550  31.8729890  61.6814420  23.5791810  22.2315480
  62.0743990  23.8964010  21.4184170  62.0431270  22.7003690  22.3460000
  53.4161540  22.2464150  30.4215600  53.0224930  23.0939360  30.6288380
  52.7279940  21.6090520  30.6124240  59.9906590  22.3299120  33.4912340
  59.3004910  22.1371320  34.1258430  60.7338890  22.6133760  34.0236640
  50.7178590  20.1692610  24.4545680  50.4291640  20.7395470  25.1670660
  51.4624350  19.6897060  24.8176910  50.9048820  24.1112730  15.6648400
  50.8223490  25.0543490  15.8063390  50.5531880  23.9687640  14.7860750
  62.2669560  26.1697560  26.3266260  61.5350680  26.6784370  26.6756360
  61.8693900  25.3527540  26.0255040  58.7046950  22.8451760  24.7318750
  58.7083010  22.4041710  23.8823290  59.5998070  23.1669090  24.8390570
  54.5549330  22.7278250  23.6912960  54.2149380  23.2053480  24.4480010
  53.7926650  22.2743370  23.3314060  58.7667100  23.8463840  17.7225510
  58.8879920  23.8050320  18.6711330  58.3815610  24.7087990  17.5672240
  62.7295470  21.6231240  25.7389200  62.7468210  22.0739890  26.5831050
  62.4811050  20.7236880  25.9522640  57.7788600  26.1564980  17.1208810
  57.2105500  25.7083230  16.4944720  58.4877600  26.5157760  16.5873960
  66.1566220  19.0363420  31.5775580  66.4811990  18.3053080  32.1033560
  66.1922730  18.7177060  30.6756570  59.0054920  26.9053540  26.4784160
  59.3725050  26.4312110  27.2245500  58.8159980  27.7795110  26.8192500
  51.8695410  21.6497230  22.6077630  51.5842330  21.2852900  23.4456250
  51.8074270  20.9177690  21.9940770  56.7954290  25.9462180  28.7968370
  56.4911360  26.8254160  29.0218730  57.7500750  26.0061970  28.8325810
  55.3236080  30.1523170  19.3935220  54.5498340  29.6120790  19.2333940
  56.0530710  29.6329780  19.0552980  66.0824060  29.1488530  25.1861610
  66.8023180  29.6443820  24.7957720  65.8805880  28.4706420  24.5415480
  61.5434000  20.5426490  19.3291000  60.7298610  20.0439660  19.2536310
  61.3495950  21.3824740  18.9127350  61.4642860  29.2197590  31.0730610
  61.3980170  28.2993260  30.8188200  60.8348000  29.3173030  31.7875250
  64.2582390  24.9146140  17.6253160  65.1462010  25.2263370  17.4504500
  64.2287480  24.0418390  17.2333740  55.3673480  29.8203550  23.0314030
  55.8852150  29.0171810  22.9770920  54.9157500  29.7582690  23.8730860
  60.2542980  31.0869830  18.3041330  60.5958680  31.8312060  17.8084650
  59.4255690  31.4000950  18.6666160  52.8518020  26.7864920  29.9439730
  52.4932960  27.4518770  30.5313070  52.5572580  25.9548470  30.3152350
  66.5296660  26.2257980  17.0933020  66.4460380  26.6572200  16.2429460
  67.2490850  26.6856330  17.5259840  67.6070800  28.6825500  30.1702990
  66.8818990  29.2754280  29.9732380  68.1346260  28.6749040  29.3716360
  67.5583910  33.0800240  19.8215150  66.9160070  32.4255860  20.0958870
  67.1714570  33.4855330  19.0455820  63.1370390  30.4085670  23.6686840
  63.4894210  29.8113800  23.0088210  62.2532720  30.0829900  23.8395090
  59.2233670  31.1683360  21.0757250  59.9104800  31.7152570  21.4564840
  58.4366090  31.7124090  21.1106860  51.3626070  26.7856180  16.5674330
  52.2320920  27.0680980  16.8510250  50.8716390  27.5992050  16.4523140
  58.5260880  28.1729390  20.6882610  58.9823660  28.9834640  20.9142800
  58.1749090  27.8552530  21.5201100  60.8293490  33.6835730  27.9174910
  61.4735710  33.8895110  28.5948330  61.1922930  32.9224130  27.4645760
  54.4272660  18.5167040  21.1605130  54.2987290  18.5084940  22.1090050
  53.6034680  18.8550130  20.8096140  62.1025570  31.6868080  26.6352360
  62.7447800  30.9861240  26.7484530  62.6274920  32.4666520  26.4549250
  65.9481290  31.9716700  16.3591500  65.7218870  31.2547140  16.9516140
  65.5577490  31.7229140  15.5213250  51.7297320  35.9983560  17.1335960
  52.0894960  36.5972900  16.4793230  51.5889660  36.5443450  17.9070990
  51.4266590  20.2758160  30.6211830  50.7125110  20.4755080  31.2264440
  51.8461630  19.4997730  30.9926630  65.5297540  29.8888640  18.0205660
  65.2419240  30.3501330  18.8083540  66.3249710  29.4286410  18.2889880
  57.7465940  33.3814760  17.9509630  57.7376040  34.1144450  17.3354140
  56.8264300  33.1346340  18.0436590  53.3472580  28.6029650  18.6956390
  52.7400530  29.3428550  18.7051690  53.8221930  28.6929010  17.8694590
  62.9205370  22.7680470  28.3713280  63.2886190  21.9475680  28.6992850
  62.0603570  22.8282360  28.7868930  66.2867400  21.7237410  19.1800840
  65.6580560  21.8283080  18.4659070  65.7919320  21.9434190  19.9694720
  60.7325540  33.4443000  16.6134820  60.8337520  33.2406990  15.6836800
  59.8327280  33.1901280  16.8182600  58.2551430  24.0023360  20.5958720
  57.5467580  24.4709700  21.0372330  58.5395910  23.3445370  21.2303910
  59.8807360  25.4220060  28.5951250  60.3792610  25.8965880  29.2603100
  60.0230310  24.4983580  28.8021280  62.2866860  20.7274020  22.0354510
  62.1634640  20.7460150  21.0864020  63.2351420  20.7752960  22.1552910
  59.3743650  35.9629320  21.3082490  59.6285150  35.9250710  20.3861860
  58.4256130  35.8362650  21.3010740  56.4586450  22.3108440  17.9709430
  57.3076980  22.7478590  17.9049620  56.0917720  22.6228700  18.7981490
  67.0874220  21.6388020  29.4379640  66.5847820  22.3793420  29.7773450
  67.9030880  22.0272020  29.1216430  65.3796230  26.8821200  22.8841000
  64.4386370  26.8971430  23.0588690  65.6940300  26.0957160  23.3301300
  55.3577870  28.5640800  16.4444960  56.1241140  28.4522160  17.0070390
  55.4352560  27.8678770  15.7921730  54.0524630  25.9965870  17.1277850
  54.1328220  25.0493380  17.2395250  54.9444380  26.3272750  17.2338510
  67.3821810  34.0530050  24.5595260  67.5069230  34.8761220  25.0319070
  68.2487370  33.8420780  24.2119410  54.8539340  36.1461260  24.2312390
  55.5901820  35.5976720  24.5020960  55.2380260  37.0117270  24.0918380
  51.7384820  32.2134830  20.1053900  50.8124600  32.4555970  20.0959310
  52.2041250  33.0409090  19.9838650  57.9641650  35.3191570  16.0537960
  58.7570260  35.6080400  15.6019750  57.4446000  34.8883740  15.3750440
  67.0171820  34.5461700  17.4774700  66.7313330  34.1326840  16.6628880
  66.8191370  35.4749410  17.3575220  58.4819050  30.5394980  15.9180310
  58.3769690  29.9247330  16.6441690  58.3143270  30.0160870  15.1343320
  58.6333370  29.2251780  31.8969540  57.8679040  29.7936780  31.8124210
  58.8149330  28.9327990  31.0037770  61.7221780  29.6015010  16.5222300
  61.1731880  30.0484310  17.1665040  62.3441040  29.0964260  17.0459970
  57.3896900  28.5605930  18.4187600  57.8113320  28.3945800  19.2618990
  57.5147740  27.7506160  17.9242740  55.5524320  24.5402480  31.2258580
  55.0220780  24.0493430  30.5981920  56.2212390  24.9686680  30.6916510
  59.9024540  27.5843540  15.6664700  60.4230200  26.8692560  15.3005850
  60.5492940  28.2229410  15.9665210  64.4502380  29.0071940  30.9899770
  64.8643400  29.1617020  31.8390190  63.5153380  29.1327160  31.1525550
  64.9224550  26.3468100  32.9938920  65.5045320  25.5920420  32.9059400
  65.0986320  26.8775540  32.2170400  56.0396620  21.5064850  31.3055870
  55.9453490  20.8885600  30.5806740  55.4594010  22.2331140  31.0785780
  58.8058060  20.0638090  28.3383260  58.3575360  20.0862350  27.4928810
  58.1723260  19.6657110  28.9353560  59.2117610  28.9592420  28.9595700
  59.6305720  29.8025150  28.7871940  58.2926240  29.0964460  28.7302480
  61.5481510  26.6908600  30.3433540  61.6677720  26.0949740  31.0828380
  62.4075510  26.7278290  29.9234840  63.8869410  27.2445790  28.9196050
  63.3604630  27.7688410  28.3161190  64.2300750  27.8773180  29.5505780
  56.2855800  24.6339160  15.3645760  56.0844860  23.7706520  15.7259100
  56.1147850  24.5472520  14.4267360  57.0625030  35.2645430  30.0753430
  56.5246120  35.9891490  29.7562130  57.3158990  34.7875770  29.2850770
  58.3150280  23.2329950  31.6009360  58.9049970  22.9245800  32.2887180
  57.4970520  22.7609700  31.7569260  63.1343710  22.8495760  31.8342380
  62.4459230  22.1877300  31.7692370  63.8549730  22.4034030  32.2790840
  63.7644110  19.4447390  17.8932640  64.0446400  18.6015290  18.2492060
  62.9909840  19.6770500  18.4071390  55.0838600  21.7339780  15.3523640
  55.3864500  21.7407210  14.4442790  55.8233190  21.3837640  15.8491300
  59.9187240  36.4996640  30.3340080  59.8445940  37.4031780  30.6412450
  59.0166080  36.1808540  30.3062150  58.3023530  20.6774400  16.3379840
  57.9545530  19.9998390  15.7582290  58.5036300  20.2163910  17.1523230
  60.4672570  35.6655150  17.9566440  61.3623360  36.0040120  17.9785200
  60.4990200  34.9434560  17.3290720  54.1068730  31.0382200  16.1853440
  54.5443600  31.5811870  16.8411020  54.5916460  30.2129150  16.1949780
  51.3214530  33.8271230  23.6373700  51.6517540  32.9592290  23.4052340
  51.7505530  34.0329750  24.4678660  55.9176450  32.1580240  21.2975670
  55.6171990  32.0345210  22.1979580  55.8113940  31.2988830  20.8891400
  51.8104740  34.6941820  26.3755330  51.3735730  34.8742620  27.2079480
  52.3782420  35.4516440  26.2337050  68.6868370  31.9376640  16.0002350
  67.8561330  32.0053290  16.4709580  68.8640200  32.8280760  15.6969210
  68.1424830  28.6824120  18.5036550  68.9043740  29.2520770  18.6096240
  68.1579200  28.1151320  19.2744860  51.6429170  27.2062050  22.7344210
  50.9878010  26.9373690  22.0903910  52.4807120  27.0966530  22.2846190
  69.1484800  29.5374220  23.3478480  69.5193630  28.7541540  22.9414450
  69.7886730  30.2263320  23.1695780  66.1318560  30.9210800  28.7608800
  65.3178400  31.3507960  29.0234590  66.5392760  31.5329210  28.1477850
  68.1944000  28.9758490  15.6609070  68.4692840  29.8837370  15.5328290
  68.0054740  28.9121020  16.5971060  64.5919610  22.0003340  16.9562700
  65.0104490  21.8134320  16.1159360  64.2855670  21.1482390  17.2665630
  68.0909340  26.9127480  20.6538500  67.7152940  26.1455410  20.2219790
  67.3612460  27.2950180  21.1413430  52.6805100  27.5914620  27.2747550
  53.0478140  27.5042020  28.1543570  52.1115920  26.8281170  27.1754410
  67.4808960  26.0599000  30.2878020  67.2495050  25.8311750  29.3875970
  67.7413510  26.9798550  30.2422910  52.2321100  24.5023710  31.1805970
  51.3377150  24.4690470  31.5199680  52.7718650  24.7010500  31.9457220
  65.9197030  21.2855430  33.0657720  66.7967210  21.2938830  33.4491720
  65.9317870  20.5486270  32.4550070  50.8567250  24.4160980  18.6769540
  49.9531330  24.6791180  18.5021200  51.3407870  24.6872150  17.8969500
  67.3660300  25.1384970  23.9545740  67.8897780  24.6447620  23.3235910
  67.9519720  25.2735330  24.6993310  67.5450020  25.2224840  27.4765290
  66.5952730  25.1888380  27.5910280  67.7263030  26.1324950  27.2415060
  53.3994460  23.4726520  16.5863920  54.1086160  23.0509740  16.1011200
  52.6834400  23.5401750  15.9547270  53.0468620  19.5265850  15.6266570
  53.7696750  20.0674790  15.9447790  53.3193140  19.2529270  14.7508110
  66.8560270  24.3958320  19.8938150  67.3519390  24.1629190  20.6787030
  66.6576340  23.5570160  19.4775790  52.7360810  18.7772040  25.5289190
  53.3837000  18.2269420  25.0884350  53.1562650  19.0315190  26.3505000
  68.2847430  23.0319270  22.4275830  68.1746710  22.8775310  23.3658100
  69.0455020  22.5040210  22.1851240  66.6313150  18.9713400  28.8858830
  67.2685370  19.5847540  29.2518020  66.7788040  19.0074060  27.9408060
  69.1737700  20.8627190  15.6681970  70.0987010  20.7308370  15.4600260
  69.1513490  20.9420010  16.6218420  69.2476190  21.6337850  18.2938680
  68.4527690  21.5682970  18.8231590  69.4519470  22.5688490  18.2824030
  66.1894610  35.6729400  22.2877070  66.7853680  35.3513970  21.6111490
  66.4472760  35.2001220  23.0790340  52.4892810  18.9327710  28.2714510
  52.1407630  19.3891530  29.0372690  52.1580510  18.0384840  28.3536940
  57.7963210  33.6606900  28.0377420  57.5554570  33.9281460  27.1507940
  58.7365850  33.8312630  28.0928280  60.0017630  20.1239590  31.7933930
  59.9406520  20.7161420  32.5429340  60.9418010  20.0165550  31.6484190
  62.6392190  19.7809650  31.4326220  63.2532600  20.0988940  30.7707300
  63.1841750  19.2958240  32.0522080  69.0567370  35.6801280  28.8388060
  68.5625650  36.0770150  28.1215190  68.4480660  35.0550490  29.2325340
  53.1613450  18.4603910  31.5465280  53.7096440  18.2791960  30.7831390
  53.2268760  17.6698020  32.0821590  63.3800230  18.3441790  27.7595510
  62.5060070  18.6776900  27.5568440  63.2710980  17.8714970  28.5847380
  64.2872210  20.5512660  29.1437230  63.9585570  19.7364420  28.7638960
  65.2354510  20.5082470  29.0202920  66.7406820  36.3224700  26.1174800
  66.2809790  37.0740510  25.7432820  66.1119280  35.6031170  26.0589600
  57.1702540  34.6312940  25.2922930  57.6867560  34.0200300  24.7671190
  57.8199920  35.1341720  25.7833940  59.9098040  35.5221430  26.1191910
  60.1975850  35.2675730  25.2424920  60.4221260  34.9698790  26.7097480
  61.1275050  19.2611630  26.6988420  60.3446840  19.7357130  26.9785180
  60.8337980  18.3566460  26.5901600  65.6796120  19.9634730  24.7437510
  66.1204210  19.9079830  23.8959110  65.4103710  20.8792740  24.8147690
  67.5434690  19.5949970  22.7546330  67.4823090  18.6511190  22.6077350
  68.3226720  19.7030060  23.2999790  51.8487440  35.7342330  21.7170280
  51.6809480  35.1013010  22.4152170  50.9821950  35.9401730  21.3664470
  52.4715460  19.5659110  19.2202140  53.2294820  19.6787990  18.6466170
  52.0092630  20.4028310  19.1745570  59.0129270  21.6798380  22.2104450
  58.2003780  21.3055270  21.8700330  59.5170910  20.9243460  22.5125640
  63.5154250  18.3440830  23.4487520  64.1183620  18.9161040  23.9236040
  62.7747240  18.9080270  23.2261420  66.6588850  18.7462390  18.7227800
  66.8539480  19.6445840  18.9895230  65.8718720  18.5149470  19.2160750
  53.4550140  34.4275560  19.1620420  52.9297760  34.8083590  18.4582380
  53.3794720  35.0526330  19.8830130  54.8440610  20.0923160  17.7604110
  55.3733370  19.3052960  17.6312060  55.4768930  20.7714350  17.9939640
  57.0378450  19.8298300  20.8149500  56.4081190  19.1285610  20.9819630
  56.4983590  20.5902430  20.5982660  68.2115460  35.9863100  20.4834360
  68.3867650  35.3000840  19.8395280  67.5137030  36.5110150  20.0911030
  57.1634010  19.1082280  33.2501990  56.8818280  19.6115880  32.4862810
  57.5453710  18.3104030  32.8844120  56.0543110  36.3757940  18.0369670
  56.7861930  36.0917220  17.4893560  56.3136780  36.1371220  18.9269050
  55.2157900  32.4922670  18.0416000  54.5866780  32.9607770  18.5901830
  55.3305730  31.6471890  18.4762190  63.7649470  18.5235860  33.8282460
  63.6514920  18.8430470  34.7233980  64.5819210  18.9248370  33.5319740
  62.6707620  26.5428330   4.1917200  62.5901670  25.6282940   3.9208910
  62.2572040  27.0395400   3.4856910  60.8025660  28.3207350   6.0726470
  60.0267760  27.8407790   6.3625040  61.4538590  27.6413000   5.8982630
  54.8191490  28.6327160   6.9502230  53.9876370  28.3775870   7.3498740
  55.4272470  28.7037930   7.6860150  64.8233090  32.7267540   4.8525600
  64.3614620  31.9554780   5.1812770  65.6358640  32.7533610   5.3578050
  54.7992750  32.6667250   7.1460250  55.1020790  31.7764990   6.9670470
  55.5436340  33.2237470   6.9182500  51.1916450  26.1934700   6.6184320
  51.7632560  25.4256900   6.6187960  51.1917990  26.4923460   5.7090930
  61.0496400  35.0125550   4.4729590  60.4307840  35.4683050   3.9024030
  61.9048180  35.1677010   4.0719290  60.2434650  30.9964540   6.0796630
  60.1742930  30.0554480   5.9185760  61.0054510  31.0865950   6.6519200
  52.4341320  21.6019060   8.4053250  52.2544160  20.7044810   8.6856010
  52.0321400  22.1490930   9.0800200  61.2739820  23.8034920   6.3065560
  61.6504640  22.9306800   6.1939230  61.1759330  24.1393620   5.4156000
  55.4044830  22.1760550   1.7683000  55.5111580  23.0764280   2.0751760
  54.4937190  22.1278520   1.4777650  65.0563940  21.2985360   3.2393900
  65.8773560  20.8081930   3.2819380  65.0898020  21.8883020   3.9925740
  53.0527990  24.0979560   7.0135590  53.7338100  24.3617930   7.6322990
  52.7376040  23.2580430   7.3473600  57.2452560  25.1446920   6.1008180
  57.7530780  25.6427890   6.7413200  57.7765800  24.3682120   5.9247540
  69.3463490  23.3152110   9.8037530  68.6415660  23.7033820   9.2852640
  69.6121410  24.0102400  10.4058460  55.5288660  19.7845480  10.3671600
  55.5307100  20.3017870   9.5617500  54.6992970  19.3075660  10.3441530
  56.7791510  29.4240660   8.5445100  56.4460890  30.0509580   9.1866170
  56.9558190  29.9502540   7.7646770  65.2925420  23.2385740   6.0121440
  64.5880990  23.5270630   6.5924550  65.6537580  24.0485850   5.6521000
  55.2103990  21.4955440   8.3742050  55.5520800  22.3397490   8.0795920
  54.2719800  21.6439180   8.4907390  55.9910610  31.3921460  10.3594280
  56.6084610  32.0672540  10.0778730  55.1303730  31.8009440  10.2681780
  66.9088200  32.8560870   8.2748920  66.2251720  33.5259980   8.2665590
  67.4482490  33.0541520   7.5093780  68.3612340  22.6840530   6.4030650
  67.4137250  22.7179510   6.5346080  68.6862330  23.4979480   6.7880010
  58.8931880  18.9837710   4.6986640  59.2006860  18.4284600   3.9822140
  57.9632580  19.1182170   4.5159630  64.4446940  34.7005000   6.9894100
  64.4574100  34.2967290   6.1216360  63.8922160  35.4752290   6.8855530
  65.7392360  31.4221220   2.0784270  65.6288690  30.4795550   2.2033690
  65.7360610  31.7836860   2.9647030  63.8432380  29.6034840   8.3176710
  64.2601170  29.3894950   7.4830170  64.5672200  29.8607630   8.8885330
  67.7894480  28.0022060   8.4092950  66.9613110  28.0715150   7.9343080
  68.3844960  28.5876370   7.9408780  64.7536490  24.7891380   9.3547820
  64.3407670  25.6145090   9.6087810  64.0212440  24.2036420   9.1624180
  56.8869280  27.5751280   4.2166490  56.4826280  26.8628530   3.7212390
  56.9732400  27.2304520   5.1054530  57.3550980  31.2618840   6.3805700
  57.0579270  30.6564310   5.7013480  58.3050800  31.2996150   6.2695060
  55.5997900  24.3494490   7.9965530  56.1512490  24.4589830   7.2218780
  56.1141410  24.7232090   8.7120760  65.4436590  34.8350710  10.0428800
  64.9667150  35.6422900   9.8501410  64.7598380  34.1829040  10.1955010
  56.4469410  31.0000530  13.0313500  55.5497940  31.2240500  13.2786900
  56.4722280  31.1235470  12.0824900  55.2740630  27.8713850  11.6070870
  55.1348400  28.7436650  11.9758270  54.3921990  27.5286660  11.4618810
  61.5970010  32.7889720   2.9136000  62.0365920  33.5314050   2.4991390
  61.5356900  33.0316290   3.8374960  57.0720980  33.8135550  13.8156020
  57.0436410  34.2178500  12.9484450  56.9085950  32.8845910  13.6527620
  69.0235800  34.5962650  15.1120190  69.4995520  35.0745540  15.7909270
  69.6442960  34.5280140  14.3865690  51.2259280  29.6411400   7.5241780
  51.3039700  29.7760170   6.5797500  51.8400960  28.9327290   7.7169900
  52.4706910  31.3411590   3.9347960  52.0634990  31.4826180   3.0801560
  53.3619920  31.0571750   3.7319170  68.4269050  31.7875500  12.2720200
  68.5532110  31.5487380  11.3537380  68.4690430  30.9560040  12.7442280
  62.2885790  35.4903500  10.8415010  62.8030460  35.4011510  11.6437440
  61.4454870  35.8363200  11.1342920  56.7428570  35.5557370   2.0470630
  56.5671050  34.6392910   1.8338430  55.8884310  35.9144660   2.2868430
  63.5316250  34.9109110   2.9045500  63.9873200  34.1298490   3.2184120
  63.8708770  35.6215930   3.4486680  68.2793060  23.8407960  13.2369940
  67.6637330  24.3487630  12.7085400  67.9589480  22.9406290  13.1795880
  51.2818800  30.6825570  10.0636240  51.4449840  30.2130930   9.2455610
  51.7471250  30.1749130  10.7285080  56.0537570  19.8131330   5.0996810
  55.6105720  20.5940870   4.7681330  56.6122560  20.1361220   5.8067750
  60.3407380  22.6799850  10.7032130  59.8786750  22.8882870  11.5152070
  59.9385490  21.8659200  10.4002800  65.3411890  23.9008800  11.8328790
  64.4905480  23.6014550  12.1537860  65.1813680  24.1450810  10.9212610
  62.4361600  25.4010550  13.9327580  62.7615010  24.5674300  13.5929810
  63.2241930  25.9239070  14.0805910  58.0913470  20.3578660   6.9586410
  58.3885800  21.2641490   6.8778430  58.6399030  19.8697440   6.3445980
  55.8451790  24.9364900   2.8278060  55.6192710  24.7202070   3.7324680
  55.0644320  25.3693360   2.4824030  58.2851000  25.8350480  13.4938330
  58.1894600  24.8945210  13.3438730  59.1282980  26.0565550  13.0986400
  61.6814420  23.5791810   3.4571990  62.0743990  23.8964010   2.6440680
  62.0431270  22.7003690   3.5716510  53.4161540  22.2464150  11.6472110
  53.0224930  23.0939360  11.8544890  52.7279940  21.6090520  11.8380750
  59.9906590  22.3299120  14.7168850  59.3004910  22.1371320  15.3514940
  60.7338890  22.6133760  15.2493150  50.7178590  20.1692610   5.6802190
  50.4291640  20.7395470   6.3927170  51.4624350  19.6897060   6.0433420
  62.2669560  26.1697560   7.5522770  61.5350680  26.6784370   7.9012870
  61.8693900  25.3527540   7.2511550  58.7046950  22.8451760   5.9575260
  58.7083010  22.4041710   5.1079800  59.5998070  23.1669090   6.0647080
  54.5549330  22.7278250   4.9169470  54.2149380  23.2053480   5.6736520
  53.7926650  22.2743370   4.5570570  62.7295470  21.6231240   6.9645710
  62.7468210  22.0739890   7.8087560  62.4811050  20.7236880   7.1779150
  66.1566220  19.0363420  12.8032090  66.4811990  18.3053080  13.3290070
  66.1922730  18.7177060  11.9013080  52.8557780  30.0577000  12.2232050
  52.4712570  29.4170670  12.8215010  53.1669970  30.7613120  12.7926780
  59.0054920  26.9053540   7.7040670  59.3725050  26.4312110   8.4502010
  58.8159980  27.7795110   8.0449010  51.8695410  21.6497230   3.8334140
  51.5842330  21.2852900   4.6712760  51.8074270  20.9177690   3.2197280
  56.7954290  25.9462180  10.0224880  56.4911360  26.8254160  10.2475240
  57.7500750  26.0061970  10.0582320  66.0824060  29.1488530   6.4118120
  66.8023180  29.6443820   6.0214230  65.8805880  28.4706420   5.7671990
  61.4642860  29.2197590  12.2987120  61.3980170  28.2993260  12.0444710
  60.8348000  29.3173030  13.0131760  55.3673480  29.8203550   4.2570540
  55.8852150  29.0171810   4.2027430  54.9157500  29.7582690   5.0987370
  52.8518020  26.7864920  11.1696240  52.4932960  27.4518770  11.7569580
  52.5572580  25.9548470  11.5408860  56.0531140  27.2449160  14.0535790
  55.7531280  27.3906340  13.1563610  56.8242380  26.6854450  13.9609180
  61.3959590  32.0418160  12.0490920  61.4104130  31.1099120  11.8309830
  60.6884690  32.1277920  12.6880690  67.6070800  28.6825500  11.3959500
  66.8818990  29.2754280  11.1988890  68.1346260  28.6749040  10.5972870
  63.1370390  30.4085670   4.8943350  63.4894210  29.8113800   4.2344720
  62.2532720  30.0829900   5.0651600  59.2233670  31.1683360   2.3013760
  59.9104800  31.7152570   2.6821350  58.4366090  31.7124090   2.3363370
  58.5260880  28.1729390   1.9139120  58.9823660  28.9834640   2.1399310
  58.1749090  27.8552530   2.7457610  60.8293490  33.6835730   9.1431420
  61.4735710  33.8895110   9.8204840  61.1922930  32.9224130   8.6902270
  54.4272660  18.5167040   2.3861640  54.2987290  18.5084940   3.3346560
  53.6034680  18.8550130   2.0352650  62.1025570  31.6868080   7.8608870
  62.7447800  30.9861240   7.9741040  62.6274920  32.4666520   7.6805760
  63.8763190  32.4862980  11.0644930  64.2119430  33.0729670  11.7422850
  62.9563530  32.3555690  11.2942720  51.4266590  20.2758160  11.8468340
  50.7125110  20.4755080  12.4520950  51.8461630  19.4997730  12.2183140
  51.7139180  34.2638420  12.8334870  51.8230300  33.3233160  12.6930260
  51.0619740  34.5293170  12.1848600  59.7051770  32.5354310  14.2332990
  59.3848640  31.8163550  14.7778680  59.0310130  33.2109380  14.3069050
  62.9205370  22.7680470   9.5969790  63.2886190  21.9475680   9.9249360
  62.0603570  22.8282360  10.0125440  58.2551430  24.0023360   1.8215230
  57.5467580  24.4709700   2.2628840  58.5395910  23.3445370   2.4560420
  59.8807360  25.4220060   9.8207760  60.3792610  25.8965880  10.4859610
  60.0230310  24.4983580  10.0277790  62.2866860  20.7274020   3.2611020
  62.1634640  20.7460150   2.3120530  63.2351420  20.7752960   3.3809420
  59.3743650  35.9629320   2.5339000  59.6285150  35.9250710   1.6118370
  58.4256130  35.8362650   2.5267250  67.0874220  21.6388020  10.6636150
  66.5847820  22.3793420  11.0029960  67.9030880  22.0272020  10.3472940
  65.3796230  26.8821200   4.1097510  64.4386370  26.8971430   4.2845200
  65.6940300  26.0957160   4.5557810  67.3821810  34.0530050   5.7851770
  67.5069230  34.8761220   6.2575580  68.2487370  33.8420780   5.4375920
  54.8539340  36.1461260   5.4568900  55.5901820  35.5976720   5.7277470
  55.2380260  37.0117270   5.3174890  53.8597620  35.3307330  14.6454480
  54.6610350  35.6519380  15.0589880  53.3449440  34.9702910  15.3674390
  62.6962250  31.4387200  14.5929890  62.0900410  31.4618800  13.8525640
  62.3916360  30.7070240  15.1297140  64.1262620  35.1667490  13.2039300
  65.0784370  35.0825510  13.1539540  63.9790840  35.8309200  13.8773090
  51.5795430  27.8180790  13.5890530  52.0834450  27.2388070  14.1606760
  50.8402850  28.1021020  14.1266900  58.6333370  29.2251780  13.1226050
  57.8679040  29.7936780  13.0380720  58.8149330  28.9327990  12.2294280
  65.7756720  30.9557110  13.6801070  66.5166190  31.2932870  13.1768530
  65.0129400  31.1249170  13.1270840  53.6118510  25.9610380  14.4840600
  53.6523850  25.6624250  15.3925830  54.4664010  26.3617990  14.3248120
  55.5524320  24.5402480  12.4515090  55.0220780  24.0493430  11.8238430
  56.2212390  24.9686680  11.9173020  64.4502380  29.0071940  12.2156280
  64.8643400  29.1617020  13.0646700  63.5153380  29.1327160  12.3782060
  64.9224550  26.3468100  14.2195430  65.5045320  25.5920420  14.1315910
  65.0986320  26.8775540  13.4426910  56.0396620  21.5064850  12.5312380
  55.9453490  20.8885600  11.8063250  55.4594010  22.2331140  12.3042290
  58.8058060  20.0638090   9.5639770  58.3575360  20.0862350   8.7185320
  58.1723260  19.6657110  10.1610070  59.2117610  28.9592420  10.1852210
  59.6305720  29.8025150  10.0128450  58.2926240  29.0964460   9.9558990
  61.5481510  26.6908600  11.5690050  61.6677720  26.0949740  12.3084890
  62.4075510  26.7278290  11.1491350  63.8869410  27.2445790  10.1452560
  63.3604630  27.7688410   9.5417700  64.2300750  27.8773180  10.7762290
  57.0625030  35.2645430  11.3009940  56.5246120  35.9891490  10.9818640
  57.3158990  34.7875770  10.5107280  58.3150280  23.2329950  12.8265870
  58.9049970  22.9245800  13.5143690  57.4970520  22.7609700  12.9825770
  63.1343710  22.8495760  13.0598890  62.4459230  22.1877300  12.9948880
  63.8549730  22.4034030  13.5047350  59.9187240  36.4996640  11.5596590
  59.8445940  37.4031780  11.8668960  59.0166080  36.1808540  11.5318660
  51.3214530  33.8271230   4.8630210  51.6517540  32.9592290   4.6308850
  51.7505530  34.0329750   5.6935170  55.9176450  32.1580240   2.5232180
  55.6171990  32.0345210   3.4236090  55.8113940  31.2988830   2.1147910
  51.8104740  34.6941820   7.6011840  51.3735730  34.8742620   8.4335990
  52.3782420  35.4516440   7.4593560  67.4466920  34.1958820  11.8889150
  66.8468910  34.2551380  11.1453070  67.5760820  33.2563800  12.0186000
  51.6429170  27.2062050   3.9600720  50.9878010  26.9373690   3.3160420
  52.4807120  27.0966530   3.5102700  69.1484800  29.5374220   4.5734990
  69.5193630  28.7541540   4.1670960  69.7886730  30.2263320   4.3952290
  66.1318560  30.9210800   9.9865310  65.3178400  31.3507960  10.2491100
  66.5392760  31.5329210   9.3734360  68.0909340  26.9127480   1.8795010
  67.7152940  26.1455410   1.4476300  67.3612460  27.2950180   2.3669940
  52.6805100  27.5914620   8.5004060  53.0478140  27.5042020   9.3800080
  52.1115920  26.8281170   8.4010920  67.4808960  26.0599000  11.5134530
  67.2495050  25.8311750  10.6132480  67.7413510  26.9798550  11.4679420
  52.2321100  24.5023710  12.4062480  51.3377150  24.4690470  12.7456190
  52.7718650  24.7010500  13.1713730  65.9197030  21.2855430  14.2914230
  66.7967210  21.2938830  14.6748230  65.9317870  20.5486270  13.6806580
  67.3660300  25.1384970   5.1802250  67.8897780  24.6447620   4.5492420
  67.9519720  25.2735330   5.9249820  67.5450020  25.2224840   8.7021800
  66.5952730  25.1888380   8.8166790  67.7263030  26.1324950   8.4671570
  52.7360810  18.7772040   6.7545700  53.3837000  18.2269420   6.3140860
  53.1562650  19.0315190   7.5761510  68.2847430  23.0319270   3.6532340
  68.1746710  22.8775310   4.5914610  69.0455020  22.5040210   3.4107750
  66.6313150  18.9713400  10.1115340  67.2685370  19.5847540  10.4774530
  66.7788040  19.0074060   9.1664570  66.1894610  35.6729400   3.5133580
  66.7853680  35.3513970   2.8368000  66.4472760  35.2001220   4.3046850
  52.4892810  18.9327710   9.4971020  52.1407630  19.3891530  10.2629200
  52.1580510  18.0384840   9.5793450  54.0957180  32.1047310  13.6624210
  54.0526810  31.7340220  14.5438670  54.2268190  33.0424880  13.8026030
  57.7963210  33.6606900   9.2633930  57.5554570  33.9281460   8.3764450
  58.7365850  33.8312630   9.3184790  60.0017630  20.1239590  13.0190440
  59.9406520  20.7161420  13.7685850  60.9418010  20.0165550  12.8740700
  62.6392190  19.7809650  12.6582730  63.2532600  20.0988940  11.9963810
  63.1841750  19.2958240  13.2778590  69.0567370  35.6801280  10.0644570
  68.5625650  36.0770150   9.3471700  68.4480660  35.0550490  10.4581850
  53.1613450  18.4603910  12.7721790  53.7096440  18.2791960  12.0087900
  53.2268760  17.6698020  13.3078100  53.9345210  35.0509560  10.7821990
  53.3405530  34.9194260  11.5212030  53.9269050  34.2147700  10.3164090
  63.3800230  18.3441790   8.9852020  62.5060070  18.6776900   8.7824950
  63.2710980  17.8714970   9.8103890  64.2872210  20.5512660  10.3693740
  63.9585570  19.7364420   9.9895470  65.2354510  20.5082470  10.2459430
  66.7406820  36.3224700   7.3431310  66.2809790  37.0740510   6.9689330
  66.1119280  35.6031170   7.2846110  53.5657440  32.4167940   9.7330030
  52.8391500  31.7973230   9.6655980  53.6266590  32.8108550   8.8628110
  57.1702540  34.6312940   6.5179440  57.6867560  34.0200300   5.9927700
  57.8199920  35.1341720   7.0090450  59.9098040  35.5221430   7.3448420
  60.1975850  35.2675730   6.4681430  60.4221260  34.9698790   7.9353990
  61.1275050  19.2611630   7.9244930  60.3446840  19.7357130   8.2041690
  60.8337980  18.3566460   7.8158110  65.6796120  19.9634730   5.9694020
  66.1204210  19.9079830   5.1215620  65.4103710  20.8792740   6.0404200
  67.5434690  19.5949970   3.9802840  67.4823090  18.6511190   3.8333860
  68.3226720  19.7030060   4.5256300  51.8487440  35.7342330   2.9426790
  51.6809480  35.1013010   3.6408680  50.9821950  35.9401730   2.5920980
  59.0129270  21.6798380   3.4360960  58.2003780  21.3055270   3.0956840
  59.5170910  20.9243460   3.7382150  63.5154250  18.3440830   4.6744030
  64.1183620  18.9161040   5.1492550  62.7747240  18.9080270   4.4517930
  57.0378450  19.8298300   2.0406010  56.4081190  19.1285610   2.2076140
  56.4983590  20.5902430   1.8239170  59.9770400  36.4437530  14.7116620
  60.9037710  36.2081800  14.7552580  59.9620830  37.2709530  14.2302650
  57.1634010  19.1082280  14.4758500  56.8818280  19.6115880  13.7119320
  57.5453710  18.3104030  14.1100630  63.7649470  18.5235860  15.0538970
  63.6514920  18.8430470  15.9490490  64.5819210  18.9248370  14.7576250
  66.5447960  35.6707390  14.5357660  67.3373280  35.1756620  14.3283620
  66.8381110  36.3497530  15.1433270  62.6707620   7.7684840  60.5147670
  62.5901670   6.8539450  60.2439380  62.2572040   8.2651910  59.8087380
  60.8025660   9.5463860  62.3956940  60.0267760   9.0664300  62.6855510
  61.4538590   8.8669510  62.2213100  54.8191490   9.8583670  63.2732700
  53.9876370   9.6032380  63.6729210  55.4272470   9.9294440  64.0090620
  64.8233090  13.9524050  61.1756070  64.3614620  13.1811290  61.5043240
  65.6358640  13.9790120  61.6808520  54.7992750  13.8923760  63.4690720
  55.1020790  13.0021500  63.2900940  55.5436340  14.4493980  63.2412970
  53.2283440   4.8185560  57.0575090  52.3400140   5.1601530  56.9554970
  53.5124630   4.6185880  56.1655920  51.1916450   7.4191210  62.9414790
  51.7632560   6.6513410  62.9418430  51.1917990   7.7179970  62.0321400
  61.0496400  16.2382060  60.7960060  60.4307840  16.6939560  60.2254500
  61.9048180  16.3933520  60.3949760  60.2434650  12.2221050  62.4027100
  60.1742930  11.2810990  62.2416230  61.0054510  12.3122460  62.9749670
  52.4341320   2.8275570  64.7283720  52.2544160   1.9301320  65.0086480
  52.0321400   3.3747440  65.4030670  61.2739820   5.0291430  62.6296030
  61.6504640   4.1563310  62.5169700  61.1759330   5.3650130  61.7386470
  55.4044830   3.4017060  58.0913470  55.5111580   4.3020790  58.3982230
  54.4937190   3.3535030  57.8008120  65.0563940   2.5241870  59.5624370
  65.8773560   2.0338440  59.6049850  65.0898020   3.1139530  60.3156210
  53.0527990   5.3236070  63.3366060  53.7338100   5.5874440  63.9553460
  52.7376040   4.4836940  63.6704070  57.2452560   6.3703430  62.4238650
  57.7530780   6.8684400  63.0643670  57.7765800   5.5938630  62.2478010
  61.9159750  11.1221300  58.1891970  61.2977020  11.5870750  57.6254690
  62.4283000  11.8148780  58.6061480  56.7791510  10.6497170  64.8675570
  56.4460890  11.2766090  65.5096640  56.9558190  11.1759050  64.0877240
  65.2925420   4.4642250  62.3351910  64.5880990   4.7527140  62.9155020
  65.6537580   5.2742360  61.9751470  55.2103990   2.7211950  64.6972520
  55.5520800   3.5654000  64.4026390  54.2719800   2.8695690  64.8137860
  51.2842950  11.8077830  55.5631600  50.9070930  12.2964930  54.8316500
  51.5416020  12.4803110  56.1938130  66.9088200  14.0817380  64.5979390
  66.2251720  14.7516490  64.5896060  67.4482490  14.2798030  63.8324250
  68.3612340   3.9097040  62.7261120  67.4137250   3.9436020  62.8576550
  68.6862330   4.7235990  63.1110480  64.4446940  15.9261510  63.3124570
  64.4574100  15.5223800  62.4446830  63.8922160  16.7008800  63.2086000
  65.7392360  12.6477730  58.4014740  65.6288690  11.7052060  58.5264160
  65.7360610  13.0093370  59.2877500  63.8432380  10.8291350  64.6407180
  64.2601170  10.6151460  63.8060640  64.5672200  11.0864140  65.2115800
  61.2812640   8.2743050  57.7577230  60.3541920   8.2080430  57.9865700
  61.4337460   9.2123180  57.6432470  61.2681720   4.5460050  54.7544390
  60.3285390   4.7074010  54.8396850  61.5864980   5.2645730  54.2080380
  67.7894480   9.2278570  64.7323420  66.9613110   9.2971660  64.2573550
  68.3844960   9.8132880  64.2639250  65.3109930   9.8363350  58.2612480
  64.6922350   9.4982900  57.6138780  65.2934380   9.1923110  58.9691670
  64.7536490   6.0147890  65.6778290  64.3407670   6.8401600  65.9318280
  64.0212440   5.4292930  65.4854650  56.8869280   8.8007790  60.5396960
  56.4826280   8.0885040  60.0442860  56.9732400   8.4561030  61.4285000
  57.3550980  12.4875350  62.7036170  57.0579270  11.8820820  62.0243950
  58.3050800  12.5252660  62.5925530  55.5997900   5.5751000  64.3196000
  56.1512490   5.6846340  63.5449250  56.1141410   5.9488600  65.0351230
  65.4436590  16.0607220  66.3659270  64.9667150  16.8679410  66.1731880
  64.7598380  15.4085550  66.5185480  63.4874630   9.0750160  55.2685230
  63.9267910   8.2372590  55.1223050  64.2003050   9.7079560  55.3549370
  61.5970010  14.0146230  59.2366470  62.0365920  14.7570560  58.8221860
  61.5356900  14.2572800  60.1605430  53.5873910   7.6952770  58.0403610
  53.4671510   8.4214860  57.4284880  53.2774800   6.9255680  57.5631520
  51.2259280  10.8667910  63.8472250  51.3039700  11.0016680  62.9027970
  51.8400960  10.1583800  64.0400370  52.4706910  12.5668100  60.2578430
  52.0634990  12.7082690  59.4032030  53.3619920  12.2828260  60.0549640
  64.2640190  17.0015350  56.5929480  64.1041330  16.7118290  57.4911310
  64.0986900  16.2255480  56.0574710  56.7428570  16.7813880  58.3701100
  56.5671050  15.8649420  58.1568900  55.8884310  17.1401170  58.6098900
  63.9666320  14.5102910  55.1527480  63.2731480  14.5080200  54.4929760
  64.7089180  14.0862230  54.7221650  63.5316250  16.1365620  59.2275970
  63.9873200  15.3555000  59.5414590  63.8708770  16.8472440  59.7717150
  55.8451790   6.1621410  59.1508530  55.6192710   5.9458580  60.0555150
  55.0644320   6.5949870  58.8054500  63.0749550   6.1684780  57.7499180
  62.4758440   6.8920580  57.5662800  63.6229160   6.1061560  56.9675630
  61.6814420   4.8048320  59.7802460  62.0743990   5.1220520  58.9671150
  62.0431270   3.9260200  59.8946980  50.9048820   5.3369240  53.2135380
  50.8223490   6.2800000  53.3550370  50.5531880   5.1944150  52.3347730
  62.2669560   7.3954070  63.8753240  61.5350680   7.9040880  64.2243340
  61.8693900   6.5784050  63.5742020  58.7046950   4.0708270  62.2805730
  58.7083010   3.6298220  61.4310270  59.5998070   4.3925600  62.3877550
  54.5549330   3.9534760  61.2399940  54.2149380   4.4309990  61.9966990
  53.7926650   3.4999880  60.8801040  58.7667100   5.0720350  55.2712490
  58.8879920   5.0306830  56.2198310  58.3815610   5.9344500  55.1159220
  62.7295470   2.8487750  63.2876180  62.7468210   3.2996400  64.1318030
  62.4811050   1.9493390  63.5009620  57.7788600   7.3821490  54.6695790
  57.2105500   6.9339740  54.0431700  58.4877600   7.7414270  54.1360940
  59.0054920   8.1310050  64.0271140  59.3725050   7.6568620  64.7732480
  58.8159980   9.0051620  64.3679480  51.8695410   2.8753740  60.1564610
  51.5842330   2.5109410  60.9943230  51.8074270   2.1434200  59.5427750
  55.3236080  11.3779680  56.9422200  54.5498340  10.8377300  56.7820920
  56.0530710  10.8586290  56.6039960  66.0824060  10.3745040  62.7348590
  66.8023180  10.8700330  62.3444700  65.8805880   9.6962930  62.0902460
  61.5434000   1.7683000  56.8777980  60.7298610   1.2696170  56.8023290
  61.3495950   2.6081250  56.4614330  64.2582390   6.1402650  55.1740140
  65.1462010   6.4519880  54.9991480  64.2287480   5.2674900  54.7820720
  55.3673480  11.0460060  60.5801010  55.8852150  10.2428320  60.5257900
  54.9157500  10.9839200  61.4217840  60.2542980  12.3126340  55.8528310
  60.5958680  13.0568570  55.3571630  59.4255690  12.6257460  56.2153140
  66.5296660   7.4514490  54.6420000  66.4460380   7.8828710  53.7916440
  67.2490850   7.9112840  55.0746820  67.5583910  14.3056750  57.3702130
  66.9160070  13.6512370  57.6445850  67.1714570  14.7111840  56.5942800
  63.1370390  11.6342180  61.2173820  63.4894210  11.0370310  60.5575190
  62.2532720  11.3086410  61.3882070  59.2233670  12.3939870  58.6244230
  59.9104800  12.9409080  59.0051820  58.4366090  12.9380600  58.6593840
  51.3626070   8.0112690  54.1161310  52.2320920   8.2937490  54.3997230
  50.8716390   8.8248560  54.0010120  58.5260880   9.3985900  58.2369590
  58.9823660  10.2091150  58.4629780  58.1749090   9.0809040  59.0688080
  60.8293490  14.9092240  65.4661890  61.4735710  15.1151620  66.1435310
  61.1922930  14.1480640  65.0132740  62.1025570  12.9124590  64.1839340
  62.7447800  12.2117750  64.2971510  62.6274920  13.6923030  64.0036230
  65.9481290  13.1973210  53.9078480  65.7218870  12.4803650  54.5003120
  65.5577490  12.9485650  53.0700230  51.7297320  17.2240070  54.6822940
  52.0894960  17.8229410  54.0280210  51.5889660  17.7699960  55.4557970
  65.5297540  11.1145150  55.5692640  65.2419240  11.5757840  56.3570520
  66.3249710  10.6542920  55.8376860  57.7465940  14.6071270  55.4996610
  57.7376040  15.3400960  54.8841120  56.8264300  14.3602850  55.5923570
  53.3472580   9.8286160  56.2443370  52.7400530  10.5685060  56.2538670
  53.8221930   9.9185520  55.4181570  62.9205370   3.9936980  65.9200260
  63.2886190   3.1732190  66.2479830  62.0603570   4.0538870  66.3355910
  66.2867400   2.9493920  56.7287820  65.6580560   3.0539590  56.0146050
  65.7919320   3.1690700  57.5181700  60.7325540  14.6699510  54.1621800
  60.8337520  14.4663500  53.2323780  59.8327280  14.4157790  54.3669580
  58.2551430   5.2279870  58.1445700  57.5467580   5.6966210  58.5859310
  58.5395910   4.5701880  58.7790890  62.2866860   1.9530530  59.5841490
  62.1634640   1.9716660  58.6351000  63.2351420   2.0009470  59.7039890
  59.3743650  17.1885830  58.8569470  59.6285150  17.1507220  57.9348840
  58.4256130  17.0619160  58.8497720  56.4586450   3.5364950  55.5196410
  57.3076980   3.9735100  55.4536600  56.0917720   3.8485210  56.3468470
  65.3796230   8.1077710  60.4327980  64.4386370   8.1227940  60.6075670
  65.6940300   7.3213670  60.8788280  55.3577870   9.7897310  53.9931940
  56.1241140   9.6778670  54.5557370  55.4352560   9.0935280  53.3408710
  54.0524630   7.2222380  54.6764830  54.1328220   6.2749890  54.7882230
  54.9444380   7.5529260  54.7825490  67.3821810  15.2786560  62.1082240
  67.5069230  16.1017730  62.5806050  68.2487370  15.0677290  61.7606390
  54.8539340  17.3717770  61.7799370  55.5901820  16.8233230  62.0507940
  55.2380260  18.2373780  61.6405360  51.7384820  13.4391340  57.6540880
  50.8124600  13.6812480  57.6446290  52.2041250  14.2665600  57.5325630
  57.9641650  16.5448080  53.6024940  58.7570260  16.8336910  53.1506730
  57.4446000  16.1140250  52.9237420  67.0171820  15.7718210  55.0261680
  66.7313330  15.3583350  54.2115860  66.8191370  16.7005920  54.9062200
  58.4819050  11.7651490  53.4667290  58.3769690  11.1503840  54.1928670
  58.3143270  11.2417380  52.6830300  61.7221780  10.8271520  54.0709280
  61.1731880  11.2740820  54.7152020  62.3441040  10.3220770  54.5946950
  57.3896900   9.7862440  55.9674580  57.8113320   9.6202310  56.8105970
  57.5147740   8.9762670  55.4729720  59.9024540   8.8100050  53.2151680
  60.4230200   8.0949070  52.8492830  60.5492940   9.4485920  53.5152190
  59.2117610  10.1848930  66.5082680  59.6305720  11.0281660  66.3358920
  58.2926240  10.3220970  66.2789460  56.2855800   5.8595670  52.9132740
  56.0844860   4.9963030  53.2746080  56.1147850   5.7729030  51.9754340
  55.0838600   2.9596290  52.9010620  55.3864500   2.9663720  51.9929770
  55.8233190   2.6094150  53.3978280  60.4672570  16.8911660  55.5053420
  61.3623360  17.2296630  55.5272180  60.4990200  16.1691070  54.8777700
  54.1068730  12.2638710  53.7340420  54.5443600  12.8068380  54.3898000
  54.5916460  11.4385660  53.7436760  51.3214530  15.0527740  61.1860680
  51.6517540  14.1848800  60.9539320  51.7505530  15.2586260  62.0165640
  55.9176450  13.3836750  58.8462650  55.6171990  13.2601720  59.7466560
  55.8113940  12.5245340  58.4378380  51.8104740  15.9198330  63.9242310
  51.3735730  16.0999130  64.7566460  52.3782420  16.6772950  63.7824030
  68.6868370  13.1633150  53.5489330  67.8561330  13.2309800  54.0196560
  68.8640200  14.0537270  53.2456190  68.1424830   9.9080630  56.0523530
  68.9043740  10.4777280  56.1583220  68.1579200   9.3407830  56.8231840
  51.6429170   8.4318560  60.2831190  50.9878010   8.1630200  59.6390890
  52.4807120   8.3223040  59.8333170  69.1484800  10.7630730  60.8965460
  69.5193630   9.9798050  60.4901430  69.7886730  11.4519830  60.7182760
  68.1944000  10.2015000  53.2096050  68.4692840  11.1093880  53.0815270
  68.0054740  10.1377530  54.1458040  64.5919610   3.2259850  54.5049680
  65.0104490   3.0390830  53.6646340  64.2855670   2.3738900  54.8152610
  68.0909340   8.1383990  58.2025480  67.7152940   7.3711920  57.7706770
  67.3612460   8.5206690  58.6900410  52.6805100   8.8171130  64.8234530
  53.0478140   8.7298530  65.7030550  52.1115920   8.0537680  64.7241390
  50.8567250   5.6417490  56.2256520  49.9531330   5.9047690  56.0508180
  51.3407870   5.9128660  55.4456480  67.3660300   6.3641480  61.5032720
  67.8897780   5.8704130  60.8722890  67.9519720   6.4991840  62.2480290
  67.5450020   6.4481350  65.0252270  66.5952730   6.4144890  65.1397260
  67.7263030   7.3581460  64.7902040  53.3994460   4.6983030  54.1350900
  54.1086160   4.2766250  53.6498180  52.6834400   4.7658260  53.5034250
  66.8560270   5.6214830  57.4425130  67.3519390   5.3885700  58.2274010
  66.6576340   4.7826670  57.0262770  68.2847430   4.2575780  59.9762810
  68.1746710   4.1031820  60.9145080  69.0455020   3.7296720  59.7338220
  69.1737700   2.0883700  53.2168950  70.0987010   1.9564880  53.0087240
  69.1513490   2.1676520  54.1705400  69.2476190   2.8594360  55.8425660
  68.4527690   2.7939480  56.3718570  69.4519470   3.7945000  55.8311010
  66.1894610  16.8985910  59.8364050  66.7853680  16.5770480  59.1598470
  66.4472760  16.4257730  60.6277320  57.7963210  14.8863410  65.5864400
  57.5554570  15.1537970  64.6994920  58.7365850  15.0569140  65.6415260
  66.7406820  17.5481210  63.6661780  66.2809790  18.2997020  63.2919800
  66.1119280  16.8287680  63.6076580  53.5657440  13.6424450  66.0560500
  52.8391500  13.0229740  65.9886450  53.6266590  14.0365060  65.1858580
  57.1702540  15.8569450  62.8409910  57.6867560  15.2456810  62.3158170
  57.8199920  16.3598230  63.3320920  59.9098040  16.7477940  63.6678890
  60.1975850  16.4932240  62.7911900  60.4221260  16.1955300  64.2584460
  51.8487440  16.9598840  59.2657260  51.6809480  16.3269520  59.9639150
  50.9821950  17.1658240  58.9151450  59.0129270   2.9054890  59.7591430
  58.2003780   2.5311780  59.4187310  59.5170910   2.1499970  60.0612620
  53.4550140  15.6532070  56.7107400  52.9297760  16.0340100  56.0069360
  53.3794720  16.2782840  57.4317110  68.2115460  17.2119610  58.0321340
  68.3867650  16.5257350  57.3882260  67.5137030  17.7366660  57.6398010
  56.0543110  17.6014450  55.5856650  56.7861930  17.3173730  55.0380540
  56.3136780  17.3627730  56.4756030  55.2157900  13.7179180  55.5902980
  54.5866780  14.1864280  56.1388810  55.3305730  12.8728400  56.0249170
  62.6707620   7.7684840  41.7404180  62.5901670   6.8539450  41.4695890
  62.2572040   8.2651910  41.0343890  60.8025660   9.5463860  43.6213450
  60.0267760   9.0664300  43.9112020  61.4538590   8.8669510  43.4469610
  54.8191490   9.8583670  44.4989210  53.9876370   9.6032380  44.8985720
  55.4272470   9.9294440  45.2347130  64.8233090  13.9524050  42.4012580
  64.3614620  13.1811290  42.7299750  65.6358640  13.9790120  42.9065030
  54.7992750  13.8923760  44.6947230  55.1020790  13.0021500  44.5157450
  55.5436340  14.4493980  44.4669480  53.2283440   4.8185560  38.2831600
  52.3400140   5.1601530  38.1811480  53.5124630   4.6185880  37.3912430
  51.1916450   7.4191210  44.1671300  51.7632560   6.6513410  44.1674940
  51.1917990   7.7179970  43.2577910  61.0496400  16.2382060  42.0216570
  60.4307840  16.6939560  41.4511010  61.9048180  16.3933520  41.6206270
  60.2434650  12.2221050  43.6283610  60.1742930  11.2810990  43.4672740
  61.0054510  12.3122460  44.2006180  52.4341320   2.8275570  45.9540230
  52.2544160   1.9301320  46.2342990  52.0321400   3.3747440  46.6287180
  61.2739820   5.0291430  43.8552540  61.6504640   4.1563310  43.7426210
  61.1759330   5.3650130  42.9642980  55.4044830   3.4017060  39.3169980
  55.5111580   4.3020790  39.6238740  54.4937190   3.3535030  39.0264630
  65.0563940   2.5241870  40.7880880  65.8773560   2.0338440  40.8306360
  65.0898020   3.1139530  41.5412720  53.0527990   5.3236070  44.5622570
  53.7338100   5.5874440  45.1809970  52.7376040   4.4836940  44.8960580
  57.2452560   6.3703430  43.6495160  57.7530780   6.8684400  44.2900180
  57.7765800   5.5938630  43.4734520  69.3463490   4.5408620  47.3524510
  68.6415660   4.9290330  46.8339620  69.6121410   5.2358910  47.9545440
  61.9159750  11.1221300  39.4148480  61.2977020  11.5870750  38.8511200
  62.4283000  11.8148780  39.8317990  56.7791510  10.6497170  46.0932080
  56.4460890  11.2766090  46.7353150  56.9558190  11.1759050  45.3133750
  65.2925420   4.4642250  43.5608420  64.5880990   4.7527140  44.1411530
  65.6537580   5.2742360  43.2007980  55.2103990   2.7211950  45.9229030
  55.5520800   3.5654000  45.6282900  54.2719800   2.8695690  46.0394370
  55.9910610  12.6177970  47.9081260  56.6084610  13.2929050  47.6265710
  55.1303730  13.0265950  47.8168760  51.2842950  11.8077830  36.7888110
  50.9070930  12.2964930  36.0573010  51.5416020  12.4803110  37.4194640
  66.9088200  14.0817380  45.8235900  66.2251720  14.7516490  45.8152570
  67.4482490  14.2798030  45.0580760  68.3612340   3.9097040  43.9517630
  67.4137250   3.9436020  44.0833060  68.6862330   4.7235990  44.3366990
  64.4446940  15.9261510  44.5381080  64.4574100  15.5223800  43.6703340
  63.8922160  16.7008800  44.4342510  65.7392360  12.6477730  39.6271250
  65.6288690  11.7052060  39.7520670  65.7360610  13.0093370  40.5134010
  63.8432380  10.8291350  45.8663690  64.2601170  10.6151460  45.0317150
  64.5672200  11.0864140  46.4372310  61.2812640   8.2743050  38.9833740
  60.3541920   8.2080430  39.2122210  61.4337460   9.2123180  38.8688980
  61.2681720   4.5460050  35.9800900  60.3285390   4.7074010  36.0653360
  61.5864980   5.2645730  35.4336890  67.7894480   9.2278570  45.9579930
  66.9613110   9.2971660  45.4830060  68.3844960   9.8132880  45.4895760
  65.3109930   9.8363350  39.4868990  64.6922350   9.4982900  38.8395290
  65.2934380   9.1923110  40.1948180  64.7536490   6.0147890  46.9034800
  64.3407670   6.8401600  47.1574790  64.0212440   5.4292930  46.7111160
  56.8869280   8.8007790  41.7653470  56.4826280   8.0885040  41.2699370
  56.9732400   8.4561030  42.6541510  57.3550980  12.4875350  43.9292680
  57.0579270  11.8820820  43.2500460  58.3050800  12.5252660  43.8182040
  55.5997900   5.5751000  45.5452510  56.1512490   5.6846340  44.7705760
  56.1141410   5.9488600  46.2607740  65.4436590  16.0607220  47.5915780
  64.9667150  16.8679410  47.3988390  64.7598380  15.4085550  47.7441990
  56.4469410  12.2257040  50.5800480  55.5497940  12.4497010  50.8273880
  56.4722280  12.3491980  49.6311880  63.4874630   9.0750160  36.4941740
  63.9267910   8.2372590  36.3479560  64.2003050   9.7079560  36.5805880
  55.2740630   9.0970360  49.1557850  55.1348400   9.9693160  49.5245250
  54.3921990   8.7543170  49.0105790  61.5970010  14.0146230  40.4622980
  62.0365920  14.7570560  40.0478370  61.5356900  14.2572800  41.3861940
  57.0720980  15.0392060  51.3643000  57.0436410  15.4435010  50.4971430
  56.9085950  14.1102420  51.2014600  53.5873910   7.6952770  39.2660120
  53.4671510   8.4214860  38.6541390  53.2774800   6.9255680  38.7888030
  69.0235800  15.8219160  52.6607170  69.4995520  16.3002050  53.3396250
  69.6442960  15.7536650  51.9352670  51.2259280  10.8667910  45.0728760
  51.3039700  11.0016680  44.1284480  51.8400960  10.1583800  45.2656880
  52.4706910  12.5668100  41.4834940  52.0634990  12.7082690  40.6288540
  53.3619920  12.2828260  41.2806150  68.4269050  13.0132010  49.8207180
  68.5532110  12.7743890  48.9024360  68.4690430  12.1816550  50.2929260
  62.2885790  16.7160010  48.3901990  62.8030460  16.6268020  49.1924420
  61.4454870  17.0619710  48.6829900  64.2640190  17.0015350  37.8185990
  64.1041330  16.7118290  38.7167820  64.0986900  16.2255480  37.2831220
  56.7428570  16.7813880  39.5957610  56.5671050  15.8649420  39.3825410
  55.8884310  17.1401170  39.8355410  63.9666320  14.5102910  36.3783990
  63.2731480  14.5080200  35.7186270  64.7089180  14.0862230  35.9478160
  63.5316250  16.1365620  40.4532480  63.9873200  15.3555000  40.7671100
  63.8708770  16.8472440  40.9973660  68.2793060   5.0664470  50.7856920
  67.6637330   5.5744140  50.2572380  67.9589480   4.1662800  50.7282860
  51.2818800  11.9082080  47.6123220  51.4449840  11.4387440  46.7942590
  51.7471250  11.4005640  48.2772060  60.3407380   3.9056360  48.2519110
  59.8786750   4.1139380  49.0639050  59.9385490   3.0915710  47.9489780
  65.3411890   5.1265310  49.3815770  64.4905480   4.8271060  49.7024840
  65.1813680   5.3707320  48.4699590  62.4361600   6.6267060  51.4814560
  62.7615010   5.7930810  51.1416790  63.2241930   7.1495580  51.6292890
  55.8451790   6.1621410  40.3765040  55.6192710   5.9458580  41.2811660
  55.0644320   6.5949870  40.0311010  63.0749550   6.1684780  38.9755690
  62.4758440   6.8920580  38.7919310  63.6229160   6.1061560  38.1932140
  58.2851000   7.0606990  51.0425310  58.1894600   6.1201720  50.8925710
  59.1282980   7.2822060  50.6473380  61.6814420   4.8048320  41.0058970
  62.0743990   5.1220520  40.1927660  62.0431270   3.9260200  41.1203490
  53.4161540   3.4720660  49.1959090  53.0224930   4.3195870  49.4031870
  52.7279940   2.8347030  49.3867730  59.9906590   3.5555630  52.2655830
  59.3004910   3.3627830  52.9001920  60.7338890   3.8390270  52.7980130
  50.9048820   5.3369240  34.4391890  50.8223490   6.2800000  34.5806880
  50.5531880   5.1944150  33.5604240  62.2669560   7.3954070  45.1009750
  61.5350680   7.9040880  45.4499850  61.8693900   6.5784050  44.7998530
  58.7046950   4.0708270  43.5062240  58.7083010   3.6298220  42.6566780
  59.5998070   4.3925600  43.6134060  54.5549330   3.9534760  42.4656450
  54.2149380   4.4309990  43.2223500  53.7926650   3.4999880  42.1057550
  58.7667100   5.0720350  36.4969000  58.8879920   5.0306830  37.4454820
  58.3815610   5.9344500  36.3415730  62.7295470   2.8487750  44.5132690
  62.7468210   3.2996400  45.3574540  62.4811050   1.9493390  44.7266130
  57.7788600   7.3821490  35.8952300  57.2105500   6.9339740  35.2688210
  58.4877600   7.7414270  35.3617450  52.8557780  11.2833510  49.7719030
  52.4712570  10.6427180  50.3701990  53.1669970  11.9869630  50.3413760
  59.0054920   8.1310050  45.2527650  59.3725050   7.6568620  45.9988990
  58.8159980   9.0051620  45.5935990  51.8695410   2.8753740  41.3821120
  51.5842330   2.5109410  42.2199740  51.8074270   2.1434200  40.7684260
  56.7954290   7.1718690  47.5711860  56.4911360   8.0510670  47.7962220
  57.7500750   7.2318480  47.6069300  55.3236080  11.3779680  38.1678710
  54.5498340  10.8377300  38.0077430  56.0530710  10.8586290  37.8296470
  66.0824060  10.3745040  43.9605100  66.8023180  10.8700330  43.5701210
  65.8805880   9.6962930  43.3158970  61.5434000   1.7683000  38.1034490
  60.7298610   1.2696170  38.0279800  61.3495950   2.6081250  37.6870840
  61.4642860  10.4454100  49.8474100  61.3980170   9.5249770  49.5931690
  60.8348000  10.5429540  50.5618740  64.2582390   6.1402650  36.3996650
  65.1462010   6.4519880  36.2247990  64.2287480   5.2674900  36.0077230
  55.3673480  11.0460060  41.8057520  55.8852150  10.2428320  41.7514410
  54.9157500  10.9839200  42.6474350  60.2542980  12.3126340  37.0784820
  60.5958680  13.0568570  36.5828140  59.4255690  12.6257460  37.4409650
  52.8518020   8.0121430  48.7183220  52.4932960   8.6775280  49.3056560
  52.5572580   7.1804980  49.0895840  56.0531140   8.4705670  51.6022770
  55.7531280   8.6162850  50.7050590  56.8242380   7.9110960  51.5096160
  61.3959590  13.2674670  49.5977900  61.4104130  12.3355630  49.3796810
  60.6884690  13.3534430  50.2367670  66.5296660   7.4514490  35.8676510
  66.4460380   7.8828710  35.0172950  67.2490850   7.9112840  36.3003330
  67.6070800   9.9082010  48.9446480  66.8818990  10.5010790  48.7475870
  68.1346260   9.9005550  48.1459850  67.5583910  14.3056750  38.5958640
  66.9160070  13.6512370  38.8702360  67.1714570  14.7111840  37.8199310
  63.1370390  11.6342180  42.4430330  63.4894210  11.0370310  41.7831700
  62.2532720  11.3086410  42.6138580  59.2233670  12.3939870  39.8500740
  59.9104800  12.9409080  40.2308330  58.4366090  12.9380600  39.8850350
  51.3626070   8.0112690  35.3417820  52.2320920   8.2937490  35.6253740
  50.8716390   8.8248560  35.2266630  58.5260880   9.3985900  39.4626100
  58.9823660  10.2091150  39.6886290  58.1749090   9.0809040  40.2944590
  60.8293490  14.9092240  46.6918400  61.4735710  15.1151620  47.3691820
  61.1922930  14.1480640  46.2389250  62.1025570  12.9124590  45.4095850
  62.7447800  12.2117750  45.5228020  62.6274920  13.6923030  45.2292740
  65.9481290  13.1973210  35.1334990  65.7218870  12.4803650  35.7259630
  65.5577490  12.9485650  34.2956740  63.8763190  13.7119490  48.6131910
  64.2119430  14.2986180  49.2909830  62.9563530  13.5812200  48.8429700
  51.7297320  17.2240070  35.9079450  52.0894960  17.8229410  35.2536720
  51.5889660  17.7699960  36.6814480  65.5297540  11.1145150  36.7949150
  65.2419240  11.5757840  37.5827030  66.3249710  10.6542920  37.0633370
  51.7139180  15.4894930  50.3821850  51.8230300  14.5489670  50.2417240
  51.0619740  15.7549680  49.7335580  59.7051770  13.7610820  51.7819970
  59.3848640  13.0420060  52.3265660  59.0310130  14.4365890  51.8556030
  57.7465940  14.6071270  36.7253120  57.7376040  15.3400960  36.1097630
  56.8264300  14.3602850  36.8180080  53.3472580   9.8286160  37.4699880
  52.7400530  10.5685060  37.4795180  53.8221930   9.9185520  36.6438080
  62.9205370   3.9936980  47.1456770  63.2886190   3.1732190  47.4736340
  62.0603570   4.0538870  47.5612420  66.2867400   2.9493920  37.9544330
  65.6580560   3.0539590  37.2402560  65.7919320   3.1690700  38.7438210
  60.7325540  14.6699510  35.3878310  60.8337520  14.4663500  34.4580290
  59.8327280  14.4157790  35.5926090  58.2551430   5.2279870  39.3702210
  57.5467580   5.6966210  39.8115820  58.5395910   4.5701880  40.0047400
  59.8807360   6.6476570  47.3694740  60.3792610   7.1222390  48.0346590
  60.0230310   5.7240090  47.5764770  62.2866860   1.9530530  40.8098000
  62.1634640   1.9716660  39.8607510  63.2351420   2.0009470  40.9296400
  59.3743650  17.1885830  40.0825980  59.6285150  17.1507220  39.1605350
  58.4256130  17.0619160  40.0754230  56.4586450   3.5364950  36.7452920
  57.3076980   3.9735100  36.6793110  56.0917720   3.8485210  37.5724980
  67.0874220   2.8644530  48.2123130  66.5847820   3.6049930  48.5516940
  67.9030880   3.2528530  47.8959920  65.3796230   8.1077710  41.6584490
  64.4386370   8.1227940  41.8332180  65.6940300   7.3213670  42.1044790
  55.3577870   9.7897310  35.2188450  56.1241140   9.6778670  35.7813880
  55.4352560   9.0935280  34.5665220  54.0524630   7.2222380  35.9021340
  54.1328220   6.2749890  36.0138740  54.9444380   7.5529260  36.0082000
  67.3821810  15.2786560  43.3338750  67.5069230  16.1017730  43.8062560
  68.2487370  15.0677290  42.9862900  54.8539340  17.3717770  43.0055880
  55.5901820  16.8233230  43.2764450  55.2380260  18.2373780  42.8661870
  51.7384820  13.4391340  38.8797390  50.8124600  13.6812480  38.8702800
  52.2041250  14.2665600  38.7582140  53.8597620  16.5563840  52.1941460
  54.6610350  16.8775890  52.6076860  53.3449440  16.1959420  52.9161370
  57.9641650  16.5448080  34.8281450  58.7570260  16.8336910  34.3763240
  57.4446000  16.1140250  34.1493930  62.6962250  12.6643710  52.1416870
  62.0900410  12.6875310  51.4012620  62.3916360  11.9326750  52.6784120
  64.1262620  16.3924000  50.7526280  65.0784370  16.3082020  50.7026520
  63.9790840  17.0565710  51.4260070  67.0171820  15.7718210  36.2518190
  66.7313330  15.3583350  35.4372370  66.8191370  16.7005920  36.1318710
  51.5795430   9.0437300  51.1377510  52.0834450   8.4644580  51.7093740
  50.8402850   9.3277530  51.6753880  58.4819050  11.7651490  34.6923800
  58.3769690  11.1503840  35.4185180  58.3143270  11.2417380  33.9086810
  58.6333370  10.4508290  50.6713030  57.8679040  11.0193290  50.5867700
  58.8149330  10.1584500  49.7781260  61.7221780  10.8271520  35.2965790
  61.1731880  11.2740820  35.9408530  62.3441040  10.3220770  35.8203460
  65.7756720  12.1813620  51.2288050  66.5166190  12.5189380  50.7255510
  65.0129400  12.3505680  50.6757820  53.6118510   7.1866890  52.0327580
  53.6523850   6.8880760  52.9412810  54.4664010   7.5874500  51.8735100
  57.3896900   9.7862440  37.1931090  57.8113320   9.6202310  38.0362480
  57.5147740   8.9762670  36.6986230  55.5524320   5.7658990  50.0002070
  55.0220780   5.2749940  49.3725410  56.2212390   6.1943190  49.4660000
  59.9024540   8.8100050  34.4408190  60.4230200   8.0949070  34.0749340
  60.5492940   9.4485920  34.7408700  64.4502380  10.2328450  49.7643260
  64.8643400  10.3873530  50.6133680  63.5153380  10.3583670  49.9269040
  64.9224550   7.5724610  51.7682410  65.5045320   6.8176930  51.6802890
  65.0986320   8.1032050  50.9913890  56.0396620   2.7321360  50.0799360
  55.9453490   2.1142110  49.3550230  55.4594010   3.4587650  49.8529270
  59.2117610  10.1848930  47.7339190  59.6305720  11.0281660  47.5615430
  58.2926240  10.3220970  47.5045970  61.5481510   7.9165110  49.1177030
  61.6677720   7.3206250  49.8571870  62.4075510   7.9534800  48.6978330
  63.8869410   8.4702300  47.6939540  63.3604630   8.9944920  47.0904680
  64.2300750   9.1029690  48.3249270  56.2855800   5.8595670  34.1389250
  56.0844860   4.9963030  34.5002590  56.1147850   5.7729030  33.2010850
  57.0625030  16.4901940  48.8496920  56.5246120  17.2148000  48.5305620
  57.3158990  16.0132280  48.0594260  58.3150280   4.4586460  50.3752850
  58.9049970   4.1502310  51.0630670  57.4970520   3.9866210  50.5312750
  63.1343710   4.0752270  50.6085870  62.4459230   3.4133810  50.5435860
  63.8549730   3.6290540  51.0534330  55.0838600   2.9596290  34.1267130
  55.3864500   2.9663720  33.2186280  55.8233190   2.6094150  34.6234790
  59.9187240  17.7253150  49.1083570  59.8445940  18.6288290  49.4155940
  59.0166080  17.4065050  49.0805640  60.4672570  16.8911660  36.7309930
  61.3623360  17.2296630  36.7528690  60.4990200  16.1691070  36.1034210
  54.1068730  12.2638710  34.9596930  54.5443600  12.8068380  35.6154510
  54.5916460  11.4385660  34.9693270  51.3214530  15.0527740  42.4117190
  51.6517540  14.1848800  42.1795830  51.7505530  15.2586260  43.2422150
  55.9176450  13.3836750  40.0719160  55.6171990  13.2601720  40.9723070
  55.8113940  12.5245340  39.6634890  51.8104740  15.9198330  45.1498820
  51.3735730  16.0999130  45.9822970  52.3782420  16.6772950  45.0080540
  67.4466920  15.4215330  49.4376130  66.8468910  15.4807890  48.6940050
  67.5760820  14.4820310  49.5672980  68.6868370  13.1633150  34.7745840
  67.8561330  13.2309800  35.2453070  68.8640200  14.0537270  34.4712700
  68.1424830   9.9080630  37.2780040  68.9043740  10.4777280  37.3839730
  68.1579200   9.3407830  38.0488350  51.6429170   8.4318560  41.5087700
  50.9878010   8.1630200  40.8647400  52.4807120   8.3223040  41.0589680
  69.1484800  10.7630730  42.1221970  69.5193630   9.9798050  41.7157940
  69.7886730  11.4519830  41.9439270  66.1318560  12.1467310  47.5352290
  65.3178400  12.5764470  47.7978080  66.5392760  12.7585720  46.9221340
  68.1944000  10.2015000  34.4352560  68.4692840  11.1093880  34.3071780
  68.0054740  10.1377530  35.3714550  64.5919610   3.2259850  35.7306190
  65.0104490   3.0390830  34.8902850  64.2855670   2.3738900  36.0409120
  68.0909340   8.1383990  39.4281990  67.7152940   7.3711920  38.9963280
  67.3612460   8.5206690  39.9156920  52.6805100   8.8171130  46.0491040
  53.0478140   8.7298530  46.9287060  52.1115920   8.0537680  45.9497900
  67.4808960   7.2855510  49.0621510  67.2495050   7.0568260  48.1619460
  67.7413510   8.2055060  49.0166400  52.2321100   5.7280220  49.9549460
  51.3377150   5.6946980  50.2943170  52.7718650   5.9267010  50.7200710
  65.9197030   2.5111940  51.8401210  66.7967210   2.5195340  52.2235210
  65.9317870   1.7742780  51.2293560  50.8567250   5.6417490  37.4513030
  49.9531330   5.9047690  37.2764690  51.3407870   5.9128660  36.6712990
  67.3660300   6.3641480  42.7289230  67.8897780   5.8704130  42.0979400
  67.9519720   6.4991840  43.4736800  67.5450020   6.4481350  46.2508780
  66.5952730   6.4144890  46.3653770  67.7263030   7.3581460  46.0158550
  53.3994460   4.6983030  35.3607410  54.1086160   4.2766250  34.8754690
  52.6834400   4.7658260  34.7290760  66.8560270   5.6214830  38.6681640
  67.3519390   5.3885700  39.4530520  66.6576340   4.7826670  38.2519280
  68.2847430   4.2575780  41.2019320  68.1746710   4.1031820  42.1401590
  69.0455020   3.7296720  40.9594730  69.1737700   2.0883700  34.4425460
  70.0987010   1.9564880  34.2343750  69.1513490   2.1676520  35.3961910
  69.2476190   2.8594360  37.0682170  68.4527690   2.7939480  37.5975080
  69.4519470   3.7945000  37.0567520  66.1894610  16.8985910  41.0620560
  66.7853680  16.5770480  40.3854980  66.4472760  16.4257730  41.8533830
  54.0957180  13.3303820  51.2111190  54.0526810  12.9596730  52.0925650
  54.2268190  14.2681390  51.3513010  57.7963210  14.8863410  46.8120910
  57.5554570  15.1537970  45.9251430  58.7365850  15.0569140  46.8671770
  69.0567370  16.9057790  47.6131550  68.5625650  17.3026660  46.8958680
  68.4480660  16.2807000  48.0068830  53.9345210  16.2766070  48.3308970
  53.3405530  16.1450770  49.0699010  53.9269050  15.4404210  47.8651070
  66.7406820  17.5481210  44.8918290  66.2809790  18.2997020  44.5176310
  66.1119280  16.8287680  44.8333090  53.5657440  13.6424450  47.2817010
  52.8391500  13.0229740  47.2142960  53.6266590  14.0365060  46.4115090
  57.1702540  15.8569450  44.0666420  57.6867560  15.2456810  43.5414680
  57.8199920  16.3598230  44.5577430  59.9098040  16.7477940  44.8935400
  60.1975850  16.4932240  44.0168410  60.4221260  16.1955300  45.4840970
  51.8487440  16.9598840  40.4913770  51.6809480  16.3269520  41.1895660
  50.9821950  17.1658240  40.1407960  59.0129270   2.9054890  40.9847940
  58.2003780   2.5311780  40.6443820  59.5170910   2.1499970  41.2869130
  53.4550140  15.6532070  37.9363910  52.9297760  16.0340100  37.2325870
  53.3794720  16.2782840  38.6573620  59.9770400  17.6694040  52.2603600
  60.9037710  17.4338310  52.3039560  59.9620830  18.4966040  51.7789630
  68.2115460  17.2119610  39.2577850  68.3867650  16.5257350  38.6138770
  67.5137030  17.7366660  38.8654520  56.0543110  17.6014450  36.8113160
  56.7861930  17.3173730  36.2637050  56.3136780  17.3627730  37.7012540
  55.2157900  13.7179180  36.8159490  54.5866780  14.1864280  37.3645320
  55.3305730  12.8728400  37.2505680  66.5447960  16.8963900  52.0844640
  67.3373280  16.4013130  51.8770600  66.8381110  17.5754040  52.6920250
  62.6707620   7.7684840  22.9660690  62.5901670   6.8539450  22.6952400
  62.2572040   8.2651910  22.2600400  60.8025660   9.5463860  24.8469960
  60.0267760   9.0664300  25.1368530  61.4538590   8.8669510  24.6726120
  54.8191490   9.8583670  25.7245720  53.9876370   9.6032380  26.1242230
  55.4272470   9.9294440  26.4603640  64.8233090  13.9524050  23.6269090
  64.3614620  13.1811290  23.9556260  65.6358640  13.9790120  24.1321540
  54.7992750  13.8923760  25.9203740  55.1020790  13.0021500  25.7413960
  55.5436340  14.4493980  25.6925990  53.2283440   4.8185560  19.5088110
  52.3400140   5.1601530  19.4067990  53.5124630   4.6185880  18.6168940
  51.1916450   7.4191210  25.3927810  51.7632560   6.6513410  25.3931450
  51.1917990   7.7179970  24.4834420  61.0496400  16.2382060  23.2473080
  60.4307840  16.6939560  22.6767520  61.9048180  16.3933520  22.8462780
  60.2434650  12.2221050  24.8540120  60.1742930  11.2810990  24.6929250
  61.0054510  12.3122460  25.4262690  52.4341320   2.8275570  27.1796740
  52.2544160   1.9301320  27.4599500  52.0321400   3.3747440  27.8543690
  61.2739820   5.0291430  25.0809050  61.6504640   4.1563310  24.9682720
  61.1759330   5.3650130  24.1899490  55.4044830   3.4017060  20.5426490
  55.5111580   4.3020790  20.8495250  54.4937190   3.3535030  20.2521140
  65.0563940   2.5241870  22.0137390  65.8773560   2.0338440  22.0562870
  65.0898020   3.1139530  22.7669230  53.0527990   5.3236070  25.7879080
  53.7338100   5.5874440  26.4066480  52.7376040   4.4836940  26.1217090
  57.2452560   6.3703430  24.8751670  57.7530780   6.8684400  25.5156690
  57.7765800   5.5938630  24.6991030  69.3463490   4.5408620  28.5781020
  68.6415660   4.9290330  28.0596130  69.6121410   5.2358910  29.1801950
  61.9159750  11.1221300  20.6404990  61.2977020  11.5870750  20.0767710
  62.4283000  11.8148780  21.0574500  56.7791510  10.6497170  27.3188590
  56.4460890  11.2766090  27.9609660  56.9558190  11.1759050  26.5390260
  65.2925420   4.4642250  24.7864930  64.5880990   4.7527140  25.3668040
  65.6537580   5.2742360  24.4264490  55.2103990   2.7211950  27.1485540
  55.5520800   3.5654000  26.8539410  54.2719800   2.8695690  27.2650880
  55.9910610  12.6177970  29.1337770  56.6084610  13.2929050  28.8522220
  55.1303730  13.0265950  29.0425270  51.2842950  11.8077830  18.0144620
  50.9070930  12.2964930  17.2829520  51.5416020  12.4803110  18.6451150
  66.9088200  14.0817380  27.0492410  66.2251720  14.7516490  27.0409080
  67.4482490  14.2798030  26.2837270  68.3612340   3.9097040  25.1774140
  67.4137250   3.9436020  25.3089570  68.6862330   4.7235990  25.5623500
  64.4446940  15.9261510  25.7637590  64.4574100  15.5223800  24.8959850
  63.8922160  16.7008800  25.6599020  65.7392360  12.6477730  20.8527760
  65.6288690  11.7052060  20.9777180  65.7360610  13.0093370  21.7390520
  63.8432380  10.8291350  27.0920200  64.2601170  10.6151460  26.2573660
  64.5672200  11.0864140  27.6628820  61.2812640   8.2743050  20.2090250
  60.3541920   8.2080430  20.4378720  61.4337460   9.2123180  20.0945490
  61.2681720   4.5460050  17.2057410  60.3285390   4.7074010  17.2909870
  61.5864980   5.2645730  16.6593400  67.7894480   9.2278570  27.1836440
  66.9613110   9.2971660  26.7086570  68.3844960   9.8132880  26.7152270
  65.3109930   9.8363350  20.7125500  64.6922350   9.4982900  20.0651800
  65.2934380   9.1923110  21.4204690  64.7536490   6.0147890  28.1291310
  64.3407670   6.8401600  28.3831300  64.0212440   5.4292930  27.9367670
  56.8869280   8.8007790  22.9909980  56.4826280   8.0885040  22.4955880
  56.9732400   8.4561030  23.8798020  57.3550980  12.4875350  25.1549190
  57.0579270  11.8820820  24.4756970  58.3050800  12.5252660  25.0438550
  55.5997900   5.5751000  26.7709020  56.1512490   5.6846340  25.9962270
  56.1141410   5.9488600  27.4864250  65.4436590  16.0607220  28.8172290
  64.9667150  16.8679410  28.6244900  64.7598380  15.4085550  28.9698500
  56.4469410  12.2257040  31.8056990  55.5497940  12.4497010  32.0530390
  56.4722280  12.3491980  30.8568390  63.4874630   9.0750160  17.7198250
  63.9267910   8.2372590  17.5736070  64.2003050   9.7079560  17.8062390
  55.2740630   9.0970360  30.3814360  55.1348400   9.9693160  30.7501760
  54.3921990   8.7543170  30.2362300  61.5970010  14.0146230  21.6879490
  62.0365920  14.7570560  21.2734880  61.5356900  14.2572800  22.6118450
  57.0720980  15.0392060  32.5899510  57.0436410  15.4435010  31.7227940
  56.9085950  14.1102420  32.4271110  53.5873910   7.6952770  20.4916630
  53.4671510   8.4214860  19.8797900  53.2774800   6.9255680  20.0144540
  69.0235800  15.8219160  33.8863680  69.4995520  16.3002050  34.5652760
  69.6442960  15.7536650  33.1609180  51.2259280  10.8667910  26.2985270
  51.3039700  11.0016680  25.3540990  51.8400960  10.1583800  26.4913390
  52.4706910  12.5668100  22.7091450  52.0634990  12.7082690  21.8545050
  53.3619920  12.2828260  22.5062660  68.4269050  13.0132010  31.0463690
  68.5532110  12.7743890  30.1280870  68.4690430  12.1816550  31.5185770
  62.2885790  16.7160010  29.6158500  62.8030460  16.6268020  30.4180930
  61.4454870  17.0619710  29.9086410  64.2640190  17.0015350  19.0442500
  64.1041330  16.7118290  19.9424330  64.0986900  16.2255480  18.5087730
  56.7428570  16.7813880  20.8214120  56.5671050  15.8649420  20.6081920
  55.8884310  17.1401170  21.0611920  63.9666320  14.5102910  17.6040500
  63.2731480  14.5080200  16.9442780  64.7089180  14.0862230  17.1734670
  63.5316250  16.1365620  21.6788990  63.9873200  15.3555000  21.9927610
  63.8708770  16.8472440  22.2230170  68.2793060   5.0664470  32.0113430
  67.6637330   5.5744140  31.4828890  67.9589480   4.1662800  31.9539370
  51.2818800  11.9082080  28.8379730  51.4449840  11.4387440  28.0199100
  51.7471250  11.4005640  29.5028570  60.3407380   3.9056360  29.4775620
  59.8786750   4.1139380  30.2895560  59.9385490   3.0915710  29.1746290
  65.3411890   5.1265310  30.6072280  64.4905480   4.8271060  30.9281350
  65.1813680   5.3707320  29.6956100  62.4361600   6.6267060  32.7071070
  62.7615010   5.7930810  32.3673300  63.2241930   7.1495580  32.8549400
  55.8451790   6.1621410  21.6021550  55.6192710   5.9458580  22.5068170
  55.0644320   6.5949870  21.2567520  63.0749550   6.1684780  20.2012200
  62.4758440   6.8920580  20.0175820  63.6229160   6.1061560  19.4188650
  58.2851000   7.0606990  32.2681820  58.1894600   6.1201720  32.1182220
  59.1282980   7.2822060  31.8729890  61.6814420   4.8048320  22.2315480
  62.0743990   5.1220520  21.4184170  62.0431270   3.9260200  22.3460000
  53.4161540   3.4720660  30.4215600  53.0224930   4.3195870  30.6288380
  52.7279940   2.8347030  30.6124240  59.9906590   3.5555630  33.4912340
  59.3004910   3.3627830  34.1258430  60.7338890   3.8390270  34.0236640
  50.9048820   5.3369240  15.6648400  50.8223490   6.2800000  15.8063390
  50.5531880   5.1944150  14.7860750  62.2669560   7.3954070  26.3266260
  61.5350680   7.9040880  26.6756360  61.8693900   6.5784050  26.0255040
  58.7046950   4.0708270  24.7318750  58.7083010   3.6298220  23.8823290
  59.5998070   4.3925600  24.8390570  54.5549330   3.9534760  23.6912960
  54.2149380   4.4309990  24.4480010  53.7926650   3.4999880  23.3314060
  58.7667100   5.0720350  17.7225510  58.8879920   5.0306830  18.6711330
  58.3815610   5.9344500  17.5672240  62.7295470   2.8487750  25.7389200
  62.7468210   3.2996400  26.5831050  62.4811050   1.9493390  25.9522640
  57.7788600   7.3821490  17.1208810  57.2105500   6.9339740  16.4944720
  58.4877600   7.7414270  16.5873960  52.8557780  11.2833510  30.9975540
  52.4712570  10.6427180  31.5958500  53.1669970  11.9869630  31.5670270
  59.0054920   8.1310050  26.4784160  59.3725050   7.6568620  27.2245500
  58.8159980   9.0051620  26.8192500  51.8695410   2.8753740  22.6077630
  51.5842330   2.5109410  23.4456250  51.8074270   2.1434200  21.9940770
  56.7954290   7.1718690  28.7968370  56.4911360   8.0510670  29.0218730
  57.7500750   7.2318480  28.8325810  55.3236080  11.3779680  19.3935220
  54.5498340  10.8377300  19.2333940  56.0530710  10.8586290  19.0552980
  66.0824060  10.3745040  25.1861610  66.8023180  10.8700330  24.7957720
  65.8805880   9.6962930  24.5415480  61.5434000   1.7683000  19.3291000
  60.7298610   1.2696170  19.2536310  61.3495950   2.6081250  18.9127350
  61.4642860  10.4454100  31.0730610  61.3980170   9.5249770  30.8188200
  60.8348000  10.5429540  31.7875250  64.2582390   6.1402650  17.6253160
  65.1462010   6.4519880  17.4504500  64.2287480   5.2674900  17.2333740
  55.3673480  11.0460060  23.0314030  55.8852150  10.2428320  22.9770920
  54.9157500  10.9839200  23.8730860  60.2542980  12.3126340  18.3041330
  60.5958680  13.0568570  17.8084650  59.4255690  12.6257460  18.6666160
  52.8518020   8.0121430  29.9439730  52.4932960   8.6775280  30.5313070
  52.5572580   7.1804980  30.3152350  56.0531140   8.4705670  32.8279280
  55.7531280   8.6162850  31.9307100  56.8242380   7.9110960  32.7352670
  61.3959590  13.2674670  30.8234410  61.4104130  12.3355630  30.6053320
  60.6884690  13.3534430  31.4624180  66.5296660   7.4514490  17.0933020
  66.4460380   7.8828710  16.2429460  67.2490850   7.9112840  17.5259840
  67.6070800   9.9082010  30.1702990  66.8818990  10.5010790  29.9732380
  68.1346260   9.9005550  29.3716360  67.5583910  14.3056750  19.8215150
  66.9160070  13.6512370  20.0958870  67.1714570  14.7111840  19.0455820
  63.1370390  11.6342180  23.6686840  63.4894210  11.0370310  23.0088210
  62.2532720  11.3086410  23.8395090  59.2233670  12.3939870  21.0757250
  59.9104800  12.9409080  21.4564840  58.4366090  12.9380600  21.1106860
  51.3626070   8.0112690  16.5674330  52.2320920   8.2937490  16.8510250
  50.8716390   8.8248560  16.4523140  58.5260880   9.3985900  20.6882610
  58.9823660  10.2091150  20.9142800  58.1749090   9.0809040  21.5201100
  60.8293490  14.9092240  27.9174910  61.4735710  15.1151620  28.5948330
  61.1922930  14.1480640  27.4645760  62.1025570  12.9124590  26.6352360
  62.7447800  12.2117750  26.7484530  62.6274920  13.6923030  26.4549250
  65.9481290  13.1973210  16.3591500  65.7218870  12.4803650  16.9516140
  65.5577490  12.9485650  15.5213250  63.8763190  13.7119490  29.8388420
  64.2119430  14.2986180  30.5166340  62.9563530  13.5812200  30.0686210
  51.7297320  17.2240070  17.1335960  52.0894960  17.8229410  16.4793230
  51.5889660  17.7699960  17.9070990  65.5297540  11.1145150  18.0205660
  65.2419240  11.5757840  18.8083540  66.3249710  10.6542920  18.2889880
  51.7139180  15.4894930  31.6078360  51.8230300  14.5489670  31.4673750
  51.0619740  15.7549680  30.9592090  59.7051770  13.7610820  33.0076480
  59.3848640  13.0420060  33.5522170  59.0310130  14.4365890  33.0812540
  57.7465940  14.6071270  17.9509630  57.7376040  15.3400960  17.3354140
  56.8264300  14.3602850  18.0436590  53.3472580   9.8286160  18.6956390
  52.7400530  10.5685060  18.7051690  53.8221930   9.9185520  17.8694590
  62.9205370   3.9936980  28.3713280  63.2886190   3.1732190  28.6992850
  62.0603570   4.0538870  28.7868930  66.2867400   2.9493920  19.1800840
  65.6580560   3.0539590  18.4659070  65.7919320   3.1690700  19.9694720
  60.7325540  14.6699510  16.6134820  60.8337520  14.4663500  15.6836800
  59.8327280  14.4157790  16.8182600  58.2551430   5.2279870  20.5958720
  57.5467580   5.6966210  21.0372330  58.5395910   4.5701880  21.2303910
  59.8807360   6.6476570  28.5951250  60.3792610   7.1222390  29.2603100
  60.0230310   5.7240090  28.8021280  62.2866860   1.9530530  22.0354510
  62.1634640   1.9716660  21.0864020  63.2351420   2.0009470  22.1552910
  59.3743650  17.1885830  21.3082490  59.6285150  17.1507220  20.3861860
  58.4256130  17.0619160  21.3010740  56.4586450   3.5364950  17.9709430
  57.3076980   3.9735100  17.9049620  56.0917720   3.8485210  18.7981490
  67.0874220   2.8644530  29.4379640  66.5847820   3.6049930  29.7773450
  67.9030880   3.2528530  29.1216430  65.3796230   8.1077710  22.8841000
  64.4386370   8.1227940  23.0588690  65.6940300   7.3213670  23.3301300
  55.3577870   9.7897310  16.4444960  56.1241140   9.6778670  17.0070390
  55.4352560   9.0935280  15.7921730  54.0524630   7.2222380  17.1277850
  54.1328220   6.2749890  17.2395250  54.9444380   7.5529260  17.2338510
  67.3821810  15.2786560  24.5595260  67.5069230  16.1017730  25.0319070
  68.2487370  15.0677290  24.2119410  54.8539340  17.3717770  24.2312390
  55.5901820  16.8233230  24.5020960  55.2380260  18.2373780  24.0918380
  51.7384820  13.4391340  20.1053900  50.8124600  13.6812480  20.0959310
  52.2041250  14.2665600  19.9838650  53.8597620  16.5563840  33.4197970
  54.6610350  16.8775890  33.8333370  53.3449440  16.1959420  34.1417880
  57.9641650  16.5448080  16.0537960  58.7570260  16.8336910  15.6019750
  57.4446000  16.1140250  15.3750440  62.6962250  12.6643710  33.3673380
  62.0900410  12.6875310  32.6269130  62.3916360  11.9326750  33.9040630
  64.1262620  16.3924000  31.9782790  65.0784370  16.3082020  31.9283030
  63.9790840  17.0565710  32.6516580  67.0171820  15.7718210  17.4774700
  66.7313330  15.3583350  16.6628880  66.8191370  16.7005920  17.3575220
  51.5795430   9.0437300  32.3634020  52.0834450   8.4644580  32.9350250
  50.8402850   9.3277530  32.9010390  58.4819050  11.7651490  15.9180310
  58.3769690  11.1503840  16.6441690  58.3143270  11.2417380  15.1343320
  58.6333370  10.4508290  31.8969540  57.8679040  11.0193290  31.8124210
  58.8149330  10.1584500  31.0037770  61.7221780  10.8271520  16.5222300
  61.1731880  11.2740820  17.1665040  62.3441040  10.3220770  17.0459970
  65.7756720  12.1813620  32.4544560  66.5166190  12.5189380  31.9512020
  65.0129400  12.3505680  31.9014330  53.6118510   7.1866890  33.2584090
  53.6523850   6.8880760  34.1669320  54.4664010   7.5874500  33.0991610
  57.3896900   9.7862440  18.4187600  57.8113320   9.6202310  19.2618990
  57.5147740   8.9762670  17.9242740  55.5524320   5.7658990  31.2258580
  55.0220780   5.2749940  30.5981920  56.2212390   6.1943190  30.6916510
  59.9024540   8.8100050  15.6664700  60.4230200   8.0949070  15.3005850
  60.5492940   9.4485920  15.9665210  64.4502380  10.2328450  30.9899770
  64.8643400  10.3873530  31.8390190  63.5153380  10.3583670  31.1525550
  64.9224550   7.5724610  32.9938920  65.5045320   6.8176930  32.9059400
  65.0986320   8.1032050  32.2170400  56.0396620   2.7321360  31.3055870
  55.9453490   2.1142110  30.5806740  55.4594010   3.4587650  31.0785780
  59.2117610  10.1848930  28.9595700  59.6305720  11.0281660  28.7871940
  58.2926240  10.3220970  28.7302480  61.5481510   7.9165110  30.3433540
  61.6677720   7.3206250  31.0828380  62.4075510   7.9534800  29.9234840
  63.8869410   8.4702300  28.9196050  63.3604630   8.9944920  28.3161190
  64.2300750   9.1029690  29.5505780  56.2855800   5.8595670  15.3645760
  56.0844860   4.9963030  15.7259100  56.1147850   5.7729030  14.4267360
  57.0625030  16.4901940  30.0753430  56.5246120  17.2148000  29.7562130
  57.3158990  16.0132280  29.2850770  58.3150280   4.4586460  31.6009360
  58.9049970   4.1502310  32.2887180  57.4970520   3.9866210  31.7569260
  63.1343710   4.0752270  31.8342380  62.4459230   3.4133810  31.7692370
  63.8549730   3.6290540  32.2790840  55.0838600   2.9596290  15.3523640
  55.3864500   2.9663720  14.4442790  55.8233190   2.6094150  15.8491300
  59.9187240  17.7253150  30.3340080  59.8445940  18.6288290  30.6412450
  59.0166080  17.4065050  30.3062150  60.4672570  16.8911660  17.9566440
  61.3623360  17.2296630  17.9785200  60.4990200  16.1691070  17.3290720
  54.1068730  12.2638710  16.1853440  54.5443600  12.8068380  16.8411020
  54.5916460  11.4385660  16.1949780  51.3214530  15.0527740  23.6373700
  51.6517540  14.1848800  23.4052340  51.7505530  15.2586260  24.4678660
  55.9176450  13.3836750  21.2975670  55.6171990  13.2601720  22.1979580
  55.8113940  12.5245340  20.8891400  51.8104740  15.9198330  26.3755330
  51.3735730  16.0999130  27.2079480  52.3782420  16.6772950  26.2337050
  67.4466920  15.4215330  30.6632640  66.8468910  15.4807890  29.9196560
  67.5760820  14.4820310  30.7929490  68.6868370  13.1633150  16.0002350
  67.8561330  13.2309800  16.4709580  68.8640200  14.0537270  15.6969210
  68.1424830   9.9080630  18.5036550  68.9043740  10.4777280  18.6096240
  68.1579200   9.3407830  19.2744860  51.6429170   8.4318560  22.7344210
  50.9878010   8.1630200  22.0903910  52.4807120   8.3223040  22.2846190
  69.1484800  10.7630730  23.3478480  69.5193630   9.9798050  22.9414450
  69.7886730  11.4519830  23.1695780  66.1318560  12.1467310  28.7608800
  65.3178400  12.5764470  29.0234590  66.5392760  12.7585720  28.1477850
  68.1944000  10.2015000  15.6609070  68.4692840  11.1093880  15.5328290
  68.0054740  10.1377530  16.5971060  64.5919610   3.2259850  16.9562700
  65.0104490   3.0390830  16.1159360  64.2855670   2.3738900  17.2665630
  68.0909340   8.1383990  20.6538500  67.7152940   7.3711920  20.2219790
  67.3612460   8.5206690  21.1413430  52.6805100   8.8171130  27.2747550
  53.0478140   8.7298530  28.1543570  52.1115920   8.0537680  27.1754410
  67.4808960   7.2855510  30.2878020  67.2495050   7.0568260  29.3875970
  67.7413510   8.2055060  30.2422910  52.2321100   5.7280220  31.1805970
  51.3377150   5.6946980  31.5199680  52.7718650   5.9267010  31.9457220
  65.9197030   2.5111940  33.0657720  66.7967210   2.5195340  33.4491720
  65.9317870   1.7742780  32.4550070  50.8567250   5.6417490  18.6769540
  49.9531330   5.9047690  18.5021200  51.3407870   5.9128660  17.8969500
  67.3660300   6.3641480  23.9545740  67.8897780   5.8704130  23.3235910
  67.9519720   6.4991840  24.6993310  67.5450020   6.4481350  27.4765290
  66.5952730   6.4144890  27.5910280  67.7263030   7.3581460  27.2415060
  53.3994460   4.6983030  16.5863920  54.1086160   4.2766250  16.1011200
  52.6834400   4.7658260  15.9547270  66.8560270   5.6214830  19.8938150
  67.3519390   5.3885700  20.6787030  66.6576340   4.7826670  19.4775790
  68.2847430   4.2575780  22.4275830  68.1746710   4.1031820  23.3658100
  69.0455020   3.7296720  22.1851240  69.1737700   2.0883700  15.6681970
  70.0987010   1.9564880  15.4600260  69.1513490   2.1676520  16.6218420
  69.2476190   2.8594360  18.2938680  68.4527690   2.7939480  18.8231590
  69.4519470   3.7945000  18.2824030  66.1894610  16.8985910  22.2877070
  66.7853680  16.5770480  21.6111490  66.4472760  16.4257730  23.0790340
  54.0957180  13.3303820  32.4367700  54.0526810  12.9596730  33.3182160
  54.2268190  14.2681390  32.5769520  57.7963210  14.8863410  28.0377420
  57.5554570  15.1537970  27.1507940  58.7365850  15.0569140  28.0928280
  69.0567370  16.9057790  28.8388060  68.5625650  17.3026660  28.1215190
  68.4480660  16.2807000  29.2325340  53.9345210  16.2766070  29.5565480
  53.3405530  16.1450770  30.2955520  53.9269050  15.4404210  29.0907580
  66.7406820  17.5481210  26.1174800  66.2809790  18.2997020  25.7432820
  66.1119280  16.8287680  26.0589600  53.5657440  13.6424450  28.5073520
  52.8391500  13.0229740  28.4399470  53.6266590  14.0365060  27.6371600
  57.1702540  15.8569450  25.2922930  57.6867560  15.2456810  24.7671190
  57.8199920  16.3598230  25.7833940  59.9098040  16.7477940  26.1191910
  60.1975850  16.4932240  25.2424920  60.4221260  16.1955300  26.7097480
  51.8487440  16.9598840  21.7170280  51.6809480  16.3269520  22.4152170
  50.9821950  17.1658240  21.3664470  59.0129270   2.9054890  22.2104450
  58.2003780   2.5311780  21.8700330  59.5170910   2.1499970  22.5125640
  53.4550140  15.6532070  19.1620420  52.9297760  16.0340100  18.4582380
  53.3794720  16.2782840  19.8830130  59.9770400  17.6694040  33.4860110
  60.9037710  17.4338310  33.5296070  59.9620830  18.4966040  33.0046140
  68.2115460  17.2119610  20.4834360  68.3867650  16.5257350  19.8395280
  67.5137030  17.7366660  20.0911030  56.0543110  17.6014450  18.0369670
  56.7861930  17.3173730  17.4893560  56.3136780  17.3627730  18.9269050
  55.2157900  13.7179180  18.0416000  54.5866780  14.1864280  18.5901830
  55.3305730  12.8728400  18.4762190  66.5447960  16.8963900  33.3101150
  67.3373280  16.4013130  33.1027110  66.8381110  17.5754040  33.9176760
  62.6707620   7.7684840   4.1917200  62.5901670   6.8539450   3.9208910
  62.2572040   8.2651910   3.4856910  60.8025660   9.5463860   6.0726470
  60.0267760   9.0664300   6.3625040  61.4538590   8.8669510   5.8982630
  54.8191490   9.8583670   6.9502230  53.9876370   9.6032380   7.3498740
  55.4272470   9.9294440   7.6860150  64.8233090  13.9524050   4.8525600
  64.3614620  13.1811290   5.1812770  65.6358640  13.9790120   5.3578050
  54.7992750  13.8923760   7.1460250  55.1020790  13.0021500   6.9670470
  55.5436340  14.4493980   6.9182500  51.1916450   7.4191210   6.6184320
  51.7632560   6.6513410   6.6187960  51.1917990   7.7179970   5.7090930
  61.0496400  16.2382060   4.4729590  60.4307840  16.6939560   3.9024030
  61.9048180  16.3933520   4.0719290  60.2434650  12.2221050   6.0796630
  60.1742930  11.2810990   5.9185760  61.0054510  12.3122460   6.6519200
  52.4341320   2.8275570   8.4053250  52.2544160   1.9301320   8.6856010
  52.0321400   3.3747440   9.0800200  61.2739820   5.0291430   6.3065560
  61.6504640   4.1563310   6.1939230  61.1759330   5.3650130   5.4156000
  55.4044830   3.4017060   1.7683000  55.5111580   4.3020790   2.0751760
  54.4937190   3.3535030   1.4777650  65.0563940   2.5241870   3.2393900
  65.8773560   2.0338440   3.2819380  65.0898020   3.1139530   3.9925740
  53.0527990   5.3236070   7.0135590  53.7338100   5.5874440   7.6322990
  52.7376040   4.4836940   7.3473600  57.2452560   6.3703430   6.1008180
  57.7530780   6.8684400   6.7413200  57.7765800   5.5938630   5.9247540
  69.3463490   4.5408620   9.8037530  68.6415660   4.9290330   9.2852640
  69.6121410   5.2358910  10.4058460  56.7791510  10.6497170   8.5445100
  56.4460890  11.2766090   9.1866170  56.9558190  11.1759050   7.7646770
  65.2925420   4.4642250   6.0121440  64.5880990   4.7527140   6.5924550
  65.6537580   5.2742360   5.6521000  55.2103990   2.7211950   8.3742050
  55.5520800   3.5654000   8.0795920  54.2719800   2.8695690   8.4907390
  55.9910610  12.6177970  10.3594280  56.6084610  13.2929050  10.0778730
  55.1303730  13.0265950  10.2681780  66.9088200  14.0817380   8.2748920
  66.2251720  14.7516490   8.2665590  67.4482490  14.2798030   7.5093780
  68.3612340   3.9097040   6.4030650  67.4137250   3.9436020   6.5346080
  68.6862330   4.7235990   6.7880010  64.4446940  15.9261510   6.9894100
  64.4574100  15.5223800   6.1216360  63.8922160  16.7008800   6.8855530
  65.7392360  12.6477730   2.0784270  65.6288690  11.7052060   2.2033690
  65.7360610  13.0093370   2.9647030  63.8432380  10.8291350   8.3176710
  64.2601170  10.6151460   7.4830170  64.5672200  11.0864140   8.8885330
  67.7894480   9.2278570   8.4092950  66.9613110   9.2971660   7.9343080
  68.3844960   9.8132880   7.9408780  64.7536490   6.0147890   9.3547820
  64.3407670   6.8401600   9.6087810  64.0212440   5.4292930   9.1624180
  56.8869280   8.8007790   4.2166490  56.4826280   8.0885040   3.7212390
  56.9732400   8.4561030   5.1054530  57.3550980  12.4875350   6.3805700
  57.0579270  11.8820820   5.7013480  58.3050800  12.5252660   6.2695060
  55.5997900   5.5751000   7.9965530  56.1512490   5.6846340   7.2218780
  56.1141410   5.9488600   8.7120760  65.4436590  16.0607220  10.0428800
  64.9667150  16.8679410   9.8501410  64.7598380  15.4085550  10.1955010
  56.4469410  12.2257040  13.0313500  55.5497940  12.4497010  13.2786900
  56.4722280  12.3491980  12.0824900  55.2740630   9.0970360  11.6070870
  55.1348400   9.9693160  11.9758270  54.3921990   8.7543170  11.4618810
  61.5970010  14.0146230   2.9136000  62.0365920  14.7570560   2.4991390
  61.5356900  14.2572800   3.8374960  57.0720980  15.0392060  13.8156020
  57.0436410  15.4435010  12.9484450  56.9085950  14.1102420  13.6527620
  69.0235800  15.8219160  15.1120190  69.4995520  16.3002050  15.7909270
  69.6442960  15.7536650  14.3865690  51.2259280  10.8667910   7.5241780
  51.3039700  11.0016680   6.5797500  51.8400960  10.1583800   7.7169900
  52.4706910  12.5668100   3.9347960  52.0634990  12.7082690   3.0801560
  53.3619920  12.2828260   3.7319170  68.4269050  13.0132010  12.2720200
  68.5532110  12.7743890  11.3537380  68.4690430  12.1816550  12.7442280
  62.2885790  16.7160010  10.8415010  62.8030460  16.6268020  11.6437440
  61.4454870  17.0619710  11.1342920  56.7428570  16.7813880   2.0470630
  56.5671050  15.8649420   1.8338430  55.8884310  17.1401170   2.2868430
  63.5316250  16.1365620   2.9045500  63.9873200  15.3555000   3.2184120
  63.8708770  16.8472440   3.4486680  68.2793060   5.0664470  13.2369940
  67.6637330   5.5744140  12.7085400  67.9589480   4.1662800  13.1795880
  51.2818800  11.9082080  10.0636240  51.4449840  11.4387440   9.2455610
  51.7471250  11.4005640  10.7285080  60.3407380   3.9056360  10.7032130
  59.8786750   4.1139380  11.5152070  59.9385490   3.0915710  10.4002800
  65.3411890   5.1265310  11.8328790  64.4905480   4.8271060  12.1537860
  65.1813680   5.3707320  10.9212610  62.4361600   6.6267060  13.9327580
  62.7615010   5.7930810  13.5929810  63.2241930   7.1495580  14.0805910
  55.8451790   6.1621410   2.8278060  55.6192710   5.9458580   3.7324680
  55.0644320   6.5949870   2.4824030  58.2851000   7.0606990  13.4938330
  58.1894600   6.1201720  13.3438730  59.1282980   7.2822060  13.0986400
  61.6814420   4.8048320   3.4571990  62.0743990   5.1220520   2.6440680
  62.0431270   3.9260200   3.5716510  53.4161540   3.4720660  11.6472110
  53.0224930   4.3195870  11.8544890  52.7279940   2.8347030  11.8380750
  59.9906590   3.5555630  14.7168850  59.3004910   3.3627830  15.3514940
  60.7338890   3.8390270  15.2493150  62.2669560   7.3954070   7.5522770
  61.5350680   7.9040880   7.9012870  61.8693900   6.5784050   7.2511550
  58.7046950   4.0708270   5.9575260  58.7083010   3.6298220   5.1079800
  59.5998070   4.3925600   6.0647080  54.5549330   3.9534760   4.9169470
  54.2149380   4.4309990   5.6736520  53.7926650   3.4999880   4.5570570
  62.7295470   2.8487750   6.9645710  62.7468210   3.2996400   7.8087560
  62.4811050   1.9493390   7.1779150  52.8557780  11.2833510  12.2232050
  52.4712570  10.6427180  12.8215010  53.1669970  11.9869630  12.7926780
  59.0054920   8.1310050   7.7040670  59.3725050   7.6568620   8.4502010
  58.8159980   9.0051620   8.0449010  51.8695410   2.8753740   3.8334140
  51.5842330   2.5109410   4.6712760  51.8074270   2.1434200   3.2197280
  56.7954290   7.1718690  10.0224880  56.4911360   8.0510670  10.2475240
  57.7500750   7.2318480  10.0582320  66.0824060  10.3745040   6.4118120
  66.8023180  10.8700330   6.0214230  65.8805880   9.6962930   5.7671990
  61.4642860  10.4454100  12.2987120  61.3980170   9.5249770  12.0444710
  60.8348000  10.5429540  13.0131760  55.3673480  11.0460060   4.2570540
  55.8852150  10.2428320   4.2027430  54.9157500  10.9839200   5.0987370
  52.8518020   8.0121430  11.1696240  52.4932960   8.6775280  11.7569580
  52.5572580   7.1804980  11.5408860  56.0531140   8.4705670  14.0535790
  55.7531280   8.6162850  13.1563610  56.8242380   7.9110960  13.9609180
  61.3959590  13.2674670  12.0490920  61.4104130  12.3355630  11.8309830
  60.6884690  13.3534430  12.6880690  67.6070800   9.9082010  11.3959500
  66.8818990  10.5010790  11.1988890  68.1346260   9.9005550  10.5972870
  63.1370390  11.6342180   4.8943350  63.4894210  11.0370310   4.2344720
  62.2532720  11.3086410   5.0651600  59.2233670  12.3939870   2.3013760
  59.9104800  12.9409080   2.6821350  58.4366090  12.9380600   2.3363370
  58.5260880   9.3985900   1.9139120  58.9823660  10.2091150   2.1399310
  58.1749090   9.0809040   2.7457610  60.8293490  14.9092240   9.1431420
  61.4735710  15.1151620   9.8204840  61.1922930  14.1480640   8.6902270
  62.1025570  12.9124590   7.8608870  62.7447800  12.2117750   7.9741040
  62.6274920  13.6923030   7.6805760  63.8763190  13.7119490  11.0644930
  64.2119430  14.2986180  11.7422850  62.9563530  13.5812200  11.2942720
  51.7139180  15.4894930  12.8334870  51.8230300  14.5489670  12.6930260
  51.0619740  15.7549680  12.1848600  59.7051770  13.7610820  14.2332990
  59.3848640  13.0420060  14.7778680  59.0310130  14.4365890  14.3069050
  62.9205370   3.9936980   9.5969790  63.2886190   3.1732190   9.9249360
  62.0603570   4.0538870  10.0125440  58.2551430   5.2279870   1.8215230
  57.5467580   5.6966210   2.2628840  58.5395910   4.5701880   2.4560420
  59.8807360   6.6476570   9.8207760  60.3792610   7.1222390  10.4859610
  60.0230310   5.7240090  10.0277790  62.2866860   1.9530530   3.2611020
  62.1634640   1.9716660   2.3120530  63.2351420   2.0009470   3.3809420
  59.3743650  17.1885830   2.5339000  59.6285150  17.1507220   1.6118370
  58.4256130  17.0619160   2.5267250  67.0874220   2.8644530  10.6636150
  66.5847820   3.6049930  11.0029960  67.9030880   3.2528530  10.3472940
  65.3796230   8.1077710   4.1097510  64.4386370   8.1227940   4.2845200
  65.6940300   7.3213670   4.5557810  67.3821810  15.2786560   5.7851770
  67.5069230  16.1017730   6.2575580  68.2487370  15.0677290   5.4375920
  54.8539340  17.3717770   5.4568900  55.5901820  16.8233230   5.7277470
  55.2380260  18.2373780   5.3174890  53.8597620  16.5563840  14.6454480
  54.6610350  16.8775890  15.0589880  53.3449440  16.1959420  15.3674390
  62.6962250  12.6643710  14.5929890  62.0900410  12.6875310  13.8525640
  62.3916360  11.9326750  15.1297140  64.1262620  16.3924000  13.2039300
  65.0784370  16.3082020  13.1539540  63.9790840  17.0565710  13.8773090
  51.5795430   9.0437300  13.5890530  52.0834450   8.4644580  14.1606760
  50.8402850   9.3277530  14.1266900  58.6333370  10.4508290  13.1226050
  57.8679040  11.0193290  13.0380720  58.8149330  10.1584500  12.2294280
  65.7756720  12.1813620  13.6801070  66.5166190  12.5189380  13.1768530
  65.0129400  12.3505680  13.1270840  53.6118510   7.1866890  14.4840600
  53.6523850   6.8880760  15.3925830  54.4664010   7.5874500  14.3248120
  55.5524320   5.7658990  12.4515090  55.0220780   5.2749940  11.8238430
  56.2212390   6.1943190  11.9173020  64.4502380  10.2328450  12.2156280
  64.8643400  10.3873530  13.0646700  63.5153380  10.3583670  12.3782060
  64.9224550   7.5724610  14.2195430  65.5045320   6.8176930  14.1315910
  65.0986320   8.1032050  13.4426910  56.0396620   2.7321360  12.5312380
  55.9453490   2.1142110  11.8063250  55.4594010   3.4587650  12.3042290
  59.2117610  10.1848930  10.1852210  59.6305720  11.0281660  10.0128450
  58.2926240  10.3220970   9.9558990  61.5481510   7.9165110  11.5690050
  61.6677720   7.3206250  12.3084890  62.4075510   7.9534800  11.1491350
  63.8869410   8.4702300  10.1452560  63.3604630   8.9944920   9.5417700
  64.2300750   9.1029690  10.7762290  57.0625030  16.4901940  11.3009940
  56.5246120  17.2148000  10.9818640  57.3158990  16.0132280  10.5107280
  58.3150280   4.4586460  12.8265870  58.9049970   4.1502310  13.5143690
  57.4970520   3.9866210  12.9825770  63.1343710   4.0752270  13.0598890
  62.4459230   3.4133810  12.9948880  63.8549730   3.6290540  13.5047350
  59.9187240  17.7253150  11.5596590  59.8445940  18.6288290  11.8668960
  59.0166080  17.4065050  11.5318660  51.3214530  15.0527740   4.8630210
  51.6517540  14.1848800   4.6308850  51.7505530  15.2586260   5.6935170
  55.9176450  13.3836750   2.5232180  55.6171990  13.2601720   3.4236090
  55.8113940  12.5245340   2.1147910  51.8104740  15.9198330   7.6011840
  51.3735730  16.0999130   8.4335990  52.3782420  16.6772950   7.4593560
  67.4466920  15.4215330  11.8889150  66.8468910  15.4807890  11.1453070
  67.5760820  14.4820310  12.0186000  51.6429170   8.4318560   3.9600720
  50.9878010   8.1630200   3.3160420  52.4807120   8.3223040   3.5102700
  69.1484800  10.7630730   4.5734990  69.5193630   9.9798050   4.1670960
  69.7886730  11.4519830   4.3952290  66.1318560  12.1467310   9.9865310
  65.3178400  12.5764470  10.2491100  66.5392760  12.7585720   9.3734360
  68.0909340   8.1383990   1.8795010  67.7152940   7.3711920   1.4476300
  67.3612460   8.5206690   2.3669940  52.6805100   8.8171130   8.5004060
  53.0478140   8.7298530   9.3800080  52.1115920   8.0537680   8.4010920
  67.4808960   7.2855510  11.5134530  67.2495050   7.0568260  10.6132480
  67.7413510   8.2055060  11.4679420  52.2321100   5.7280220  12.4062480
  51.3377150   5.6946980  12.7456190  52.7718650   5.9267010  13.1713730
  65.9197030   2.5111940  14.2914230  66.7967210   2.5195340  14.6748230
  65.9317870   1.7742780  13.6806580  67.3660300   6.3641480   5.1802250
  67.8897780   5.8704130   4.5492420  67.9519720   6.4991840   5.9249820
  67.5450020   6.4481350   8.7021800  66.5952730   6.4144890   8.8166790
  67.7263030   7.3581460   8.4671570  68.2847430   4.2575780   3.6532340
  68.1746710   4.1031820   4.5914610  69.0455020   3.7296720   3.4107750
  66.1894610  16.8985910   3.5133580  66.7853680  16.5770480   2.8368000
  66.4472760  16.4257730   4.3046850  54.0957180  13.3303820  13.6624210
  54.0526810  12.9596730  14.5438670  54.2268190  14.2681390  13.8026030
  57.7963210  14.8863410   9.2633930  57.5554570  15.1537970   8.3764450
  58.7365850  15.0569140   9.3184790  69.0567370  16.9057790  10.0644570
  68.5625650  17.3026660   9.3471700  68.4480660  16.2807000  10.4581850
  53.9345210  16.2766070  10.7821990  53.3405530  16.1450770  11.5212030
  53.9269050  15.4404210  10.3164090  66.7406820  17.5481210   7.3431310
  66.2809790  18.2997020   6.9689330  66.1119280  16.8287680   7.2846110
  53.5657440  13.6424450   9.7330030  52.8391500  13.0229740   9.6655980
  53.6266590  14.0365060   8.8628110  57.1702540  15.8569450   6.5179440
  57.6867560  15.2456810   5.9927700  57.8199920  16.3598230   7.0090450
  59.9098040  16.7477940   7.3448420  60.1975850  16.4932240   6.4681430
  60.4221260  16.1955300   7.9353990  51.8487440  16.9598840   2.9426790
  51.6809480  16.3269520   3.6408680  50.9821950  17.1658240   2.5920980
  59.0129270   2.9054890   3.4360960  58.2003780   2.5311780   3.0956840
  59.5170910   2.1499970   3.7382150  59.9770400  17.6694040  14.7116620
  60.9037710  17.4338310  14.7552580  59.9620830  18.4966040  14.2302650
  66.5447960  16.8963900  14.5357660  67.3373280  16.4013130  14.3283620
  66.8381110  17.5754040  15.1433270  43.8964130  82.8658800  60.5147670
  43.8158180  81.9513410  60.2439380  43.4828550  83.3625870  59.8087380
  42.0282170  84.6437820  62.3956940  41.2524270  84.1638260  62.6855510
  42.6795100  83.9643470  62.2213100  36.0448000  84.9557630  63.2732700
  35.2132880  84.7006340  63.6729210  36.6528980  85.0268400  64.0090620
  46.0489600  89.0498010  61.1756070  45.5871130  88.2785250  61.5043240
  46.8615150  89.0764080  61.6808520  36.0249260  88.9897720  63.4690720
  36.3277300  88.0995460  63.2900940  36.7692850  89.5467940  63.2412970
  34.4539950  79.9159520  57.0575090  33.5656650  80.2575490  56.9554970
  34.7381140  79.7159840  56.1655920  32.4172960  82.5165170  62.9414790
  32.9889070  81.7487370  62.9418430  32.4174500  82.8153930  62.0321400
  41.4691160  87.3195010  62.4027100  41.3999440  86.3784950  62.2416230
  42.2311020  87.4096420  62.9749670  33.6597830  77.9249530  64.7283720
  33.4800670  77.0275280  65.0086480  33.2577910  78.4721400  65.4030670
  42.4996330  80.1265390  62.6296030  42.8761150  79.2537270  62.5169700
  42.4015840  80.4624090  61.7386470  36.6301340  78.4991020  58.0913470
  36.7368090  79.3994750  58.3982230  35.7193700  78.4508990  57.8008120
  46.2820450  77.6215830  59.5624370  47.1030070  77.1312400  59.6049850
  46.3154530  78.2113490  60.3156210  34.2784500  80.4210030  63.3366060
  34.9594610  80.6848400  63.9553460  33.9632550  79.5810900  63.6704070
  38.4709070  81.4677390  62.4238650  38.9787290  81.9658360  63.0643670
  39.0022310  80.6912590  62.2478010  43.1416260  86.2195260  58.1891970
  42.5233530  86.6844710  57.6254690  43.6539510  86.9122740  58.6061480
  38.0048020  85.7471130  64.8675570  37.6717400  86.3740050  65.5096640
  38.1814700  86.2733010  64.0877240  46.5181930  79.5616210  62.3351910
  45.8137500  79.8501100  62.9155020  46.8794090  80.3716320  61.9751470
  36.4360500  77.8185910  64.6972520  36.7777310  78.6627960  64.4026390
  35.4976310  77.9669650  64.8137860  32.5099460  86.9051790  55.5631600
  32.1327440  87.3938890  54.8316500  32.7672530  87.5777070  56.1938130
  48.1344710  89.1791340  64.5979390  47.4508230  89.8490450  64.5896060
  48.6739000  89.3771990  63.8324250  49.5868850  79.0071000  62.7261120
  48.6393760  79.0409980  62.8576550  49.9118840  79.8209950  63.1110480
  40.1188390  75.3068180  61.0217110  40.4263370  74.7515070  60.3052610
  39.1889090  75.4412640  60.8390100  46.9648870  87.7451690  58.4014740
  46.8545200  86.8026020  58.5264160  46.9617120  88.1067330  59.2877500
  45.0688890  85.9265310  64.6407180  45.4857680  85.7125420  63.8060640
  45.7928710  86.1838100  65.2115800  42.5069150  83.3717010  57.7577230
  41.5798430  83.3054390  57.9865700  42.6593970  84.3097140  57.6432470
  42.4938230  79.6434010  54.7544390  41.5541900  79.8047970  54.8396850
  42.8121490  80.3619690  54.2080380  49.0150990  84.3252530  64.7323420
  48.1869620  84.3945620  64.2573550  49.6101470  84.9106840  64.2639250
  46.5366440  84.9337310  58.2612480  45.9178860  84.5956860  57.6138780
  46.5190890  84.2897070  58.9691670  45.9793000  81.1121850  65.6778290
  45.5664180  81.9375560  65.9318280  45.2468950  80.5266890  65.4854650
  38.1125790  83.8981750  60.5396960  37.7082790  83.1859000  60.0442860
  38.1988910  83.5534990  61.4285000  38.5807490  87.5849310  62.7036170
  38.2835780  86.9794780  62.0243950  39.5307310  87.6226620  62.5925530
  36.8254410  80.6724960  64.3196000  37.3769000  80.7820300  63.5449250
  37.3397920  81.0462560  65.0351230  44.7131140  84.1724120  55.2685230
  45.1524420  83.3346550  55.1223050  45.4259560  84.8053520  55.3549370
  42.8226520  89.1120190  59.2366470  43.2622430  89.8544520  58.8221860
  42.7613410  89.3546760  60.1605430  48.2948280  75.4266930  53.5826270
  47.9820940  75.5193760  54.4825340  49.0560750  76.0047960  53.5323700
  34.8130420  82.7926730  58.0403610  34.6928020  83.5188820  57.4284880
  34.5031310  82.0229640  57.5631520  32.4515790  85.9641870  63.8472250
  32.5296210  86.0990640  62.9027970  33.0657470  85.2557760  64.0400370
  33.6963420  87.6642060  60.2578430  33.2891500  87.8056650  59.4032030
  34.5876430  87.3802220  60.0549640  45.1922830  89.6076870  55.1527480
  44.4987990  89.6054160  54.4929760  45.9345690  89.1836190  54.7221650
  37.2794080  76.1361800  61.4227280  36.8362230  76.9171340  61.0911800
  37.8379070  76.4591690  62.1298220  40.3952900  75.7572500  56.3033110
  39.7707080  75.7532370  57.0286420  40.3083020  74.8903460  55.9069080
  39.3169980  76.6809130  63.2816880  39.6142310  77.5871960  63.2008900
  39.8655540  76.1927910  62.6676450  37.0708300  81.2595370  59.1508530
  36.8449220  81.0432540  60.0555150  36.2900830  81.6923830  58.8054500
  44.3006060  81.2658740  57.7499180  43.7014950  81.9894540  57.5662800
  44.8485670  81.2035520  56.9675630  42.9070930  79.9022280  59.7802460
  43.3000500  80.2194480  58.9671150  43.2687780  79.0234160  59.8946980
  31.9435100  76.4923080  62.0032660  31.6548150  77.0625940  62.7157640
  32.6880860  76.0127530  62.3663890  32.1305330  80.4343200  53.2135380
  32.0480000  81.3773960  53.3550370  31.7788390  80.2918110  52.3347730
  43.4926070  82.4928030  63.8753240  42.7607190  83.0014840  64.2243340
  43.0950410  81.6758010  63.5742020  39.9303460  79.1682230  62.2805730
  39.9339520  78.7272180  61.4310270  40.8254580  79.4899560  62.3877550
  35.7805840  79.0508720  61.2399940  35.4405890  79.5283950  61.9966990
  35.0183160  78.5973840  60.8801040  39.9923610  80.1694310  55.2712490
  40.1136430  80.1280790  56.2198310  39.6072120  81.0318460  55.1159220
  43.9551980  77.9461710  63.2876180  43.9724720  78.3970360  64.1318030
  43.7067560  77.0467350  63.5009620  39.0045110  82.4795450  54.6695790
  38.4362010  82.0313700  54.0431700  39.7134110  82.8388230  54.1360940
  40.2311430  83.2284010  64.0271140  40.5981560  82.7542580  64.7732480
  40.0416490  84.1025580  64.3679480  33.0951920  77.9727700  60.1564610
  32.8098840  77.6083370  60.9943230  33.0330780  77.2408160  59.5427750
  36.5492590  86.4753640  56.9422200  35.7754850  85.9351260  56.7820920
  37.2787220  85.9560250  56.6039960  47.3080570  85.4719000  62.7348590
  48.0279690  85.9674290  62.3444700  47.1062390  84.7936890  62.0902460
  42.7690510  76.8656960  56.8777980  41.9555120  76.3670130  56.8023290
  42.5752460  77.7055210  56.4614330  45.4838900  81.2376610  55.1740140
  46.3718520  81.5493840  54.9991480  45.4543990  80.3648860  54.7820720
  36.5929990  86.1434020  60.5801010  37.1108660  85.3402280  60.5257900
  36.1414010  86.0813160  61.4217840  41.4799490  87.4100300  55.8528310
  41.8215190  88.1542530  55.3571630  40.6512200  87.7231420  56.2153140
  47.7553170  82.5488450  54.6420000  47.6716890  82.9802670  53.7916440
  48.4747360  83.0086800  55.0746820  48.7840420  89.4030710  57.3702130
  48.1416580  88.7486330  57.6445850  48.3971080  89.8085800  56.5942800
  44.3626900  86.7316140  61.2173820  44.7150720  86.1344270  60.5575190
  43.4789230  86.4060370  61.3882070  40.4490180  87.4913830  58.6244230
  41.1361310  88.0383040  59.0051820  39.6622600  88.0354560  58.6593840
  32.5882580  83.1086650  54.1161310  33.4577430  83.3911450  54.3997230
  32.0972900  83.9222520  54.0010120  39.7517390  84.4959860  58.2369590
  40.2080170  85.3065110  58.4629780  39.4005600  84.1783000  59.0688080
  42.0550000  90.0066200  65.4661890  42.6992220  90.2125580  66.1435310
  42.4179440  89.2454600  65.0132740  35.6529170  74.8397510  58.7092110
  35.5243800  74.8315410  59.6577030  34.8291190  75.1780600  58.3583120
  43.3282080  88.0098550  64.1839340  43.9704310  87.3091710  64.2971510
  43.8531430  88.7896990  64.0036230  47.1737800  88.2947170  53.9078480
  46.9475380  87.5777610  54.5003120  46.7834000  88.0459610  53.0700230
  46.7554050  86.2119110  55.5692640  46.4675750  86.6731800  56.3570520
  47.5506220  85.7516880  55.8376860  38.9722450  89.7045230  55.4996610
  38.9632550  90.4374920  54.8841120  38.0520810  89.4576810  55.5923570
  34.5729090  84.9260120  56.2443370  33.9657040  85.6659020  56.2538670
  35.0478440  85.0159480  55.4181570  44.1461880  79.0910940  65.9200260
  44.5142700  78.2706150  66.2479830  43.2860080  79.1512830  66.3355910
  47.5123910  78.0467880  56.7287820  46.8837070  78.1513550  56.0146050
  47.0175830  78.2664660  57.5181700  41.9582050  89.7673470  54.1621800
  42.0594030  89.5637460  53.2323780  41.0583790  89.5131750  54.3669580
  39.4807940  80.3253830  58.1445700  38.7724090  80.7940170  58.5859310
  39.7652420  79.6675840  58.7790890  43.5123370  77.0504490  59.5841490
  43.3891150  77.0690620  58.6351000  44.4607930  77.0983430  59.7039890
  37.6842960  78.6338910  55.5196410  38.5333490  79.0709060  55.4536600
  37.3174230  78.9459170  56.3468470  46.6052740  83.2051670  60.4327980
  45.6642880  83.2201900  60.6075670  46.9196810  82.4187630  60.8788280
  36.5834380  84.8871270  53.9931940  37.3497650  84.7752630  54.5557370
  36.6609070  84.1909240  53.3408710  35.2781140  82.3196340  54.6764830
  35.3584730  81.3723850  54.7882230  36.1700890  82.6503220  54.7825490
  32.9641330  88.5365300  57.6540880  32.0381110  88.7786440  57.6446290
  33.4297760  89.3639560  57.5325630  39.7075560  86.8625450  53.4667290
  39.6026200  86.2477800  54.1928670  39.5399780  86.3391340  52.6830300
  42.9478290  85.9245480  54.0709280  42.3988390  86.3714780  54.7152020
  43.5697550  85.4194730  54.5946950  38.6153410  84.8836400  55.9674580
  39.0369830  84.7176270  56.8105970  38.7404250  84.0736630  55.4729720
  41.1281050  83.9074010  53.2151680  41.6486710  83.1923030  52.8492830
  41.7749450  84.5459880  53.5152190  40.0314570  76.3868560  65.8870240
  39.5831870  76.4092820  65.0415790  39.3979770  75.9887580  66.4840540
  40.4374120  85.2822890  66.5082680  40.8562230  86.1255620  66.3358920
  39.5182750  85.4194930  66.2789460  37.5112310  80.9569630  52.9132740
  37.3101370  80.0936990  53.2746080  37.3404360  80.8702990  51.9754340
  44.9900620  75.7677860  55.4419620  45.2702910  74.9245760  55.7979040
  44.2166350  76.0000970  55.9558370  36.3095110  78.0570250  52.9010620
  36.6121010  78.0637680  51.9929770  37.0489700  77.7068110  53.3978280
  39.5280040  77.0004870  53.8866820  39.1802040  76.3228860  53.3069270
  39.7292810  76.5394380  54.7010210  35.3325240  87.3612670  53.7340420
  35.7700110  87.9042340  54.3898000  35.8172970  86.5359620  53.7436760
  32.5471040  90.1501700  61.1860680  32.8774050  89.2822760  60.9539320
  32.9762040  90.3560220  62.0165640  37.1432960  88.4810710  58.8462650
  36.8428500  88.3575680  59.7466560  37.0370450  87.6219300  58.4378380
  49.9124880  88.2607110  53.5489330  49.0817840  88.3283760  54.0196560
  50.0896710  89.1511230  53.2456190  49.3681340  85.0054590  56.0523530
  50.1300250  85.5751240  56.1583220  49.3835710  84.4381790  56.8231840
  32.8685680  83.5292520  60.2831190  32.2134520  83.2604160  59.6390890
  33.7063630  83.4197000  59.8333170  50.3741310  85.8604690  60.8965460
  50.7450140  85.0772010  60.4901430  51.0143240  86.5493790  60.7182760
  49.4200510  85.2988960  53.2096050  49.6949350  86.2067840  53.0815270
  49.2311250  85.2351490  54.1458040  45.8176120  78.3233810  54.5049680
  46.2361000  78.1364790  53.6646340  45.5112180  77.4712860  54.8152610
  49.3165850  83.2357950  58.2025480  48.9409450  82.4685880  57.7706770
  48.5868970  83.6180650  58.6900410  33.9061610  83.9145090  64.8234530
  34.2734650  83.8272490  65.7030550  33.3372430  83.1511640  64.7241390
  32.0823760  80.7391450  56.2256520  31.1787840  81.0021650  56.0508180
  32.5664380  81.0102620  55.4456480  48.5916810  81.4615440  61.5032720
  49.1154290  80.9678090  60.8722890  49.1776230  81.5965800  62.2480290
  48.7706530  81.5455310  65.0252270  47.8209240  81.5118850  65.1397260
  48.9519540  82.4555420  64.7902040  34.6250970  79.7956990  54.1350900
  35.3342670  79.3740210  53.6498180  33.9090910  79.8632220  53.5034250
  34.2725130  75.8496320  53.1753550  34.9953260  76.3905260  53.4934770
  34.5449650  75.5759740  52.2995090  48.0816780  80.7188790  57.4425130
  48.5775900  80.4859660  58.2274010  47.8832850  79.8800630  57.0262770
  33.9617320  75.1002510  63.0776170  34.6093510  74.5499890  62.6371330
  34.3819160  75.3545660  63.8991980  49.5103940  79.3549740  59.9762810
  49.4003220  79.2005780  60.9145080  50.2711530  78.8270680  59.7338220
  50.3994210  77.1857660  53.2168950  51.3243520  77.0538840  53.0087240
  50.3770000  77.2650480  54.1705400  50.4732700  77.9568320  55.8425660
  49.6784200  77.8913440  56.3718570  50.6775980  78.8918960  55.8311010
  39.0219720  89.9837370  65.5864400  38.7811080  90.2511930  64.6994920
  39.9622360  90.1543100  65.6415260  44.6056740  74.6672260  65.3082490
  43.7316580  75.0007370  65.1055420  44.4967490  74.1945440  66.1334360
  34.7913950  88.7398410  66.0560500  34.0648010  88.1203700  65.9886450
  34.8523100  89.1339020  65.1858580  42.3531560  75.5842100  64.2475400
  41.5703350  76.0587600  64.5272160  42.0594490  74.6796930  64.1388580
  46.9052630  76.2865200  62.2924490  47.3460720  76.2310300  61.4446090
  46.6360220  77.2023210  62.3634670  48.7691200  75.9180440  60.3033310
  48.7079600  74.9741660  60.1564330  49.5483230  76.0260530  60.8486770
  33.6971970  75.8889580  56.7689120  34.4551330  76.0018460  56.1953150
  33.2349140  76.7258780  56.7232550  40.2385780  78.0028850  59.7591430
  39.4260290  77.6285740  59.4187310  40.7427420  77.2473930  60.0612620
  44.7410760  74.6671300  60.9974500  45.3440130  75.2391510  61.4723020
  44.0003750  75.2310740  60.7748400  47.8845360  75.0692860  56.2714780
  48.0795990  75.9676310  56.5382210  47.0975230  74.8379940  56.7647730
  36.0697120  76.4153630  55.3091090  36.5989880  75.6283430  55.1799040
  36.7025440  77.0944820  55.5426620  38.2634960  76.1528770  58.3636480
  37.6337700  75.4516080  58.5306610  37.7240100  76.9132900  58.1469640
  36.4414410  88.8153140  55.5902980  35.8123290  89.2838240  56.1388810
  36.5562240  87.9702360  56.0249170  43.8964130  82.8658800  41.7404180
  43.8158180  81.9513410  41.4695890  43.4828550  83.3625870  41.0343890
  42.0282170  84.6437820  43.6213450  41.2524270  84.1638260  43.9112020
  42.6795100  83.9643470  43.4469610  36.0448000  84.9557630  44.4989210
  35.2132880  84.7006340  44.8985720  36.6528980  85.0268400  45.2347130
  46.0489600  89.0498010  42.4012580  45.5871130  88.2785250  42.7299750
  46.8615150  89.0764080  42.9065030  36.0249260  88.9897720  44.6947230
  36.3277300  88.0995460  44.5157450  36.7692850  89.5467940  44.4669480
  34.4539950  79.9159520  38.2831600  33.5656650  80.2575490  38.1811480
  34.7381140  79.7159840  37.3912430  32.4172960  82.5165170  44.1671300
  32.9889070  81.7487370  44.1674940  32.4174500  82.8153930  43.2577910
  41.4691160  87.3195010  43.6283610  41.3999440  86.3784950  43.4672740
  42.2311020  87.4096420  44.2006180  33.6597830  77.9249530  45.9540230
  33.4800670  77.0275280  46.2342990  33.2577910  78.4721400  46.6287180
  42.4996330  80.1265390  43.8552540  42.8761150  79.2537270  43.7426210
  42.4015840  80.4624090  42.9642980  36.6301340  78.4991020  39.3169980
  36.7368090  79.3994750  39.6238740  35.7193700  78.4508990  39.0264630
  46.2820450  77.6215830  40.7880880  47.1030070  77.1312400  40.8306360
  46.3154530  78.2113490  41.5412720  34.2784500  80.4210030  44.5622570
  34.9594610  80.6848400  45.1809970  33.9632550  79.5810900  44.8960580
  38.4709070  81.4677390  43.6495160  38.9787290  81.9658360  44.2900180
  39.0022310  80.6912590  43.4734520  50.5720000  79.6382580  47.3524510
  49.8672170  80.0264290  46.8339620  50.8377920  80.3332870  47.9545440
  36.7545170  76.1075950  47.9158580  36.7563610  76.6248340  47.1104480
  35.9249480  75.6306130  47.8928510  43.1416260  86.2195260  39.4148480
  42.5233530  86.6844710  38.8511200  43.6539510  86.9122740  39.8317990
  38.0048020  85.7471130  46.0932080  37.6717400  86.3740050  46.7353150
  38.1814700  86.2733010  45.3133750  46.5181930  79.5616210  43.5608420
  45.8137500  79.8501100  44.1411530  46.8794090  80.3716320  43.2007980
  36.4360500  77.8185910  45.9229030  36.7777310  78.6627960  45.6282900
  35.4976310  77.9669650  46.0394370  37.2167120  87.7151930  47.9081260
  37.8341120  88.3903010  47.6265710  36.3560240  88.1239910  47.8168760
  32.5099460  86.9051790  36.7888110  32.1327440  87.3938890  36.0573010
  32.7672530  87.5777070  37.4194640  48.1344710  89.1791340  45.8235900
  47.4508230  89.8490450  45.8152570  48.6739000  89.3771990  45.0580760
  49.5868850  79.0071000  43.9517630  48.6393760  79.0409980  44.0833060
  49.9118840  79.8209950  44.3366990  40.1188390  75.3068180  42.2473620
  40.4263370  74.7515070  41.5309120  39.1889090  75.4412640  42.0646610
  46.9648870  87.7451690  39.6271250  46.8545200  86.8026020  39.7520670
  46.9617120  88.1067330  40.5134010  45.0688890  85.9265310  45.8663690
  45.4857680  85.7125420  45.0317150  45.7928710  86.1838100  46.4372310
  42.5069150  83.3717010  38.9833740  41.5798430  83.3054390  39.2122210
  42.6593970  84.3097140  38.8688980  42.4938230  79.6434010  35.9800900
  41.5541900  79.8047970  36.0653360  42.8121490  80.3619690  35.4336890
  49.0150990  84.3252530  45.9579930  48.1869620  84.3945620  45.4830060
  49.6101470  84.9106840  45.4895760  46.5366440  84.9337310  39.4868990
  45.9178860  84.5956860  38.8395290  46.5190890  84.2897070  40.1948180
  45.9793000  81.1121850  46.9034800  45.5664180  81.9375560  47.1574790
  45.2468950  80.5266890  46.7111160  38.1125790  83.8981750  41.7653470
  37.7082790  83.1859000  41.2699370  38.1988910  83.5534990  42.6541510
  38.5807490  87.5849310  43.9292680  38.2835780  86.9794780  43.2500460
  39.5307310  87.6226620  43.8182040  36.8254410  80.6724960  45.5452510
  37.3769000  80.7820300  44.7705760  37.3397920  81.0462560  46.2607740
  37.6725920  87.3231000  50.5800480  36.7754450  87.5470970  50.8273880
  37.6978790  87.4465940  49.6311880  44.7131140  84.1724120  36.4941740
  45.1524420  83.3346550  36.3479560  45.4259560  84.8053520  36.5805880
  36.4997140  84.1944320  49.1557850  36.3604910  85.0667120  49.5245250
  35.6178500  83.8517130  49.0105790  42.8226520  89.1120190  40.4622980
  43.2622430  89.8544520  40.0478370  42.7613410  89.3546760  41.3861940
  38.2977490  90.1366020  51.3643000  38.2692920  90.5408970  50.4971430
  38.1342460  89.2076380  51.2014600  48.2948280  75.4266930  34.8082780
  47.9820940  75.5193760  35.7081850  49.0560750  76.0047960  34.7580210
  34.8130420  82.7926730  39.2660120  34.6928020  83.5188820  38.6541390
  34.5031310  82.0229640  38.7888030  32.4515790  85.9641870  45.0728760
  32.5296210  86.0990640  44.1284480  33.0657470  85.2557760  45.2656880
  33.6963420  87.6642060  41.4834940  33.2891500  87.8056650  40.6288540
  34.5876430  87.3802220  41.2806150  49.6525560  88.1105970  49.8207180
  49.7788620  87.8717850  48.9024360  49.6946940  87.2790510  50.2929260
  45.1922830  89.6076870  36.3783990  44.4987990  89.6054160  35.7186270
  45.9345690  89.1836190  35.9478160  49.5049570  80.1638430  50.7856920
  48.8893840  80.6718100  50.2572380  49.1845990  79.2636760  50.7282860
  32.5075310  87.0056040  47.6123220  32.6706350  86.5361400  46.7942590
  32.9727760  86.4979600  48.2772060  37.2794080  76.1361800  42.6483790
  36.8362230  76.9171340  42.3168310  37.8379070  76.4591690  43.3554730
  41.5663890  79.0030320  48.2519110  41.1043260  79.2113340  49.0639050
  41.1642000  78.1889670  47.9489780  46.5668400  80.2239270  49.3815770
  45.7161990  79.9245020  49.7024840  46.4070190  80.4681280  48.4699590
  43.6618110  81.7241020  51.4814560  43.9871520  80.8904770  51.1416790
  44.4498440  82.2469540  51.6292890  40.3952900  75.7572500  37.5289620
  39.7707080  75.7532370  38.2542930  40.3083020  74.8903460  37.1325590
  39.3169980  76.6809130  44.5073390  39.6142310  77.5871960  44.4265410
  39.8655540  76.1927910  43.8932960  37.0708300  81.2595370  40.3765040
  36.8449220  81.0432540  41.2811660  36.2900830  81.6923830  40.0311010
  44.3006060  81.2658740  38.9755690  43.7014950  81.9894540  38.7919310
  44.8485670  81.2035520  38.1932140  39.5107510  82.1580950  51.0425310
  39.4151110  81.2175680  50.8925710  40.3539490  82.3796020  50.6473380
  42.9070930  79.9022280  41.0058970  43.3000500  80.2194480  40.1927660
  43.2687780  79.0234160  41.1203490  34.6418050  78.5694620  49.1959090
  34.2481440  79.4169830  49.4031870  33.9536450  77.9320990  49.3867730
  41.2163100  78.6529590  52.2655830  40.5261420  78.4601790  52.9001920
  41.9595400  78.9364230  52.7980130  31.9435100  76.4923080  43.2289170
  31.6548150  77.0625940  43.9414150  32.6880860  76.0127530  43.5920400
  32.1305330  80.4343200  34.4391890  32.0480000  81.3773960  34.5806880
  31.7788390  80.2918110  33.5604240  43.4926070  82.4928030  45.1009750
  42.7607190  83.0014840  45.4499850  43.0950410  81.6758010  44.7998530
  39.9303460  79.1682230  43.5062240  39.9339520  78.7272180  42.6566780
  40.8254580  79.4899560  43.6134060  35.7805840  79.0508720  42.4656450
  35.4405890  79.5283950  43.2223500  35.0183160  78.5973840  42.1057550
  39.9923610  80.1694310  36.4969000  40.1136430  80.1280790  37.4454820
  39.6072120  81.0318460  36.3415730  43.9551980  77.9461710  44.5132690
  43.9724720  78.3970360  45.3574540  43.7067560  77.0467350  44.7266130
  39.0045110  82.4795450  35.8952300  38.4362010  82.0313700  35.2688210
  39.7134110  82.8388230  35.3617450  47.3822730  75.3593890  50.3519070
  47.7068500  74.6283550  50.8777050  47.4179240  75.0407530  49.4500060
  34.0814290  86.3807470  49.7719030  33.6969080  85.7401140  50.3701990
  34.3926480  87.0843590  50.3413760  40.2311430  83.2284010  45.2527650
  40.5981560  82.7542580  45.9988990  40.0416490  84.1025580  45.5935990
  33.0951920  77.9727700  41.3821120  32.8098840  77.6083370  42.2199740
  33.0330780  77.2408160  40.7684260  38.0210800  82.2692650  47.5711860
  37.7167870  83.1484630  47.7962220  38.9757260  82.3292440  47.6069300
  36.5492590  86.4753640  38.1678710  35.7754850  85.9351260  38.0077430
  37.2787220  85.9560250  37.8296470  47.3080570  85.4719000  43.9605100
  48.0279690  85.9674290  43.5701210  47.1062390  84.7936890  43.3158970
  42.7690510  76.8656960  38.1034490  41.9555120  76.3670130  38.0279800
  42.5752460  77.7055210  37.6870840  42.6899370  85.5428060  49.8474100
  42.6236680  84.6223730  49.5931690  42.0604510  85.6403500  50.5618740
  45.4838900  81.2376610  36.3996650  46.3718520  81.5493840  36.2247990
  45.4543990  80.3648860  36.0077230  36.5929990  86.1434020  41.8057520
  37.1108660  85.3402280  41.7514410  36.1414010  86.0813160  42.6474350
  41.4799490  87.4100300  37.0784820  41.8215190  88.1542530  36.5828140
  40.6512200  87.7231420  37.4409650  34.0774530  83.1095390  48.7183220
  33.7189470  83.7749240  49.3056560  33.7829090  82.2778940  49.0895840
  37.2787650  83.5679630  51.6022770  36.9787790  83.7136810  50.7050590
  38.0498890  83.0084920  51.5096160  42.6216100  88.3648630  49.5977900
  42.6360640  87.4329590  49.3796810  41.9141200  88.4508390  50.2367670
  47.7553170  82.5488450  35.8676510  47.6716890  82.9802670  35.0172950
  48.4747360  83.0086800  36.3003330  48.8327310  85.0055970  48.9446480
  48.1075500  85.5984750  48.7475870  49.3602770  84.9979510  48.1459850
  48.7840420  89.4030710  38.5958640  48.1416580  88.7486330  38.8702360
  48.3971080  89.8085800  37.8199310  44.3626900  86.7316140  42.4430330
  44.7150720  86.1344270  41.7831700  43.4789230  86.4060370  42.6138580
  40.4490180  87.4913830  39.8500740  41.1361310  88.0383040  40.2308330
  39.6622600  88.0354560  39.8850350  32.5882580  83.1086650  35.3417820
  33.4577430  83.3911450  35.6253740  32.0972900  83.9222520  35.2266630
  39.7517390  84.4959860  39.4626100  40.2080170  85.3065110  39.6886290
  39.4005600  84.1783000  40.2944590  42.0550000  90.0066200  46.6918400
  42.6992220  90.2125580  47.3691820  42.4179440  89.2454600  46.2389250
  35.6529170  74.8397510  39.9348620  35.5243800  74.8315410  40.8833540
  34.8291190  75.1780600  39.5839630  43.3282080  88.0098550  45.4095850
  43.9704310  87.3091710  45.5228020  43.8531430  88.7896990  45.2292740
  47.1737800  88.2947170  35.1334990  46.9475380  87.5777610  35.7259630
  46.7834000  88.0459610  34.2956740  45.1019700  88.8093450  48.6131910
  45.4375940  89.3960140  49.2909830  44.1820040  88.6786160  48.8429700
  32.6523100  76.5988630  49.3955320  31.9381620  76.7985550  50.0007930
  33.0718140  75.8228200  49.7670120  46.7554050  86.2119110  36.7949150
  46.4675750  86.6731800  37.5827030  47.5506220  85.7516880  37.0633370
  32.9395690  90.5868890  50.3821850  33.0486810  89.6463630  50.2417240
  32.2876250  90.8523640  49.7335580  40.9308280  88.8584780  51.7819970
  40.6105150  88.1394020  52.3265660  40.2566640  89.5339850  51.8556030
  38.9722450  89.7045230  36.7253120  38.9632550  90.4374920  36.1097630
  38.0520810  89.4576810  36.8180080  34.5729090  84.9260120  37.4699880
  33.9657040  85.6659020  37.4795180  35.0478440  85.0159480  36.6438080
  44.1461880  79.0910940  47.1456770  44.5142700  78.2706150  47.4736340
  43.2860080  79.1512830  47.5612420  47.5123910  78.0467880  37.9544330
  46.8837070  78.1513550  37.2402560  47.0175830  78.2664660  38.7438210
  41.9582050  89.7673470  35.3878310  42.0594030  89.5637460  34.4580290
  41.0583790  89.5131750  35.5926090  39.4807940  80.3253830  39.3702210
  38.7724090  80.7940170  39.8115820  39.7652420  79.6675840  40.0047400
  41.1063870  81.7450530  47.3694740  41.6049120  82.2196350  48.0346590
  41.2486820  80.8214050  47.5764770  43.5123370  77.0504490  40.8098000
  43.3891150  77.0690620  39.8607510  44.4607930  77.0983430  40.9296400
  37.6842960  78.6338910  36.7452920  38.5333490  79.0709060  36.6793110
  37.3174230  78.9459170  37.5724980  48.3130730  77.9618490  48.2123130
  47.8104330  78.7023890  48.5516940  49.1287390  78.3502490  47.8959920
  46.6052740  83.2051670  41.6584490  45.6642880  83.2201900  41.8332180
  46.9196810  82.4187630  42.1044790  36.5834380  84.8871270  35.2188450
  37.3497650  84.7752630  35.7813880  36.6609070  84.1909240  34.5665220
  35.2781140  82.3196340  35.9021340  35.3584730  81.3723850  36.0138740
  36.1700890  82.6503220  36.0082000  32.9641330  88.5365300  38.8797390
  32.0381110  88.7786440  38.8702800  33.4297760  89.3639560  38.7582140
  43.9218760  87.7617670  52.1416870  43.3156920  87.7849270  51.4012620
  43.6172870  87.0300710  52.6784120  32.8051940  84.1411260  51.1377510
  33.3090960  83.5618540  51.7093740  32.0659360  84.4251490  51.6753880
  39.7075560  86.8625450  34.6923800  39.6026200  86.2477800  35.4185180
  39.5399780  86.3391340  33.9086810  39.8589880  85.5482250  50.6713030
  39.0935550  86.1167250  50.5867700  40.0405840  85.2558460  49.7781260
  42.9478290  85.9245480  35.2965790  42.3988390  86.3714780  35.9408530
  43.5697550  85.4194730  35.8203460  47.0013230  87.2787580  51.2288050
  47.7422700  87.6163340  50.7255510  46.2385910  87.4479640  50.6757820
  34.8375020  82.2840850  52.0327580  34.8780360  81.9854720  52.9412810
  35.6920520  82.6848460  51.8735100  38.6153410  84.8836400  37.1931090
  39.0369830  84.7176270  38.0362480  38.7404250  84.0736630  36.6986230
  36.7780830  80.8632950  50.0002070  36.2477290  80.3723900  49.3725410
  37.4468900  81.2917150  49.4660000  41.1281050  83.9074010  34.4408190
  41.6486710  83.1923030  34.0749340  41.7749450  84.5459880  34.7408700
  45.6758890  85.3302410  49.7643260  46.0899910  85.4847490  50.6133680
  44.7409890  85.4557630  49.9269040  46.1481060  82.6698570  51.7682410
  46.7301830  81.9150890  51.6802890  46.3242830  83.2006010  50.9913890
  37.2653130  77.8295320  50.0799360  37.1710000  77.2116070  49.3550230
  36.6850520  78.5561610  49.8529270  40.0314570  76.3868560  47.1126750
  39.5831870  76.4092820  46.2672300  39.3979770  75.9887580  47.7097050
  40.4374120  85.2822890  47.7339190  40.8562230  86.1255620  47.5615430
  39.5182750  85.4194930  47.5045970  42.7738020  83.0139070  49.1177030
  42.8934230  82.4180210  49.8571870  43.6332020  83.0508760  48.6978330
  45.1125920  83.5676260  47.6939540  44.5861140  84.0918880  47.0904680
  45.4557260  84.2003650  48.3249270  37.5112310  80.9569630  34.1389250
  37.3101370  80.0936990  34.5002590  37.3404360  80.8702990  33.2010850
  39.5406790  79.5560420  50.3752850  40.1306480  79.2476270  51.0630670
  38.7227030  79.0840170  50.5312750  44.3600220  79.1726230  50.6085870
  43.6715740  78.5107770  50.5435860  45.0806240  78.7264500  51.0534330
  44.9900620  75.7677860  36.6676130  45.2702910  74.9245760  37.0235550
  44.2166350  76.0000970  37.1814880  36.3095110  78.0570250  34.1267130
  36.6121010  78.0637680  33.2186280  37.0489700  77.7068110  34.6234790
  39.5280040  77.0004870  35.1123330  39.1802040  76.3228860  34.5325780
  39.7292810  76.5394380  35.9266720  35.3325240  87.3612670  34.9596930
  35.7700110  87.9042340  35.6154510  35.8172970  86.5359620  34.9693270
  32.5471040  90.1501700  42.4117190  32.8774050  89.2822760  42.1795830
  32.9762040  90.3560220  43.2422150  37.1432960  88.4810710  40.0719160
  36.8428500  88.3575680  40.9723070  37.0370450  87.6219300  39.6634890
  48.6723430  90.5189290  49.4376130  48.0725420  90.5781850  48.6940050
  48.8017330  89.5794270  49.5672980  49.9124880  88.2607110  34.7745840
  49.0817840  88.3283760  35.2453070  50.0896710  89.1511230  34.4712700
  49.3681340  85.0054590  37.2780040  50.1300250  85.5751240  37.3839730
  49.3835710  84.4381790  38.0488350  32.8685680  83.5292520  41.5087700
  32.2134520  83.2604160  40.8647400  33.7063630  83.4197000  41.0589680
  50.3741310  85.8604690  42.1221970  50.7450140  85.0772010  41.7157940
  51.0143240  86.5493790  41.9439270  47.3575070  87.2441270  47.5352290
  46.5434910  87.6738430  47.7978080  47.7649270  87.8559680  46.9221340
  49.4200510  85.2988960  34.4352560  49.6949350  86.2067840  34.3071780
  49.2311250  85.2351490  35.3714550  45.8176120  78.3233810  35.7306190
  46.2361000  78.1364790  34.8902850  45.5112180  77.4712860  36.0409120
  49.3165850  83.2357950  39.4281990  48.9409450  82.4685880  38.9963280
  48.5868970  83.6180650  39.9156920  33.9061610  83.9145090  46.0491040
  34.2734650  83.8272490  46.9287060  33.3372430  83.1511640  45.9497900
  48.7065470  82.3829470  49.0621510  48.4751560  82.1542220  48.1619460
  48.9670020  83.3029020  49.0166400  33.4577610  80.8254180  49.9549460
  32.5633660  80.7920940  50.2943170  33.9975160  81.0240970  50.7200710
  47.1453540  77.6085900  51.8401210  48.0223720  77.6169300  52.2235210
  47.1574380  76.8716740  51.2293560  32.0823760  80.7391450  37.4513030
  31.1787840  81.0021650  37.2764690  32.5664380  81.0102620  36.6712990
  48.5916810  81.4615440  42.7289230  49.1154290  80.9678090  42.0979400
  49.1776230  81.5965800  43.4736800  48.7706530  81.5455310  46.2508780
  47.8209240  81.5118850  46.3653770  48.9519540  82.4555420  46.0158550
  34.6250970  79.7956990  35.3607410  35.3342670  79.3740210  34.8754690
  33.9090910  79.8632220  34.7290760  34.2725130  75.8496320  34.4010060
  34.9953260  76.3905260  34.7191280  34.5449650  75.5759740  33.5251600
  48.0816780  80.7188790  38.6681640  48.5775900  80.4859660  39.4530520
  47.8832850  79.8800630  38.2519280  33.9617320  75.1002510  44.3032680
  34.6093510  74.5499890  43.8627840  34.3819160  75.3545660  45.1248490
  49.5103940  79.3549740  41.2019320  49.4003220  79.2005780  42.1401590
  50.2711530  78.8270680  40.9594730  47.8569660  75.2943870  47.6602320
  48.4941880  75.9078010  48.0261510  48.0044550  75.3304530  46.7151550
  50.3994210  77.1857660  34.4425460  51.3243520  77.0538840  34.2343750
  50.3770000  77.2650480  35.3961910  50.4732700  77.9568320  37.0682170
  49.6784200  77.8913440  37.5975080  50.6775980  78.8918960  37.0567520
  33.7149320  75.2558180  47.0458000  33.3664140  75.7122000  47.8116180
  33.3837020  74.3615310  47.1280430  35.3213690  88.4277780  51.2111190
  35.2783320  88.0570690  52.0925650  35.4524700  89.3655350  51.3513010
  39.0219720  89.9837370  46.8120910  38.7811080  90.2511930  45.9251430
  39.9622360  90.1543100  46.8671770  41.2274140  76.4470060  50.5677420
  41.1663030  77.0391890  51.3172830  42.1674520  76.3396020  50.4227680
  43.8648700  76.1040120  50.2069710  44.4789110  76.4219410  49.5450790
  44.4098260  75.6188710  50.8265570  34.3869960  74.7834380  50.3208770
  34.9352950  74.6022430  49.5574880  34.4525270  73.9928490  50.8565080
  44.6056740  74.6672260  46.5339000  43.7316580  75.0007370  46.3311930
  44.4967490  74.1945440  47.3590870  45.5128720  76.8743130  47.9180720
  45.1842080  76.0594890  47.5382450  46.4611020  76.8312940  47.7946410
  34.7913950  88.7398410  47.2817010  34.0648010  88.1203700  47.2142960
  34.8523100  89.1339020  46.4115090  42.3531560  75.5842100  45.4731910
  41.5703350  76.0587600  45.7528670  42.0594490  74.6796930  45.3645090
  46.9052630  76.2865200  43.5181000  47.3460720  76.2310300  42.6702600
  46.6360220  77.2023210  43.5891180  48.7691200  75.9180440  41.5289820
  48.7079600  74.9741660  41.3820840  49.5483230  76.0260530  42.0743280
  33.6971970  75.8889580  37.9945630  34.4551330  76.0018460  37.4209660
  33.2349140  76.7258780  37.9489060  40.2385780  78.0028850  40.9847940
  39.4260290  77.6285740  40.6443820  40.7427420  77.2473930  41.2869130
  44.7410760  74.6671300  42.2231010  45.3440130  75.2391510  42.6979530
  44.0003750  75.2310740  42.0004910  47.8845360  75.0692860  37.4971290
  48.0795990  75.9676310  37.7638720  47.0975230  74.8379940  37.9904240
  36.0697120  76.4153630  36.5347600  36.5989880  75.6283430  36.4055550
  36.7025440  77.0944820  36.7683130  38.2634960  76.1528770  39.5892990
  37.6337700  75.4516080  39.7563120  37.7240100  76.9132900  39.3726150
  38.3890520  75.4312750  52.0245480  38.1074790  75.9346350  51.2606300
  38.7710220  74.6334500  51.6587610  36.4414410  88.8153140  36.8159490
  35.8123290  89.2838240  37.3645320  36.5562240  87.9702360  37.2505680
  44.9905980  74.8466330  52.6025950  44.8771430  75.1660940  53.4977470
  45.8075720  75.2478840  52.3063230  43.8964130  82.8658800  22.9660690
  43.8158180  81.9513410  22.6952400  43.4828550  83.3625870  22.2600400
  42.0282170  84.6437820  24.8469960  41.2524270  84.1638260  25.1368530
  42.6795100  83.9643470  24.6726120  36.0448000  84.9557630  25.7245720
  35.2132880  84.7006340  26.1242230  36.6528980  85.0268400  26.4603640
  46.0489600  89.0498010  23.6269090  45.5871130  88.2785250  23.9556260
  46.8615150  89.0764080  24.1321540  36.0249260  88.9897720  25.9203740
  36.3277300  88.0995460  25.7413960  36.7692850  89.5467940  25.6925990
  34.4539950  79.9159520  19.5088110  33.5656650  80.2575490  19.4067990
  34.7381140  79.7159840  18.6168940  32.4172960  82.5165170  25.3927810
  32.9889070  81.7487370  25.3931450  32.4174500  82.8153930  24.4834420
  41.4691160  87.3195010  24.8540120  41.3999440  86.3784950  24.6929250
  42.2311020  87.4096420  25.4262690  33.6597830  77.9249530  27.1796740
  33.4800670  77.0275280  27.4599500  33.2577910  78.4721400  27.8543690
  42.4996330  80.1265390  25.0809050  42.8761150  79.2537270  24.9682720
  42.4015840  80.4624090  24.1899490  36.6301340  78.4991020  20.5426490
  36.7368090  79.3994750  20.8495250  35.7193700  78.4508990  20.2521140
  46.2820450  77.6215830  22.0137390  47.1030070  77.1312400  22.0562870
  46.3154530  78.2113490  22.7669230  34.2784500  80.4210030  25.7879080
  34.9594610  80.6848400  26.4066480  33.9632550  79.5810900  26.1217090
  38.4709070  81.4677390  24.8751670  38.9787290  81.9658360  25.5156690
  39.0022310  80.6912590  24.6991030  50.5720000  79.6382580  28.5781020
  49.8672170  80.0264290  28.0596130  50.8377920  80.3332870  29.1801950
  36.7545170  76.1075950  29.1415090  36.7563610  76.6248340  28.3360990
  35.9249480  75.6306130  29.1185020  43.1416260  86.2195260  20.6404990
  42.5233530  86.6844710  20.0767710  43.6539510  86.9122740  21.0574500
  38.0048020  85.7471130  27.3188590  37.6717400  86.3740050  27.9609660
  38.1814700  86.2733010  26.5390260  46.5181930  79.5616210  24.7864930
  45.8137500  79.8501100  25.3668040  46.8794090  80.3716320  24.4264490
  36.4360500  77.8185910  27.1485540  36.7777310  78.6627960  26.8539410
  35.4976310  77.9669650  27.2650880  37.2167120  87.7151930  29.1337770
  37.8341120  88.3903010  28.8522220  36.3560240  88.1239910  29.0425270
  32.5099460  86.9051790  18.0144620  32.1327440  87.3938890  17.2829520
  32.7672530  87.5777070  18.6451150  48.1344710  89.1791340  27.0492410
  47.4508230  89.8490450  27.0409080  48.6739000  89.3771990  26.2837270
  49.5868850  79.0071000  25.1774140  48.6393760  79.0409980  25.3089570
  49.9118840  79.8209950  25.5623500  40.1188390  75.3068180  23.4730130
  40.4263370  74.7515070  22.7565630  39.1889090  75.4412640  23.2903120
  46.9648870  87.7451690  20.8527760  46.8545200  86.8026020  20.9777180
  46.9617120  88.1067330  21.7390520  45.0688890  85.9265310  27.0920200
  45.4857680  85.7125420  26.2573660  45.7928710  86.1838100  27.6628820
  42.5069150  83.3717010  20.2090250  41.5798430  83.3054390  20.4378720
  42.6593970  84.3097140  20.0945490  42.4938230  79.6434010  17.2057410
  41.5541900  79.8047970  17.2909870  42.8121490  80.3619690  16.6593400
  49.0150990  84.3252530  27.1836440  48.1869620  84.3945620  26.7086570
  49.6101470  84.9106840  26.7152270  46.5366440  84.9337310  20.7125500
  45.9178860  84.5956860  20.0651800  46.5190890  84.2897070  21.4204690
  45.9793000  81.1121850  28.1291310  45.5664180  81.9375560  28.3831300
  45.2468950  80.5266890  27.9367670  38.1125790  83.8981750  22.9909980
  37.7082790  83.1859000  22.4955880  38.1988910  83.5534990  23.8798020
  38.5807490  87.5849310  25.1549190  38.2835780  86.9794780  24.4756970
  39.5307310  87.6226620  25.0438550  36.8254410  80.6724960  26.7709020
  37.3769000  80.7820300  25.9962270  37.3397920  81.0462560  27.4864250
  37.6725920  87.3231000  31.8056990  36.7754450  87.5470970  32.0530390
  37.6978790  87.4465940  30.8568390  44.7131140  84.1724120  17.7198250
  45.1524420  83.3346550  17.5736070  45.4259560  84.8053520  17.8062390
  36.4997140  84.1944320  30.3814360  36.3604910  85.0667120  30.7501760
  35.6178500  83.8517130  30.2362300  42.8226520  89.1120190  21.6879490
  43.2622430  89.8544520  21.2734880  42.7613410  89.3546760  22.6118450
  38.2977490  90.1366020  32.5899510  38.2692920  90.5408970  31.7227940
  38.1342460  89.2076380  32.4271110  48.2948280  75.4266930  16.0339290
  47.9820940  75.5193760  16.9338360  49.0560750  76.0047960  15.9836720
  34.8130420  82.7926730  20.4916630  34.6928020  83.5188820  19.8797900
  34.5031310  82.0229640  20.0144540  32.4515790  85.9641870  26.2985270
  32.5296210  86.0990640  25.3540990  33.0657470  85.2557760  26.4913390
  33.6963420  87.6642060  22.7091450  33.2891500  87.8056650  21.8545050
  34.5876430  87.3802220  22.5062660  49.6525560  88.1105970  31.0463690
  49.7788620  87.8717850  30.1280870  49.6946940  87.2790510  31.5185770
  45.1922830  89.6076870  17.6040500  44.4987990  89.6054160  16.9442780
  45.9345690  89.1836190  17.1734670  49.5049570  80.1638430  32.0113430
  48.8893840  80.6718100  31.4828890  49.1845990  79.2636760  31.9539370
  32.5075310  87.0056040  28.8379730  32.6706350  86.5361400  28.0199100
  32.9727760  86.4979600  29.5028570  37.2794080  76.1361800  23.8740300
  36.8362230  76.9171340  23.5424820  37.8379070  76.4591690  24.5811240
  41.5663890  79.0030320  29.4775620  41.1043260  79.2113340  30.2895560
  41.1642000  78.1889670  29.1746290  46.5668400  80.2239270  30.6072280
  45.7161990  79.9245020  30.9281350  46.4070190  80.4681280  29.6956100
  43.6618110  81.7241020  32.7071070  43.9871520  80.8904770  32.3673300
  44.4498440  82.2469540  32.8549400  40.3952900  75.7572500  18.7546130
  39.7707080  75.7532370  19.4799440  40.3083020  74.8903460  18.3582100
  39.3169980  76.6809130  25.7329900  39.6142310  77.5871960  25.6521920
  39.8655540  76.1927910  25.1189470  37.0708300  81.2595370  21.6021550
  36.8449220  81.0432540  22.5068170  36.2900830  81.6923830  21.2567520
  44.3006060  81.2658740  20.2012200  43.7014950  81.9894540  20.0175820
  44.8485670  81.2035520  19.4188650  39.5107510  82.1580950  32.2681820
  39.4151110  81.2175680  32.1182220  40.3539490  82.3796020  31.8729890
  42.9070930  79.9022280  22.2315480  43.3000500  80.2194480  21.4184170
  43.2687780  79.0234160  22.3460000  34.6418050  78.5694620  30.4215600
  34.2481440  79.4169830  30.6288380  33.9536450  77.9320990  30.6124240
  41.2163100  78.6529590  33.4912340  40.5261420  78.4601790  34.1258430
  41.9595400  78.9364230  34.0236640  31.9435100  76.4923080  24.4545680
  31.6548150  77.0625940  25.1670660  32.6880860  76.0127530  24.8176910
  32.1305330  80.4343200  15.6648400  32.0480000  81.3773960  15.8063390
  31.7788390  80.2918110  14.7860750  43.4926070  82.4928030  26.3266260
  42.7607190  83.0014840  26.6756360  43.0950410  81.6758010  26.0255040
  39.9303460  79.1682230  24.7318750  39.9339520  78.7272180  23.8823290
  40.8254580  79.4899560  24.8390570  35.7805840  79.0508720  23.6912960
  35.4405890  79.5283950  24.4480010  35.0183160  78.5973840  23.3314060
  39.9923610  80.1694310  17.7225510  40.1136430  80.1280790  18.6711330
  39.6072120  81.0318460  17.5672240  43.9551980  77.9461710  25.7389200
  43.9724720  78.3970360  26.5831050  43.7067560  77.0467350  25.9522640
  39.0045110  82.4795450  17.1208810  38.4362010  82.0313700  16.4944720
  39.7134110  82.8388230  16.5873960  47.3822730  75.3593890  31.5775580
  47.7068500  74.6283550  32.1033560  47.4179240  75.0407530  30.6756570
  34.0814290  86.3807470  30.9975540  33.6969080  85.7401140  31.5958500
  34.3926480  87.0843590  31.5670270  40.2311430  83.2284010  26.4784160
  40.5981560  82.7542580  27.2245500  40.0416490  84.1025580  26.8192500
  33.0951920  77.9727700  22.6077630  32.8098840  77.6083370  23.4456250
  33.0330780  77.2408160  21.9940770  38.0210800  82.2692650  28.7968370
  37.7167870  83.1484630  29.0218730  38.9757260  82.3292440  28.8325810
  36.5492590  86.4753640  19.3935220  35.7754850  85.9351260  19.2333940
  37.2787220  85.9560250  19.0552980  47.3080570  85.4719000  25.1861610
  48.0279690  85.9674290  24.7957720  47.1062390  84.7936890  24.5415480
  42.7690510  76.8656960  19.3291000  41.9555120  76.3670130  19.2536310
  42.5752460  77.7055210  18.9127350  42.6899370  85.5428060  31.0730610
  42.6236680  84.6223730  30.8188200  42.0604510  85.6403500  31.7875250
  45.4838900  81.2376610  17.6253160  46.3718520  81.5493840  17.4504500
  45.4543990  80.3648860  17.2333740  36.5929990  86.1434020  23.0314030
  37.1108660  85.3402280  22.9770920  36.1414010  86.0813160  23.8730860
  41.4799490  87.4100300  18.3041330  41.8215190  88.1542530  17.8084650
  40.6512200  87.7231420  18.6666160  34.0774530  83.1095390  29.9439730
  33.7189470  83.7749240  30.5313070  33.7829090  82.2778940  30.3152350
  37.2787650  83.5679630  32.8279280  36.9787790  83.7136810  31.9307100
  38.0498890  83.0084920  32.7352670  42.6216100  88.3648630  30.8234410
  42.6360640  87.4329590  30.6053320  41.9141200  88.4508390  31.4624180
  47.7553170  82.5488450  17.0933020  47.6716890  82.9802670  16.2429460
  48.4747360  83.0086800  17.5259840  48.8327310  85.0055970  30.1702990
  48.1075500  85.5984750  29.9732380  49.3602770  84.9979510  29.3716360
  48.7840420  89.4030710  19.8215150  48.1416580  88.7486330  20.0958870
  48.3971080  89.8085800  19.0455820  44.3626900  86.7316140  23.6686840
  44.7150720  86.1344270  23.0088210  43.4789230  86.4060370  23.8395090
  40.4490180  87.4913830  21.0757250  41.1361310  88.0383040  21.4564840
  39.6622600  88.0354560  21.1106860  32.5882580  83.1086650  16.5674330
  33.4577430  83.3911450  16.8510250  32.0972900  83.9222520  16.4523140
  39.7517390  84.4959860  20.6882610  40.2080170  85.3065110  20.9142800
  39.4005600  84.1783000  21.5201100  42.0550000  90.0066200  27.9174910
  42.6992220  90.2125580  28.5948330  42.4179440  89.2454600  27.4645760
  35.6529170  74.8397510  21.1605130  35.5243800  74.8315410  22.1090050
  34.8291190  75.1780600  20.8096140  43.3282080  88.0098550  26.6352360
  43.9704310  87.3091710  26.7484530  43.8531430  88.7896990  26.4549250
  47.1737800  88.2947170  16.3591500  46.9475380  87.5777610  16.9516140
  46.7834000  88.0459610  15.5213250  45.1019700  88.8093450  29.8388420
  45.4375940  89.3960140  30.5166340  44.1820040  88.6786160  30.0686210
  32.6523100  76.5988630  30.6211830  31.9381620  76.7985550  31.2264440
  33.0718140  75.8228200  30.9926630  46.7554050  86.2119110  18.0205660
  46.4675750  86.6731800  18.8083540  47.5506220  85.7516880  18.2889880
  32.9395690  90.5868890  31.6078360  33.0486810  89.6463630  31.4673750
  32.2876250  90.8523640  30.9592090  40.9308280  88.8584780  33.0076480
  40.6105150  88.1394020  33.5522170  40.2566640  89.5339850  33.0812540
  38.9722450  89.7045230  17.9509630  38.9632550  90.4374920  17.3354140
  38.0520810  89.4576810  18.0436590  34.5729090  84.9260120  18.6956390
  33.9657040  85.6659020  18.7051690  35.0478440  85.0159480  17.8694590
  44.1461880  79.0910940  28.3713280  44.5142700  78.2706150  28.6992850
  43.2860080  79.1512830  28.7868930  47.5123910  78.0467880  19.1800840
  46.8837070  78.1513550  18.4659070  47.0175830  78.2664660  19.9694720
  41.9582050  89.7673470  16.6134820  42.0594030  89.5637460  15.6836800
  41.0583790  89.5131750  16.8182600  39.4807940  80.3253830  20.5958720
  38.7724090  80.7940170  21.0372330  39.7652420  79.6675840  21.2303910
  41.1063870  81.7450530  28.5951250  41.6049120  82.2196350  29.2603100
  41.2486820  80.8214050  28.8021280  43.5123370  77.0504490  22.0354510
  43.3891150  77.0690620  21.0864020  44.4607930  77.0983430  22.1552910
  37.6842960  78.6338910  17.9709430  38.5333490  79.0709060  17.9049620
  37.3174230  78.9459170  18.7981490  48.3130730  77.9618490  29.4379640
  47.8104330  78.7023890  29.7773450  49.1287390  78.3502490  29.1216430
  46.6052740  83.2051670  22.8841000  45.6642880  83.2201900  23.0588690
  46.9196810  82.4187630  23.3301300  36.5834380  84.8871270  16.4444960
  37.3497650  84.7752630  17.0070390  36.6609070  84.1909240  15.7921730
  35.2781140  82.3196340  17.1277850  35.3584730  81.3723850  17.2395250
  36.1700890  82.6503220  17.2338510  32.9641330  88.5365300  20.1053900
  32.0381110  88.7786440  20.0959310  33.4297760  89.3639560  19.9838650
  43.9218760  87.7617670  33.3673380  43.3156920  87.7849270  32.6269130
  43.6172870  87.0300710  33.9040630  32.8051940  84.1411260  32.3634020
  33.3090960  83.5618540  32.9350250  32.0659360  84.4251490  32.9010390
  39.7075560  86.8625450  15.9180310  39.6026200  86.2477800  16.6441690
  39.5399780  86.3391340  15.1343320  39.8589880  85.5482250  31.8969540
  39.0935550  86.1167250  31.8124210  40.0405840  85.2558460  31.0037770
  42.9478290  85.9245480  16.5222300  42.3988390  86.3714780  17.1665040
  43.5697550  85.4194730  17.0459970  47.0013230  87.2787580  32.4544560
  47.7422700  87.6163340  31.9512020  46.2385910  87.4479640  31.9014330
  34.8375020  82.2840850  33.2584090  34.8780360  81.9854720  34.1669320
  35.6920520  82.6848460  33.0991610  38.6153410  84.8836400  18.4187600
  39.0369830  84.7176270  19.2618990  38.7404250  84.0736630  17.9242740
  36.7780830  80.8632950  31.2258580  36.2477290  80.3723900  30.5981920
  37.4468900  81.2917150  30.6916510  41.1281050  83.9074010  15.6664700
  41.6486710  83.1923030  15.3005850  41.7749450  84.5459880  15.9665210
  45.6758890  85.3302410  30.9899770  46.0899910  85.4847490  31.8390190
  44.7409890  85.4557630  31.1525550  46.1481060  82.6698570  32.9938920
  46.7301830  81.9150890  32.9059400  46.3242830  83.2006010  32.2170400
  37.2653130  77.8295320  31.3055870  37.1710000  77.2116070  30.5806740
  36.6850520  78.5561610  31.0785780  40.0314570  76.3868560  28.3383260
  39.5831870  76.4092820  27.4928810  39.3979770  75.9887580  28.9353560
  40.4374120  85.2822890  28.9595700  40.8562230  86.1255620  28.7871940
  39.5182750  85.4194930  28.7302480  42.7738020  83.0139070  30.3433540
  42.8934230  82.4180210  31.0828380  43.6332020  83.0508760  29.9234840
  45.1125920  83.5676260  28.9196050  44.5861140  84.0918880  28.3161190
  45.4557260  84.2003650  29.5505780  37.5112310  80.9569630  15.3645760
  37.3101370  80.0936990  15.7259100  37.3404360  80.8702990  14.4267360
  39.5406790  79.5560420  31.6009360  40.1306480  79.2476270  32.2887180
  38.7227030  79.0840170  31.7569260  44.3600220  79.1726230  31.8342380
  43.6715740  78.5107770  31.7692370  45.0806240  78.7264500  32.2790840
  44.9900620  75.7677860  17.8932640  45.2702910  74.9245760  18.2492060
  44.2166350  76.0000970  18.4071390  36.3095110  78.0570250  15.3523640
  36.6121010  78.0637680  14.4442790  37.0489700  77.7068110  15.8491300
  39.5280040  77.0004870  16.3379840  39.1802040  76.3228860  15.7582290
  39.7292810  76.5394380  17.1523230  35.3325240  87.3612670  16.1853440
  35.7700110  87.9042340  16.8411020  35.8172970  86.5359620  16.1949780
  32.5471040  90.1501700  23.6373700  32.8774050  89.2822760  23.4052340
  32.9762040  90.3560220  24.4678660  37.1432960  88.4810710  21.2975670
  36.8428500  88.3575680  22.1979580  37.0370450  87.6219300  20.8891400
  48.6723430  90.5189290  30.6632640  48.0725420  90.5781850  29.9196560
  48.8017330  89.5794270  30.7929490  49.9124880  88.2607110  16.0002350
  49.0817840  88.3283760  16.4709580  50.0896710  89.1511230  15.6969210
  49.3681340  85.0054590  18.5036550  50.1300250  85.5751240  18.6096240
  49.3835710  84.4381790  19.2744860  32.8685680  83.5292520  22.7344210
  32.2134520  83.2604160  22.0903910  33.7063630  83.4197000  22.2846190
  50.3741310  85.8604690  23.3478480  50.7450140  85.0772010  22.9414450
  51.0143240  86.5493790  23.1695780  47.3575070  87.2441270  28.7608800
  46.5434910  87.6738430  29.0234590  47.7649270  87.8559680  28.1477850
  49.4200510  85.2988960  15.6609070  49.6949350  86.2067840  15.5328290
  49.2311250  85.2351490  16.5971060  45.8176120  78.3233810  16.9562700
  46.2361000  78.1364790  16.1159360  45.5112180  77.4712860  17.2665630
  49.3165850  83.2357950  20.6538500  48.9409450  82.4685880  20.2219790
  48.5868970  83.6180650  21.1413430  33.9061610  83.9145090  27.2747550
  34.2734650  83.8272490  28.1543570  33.3372430  83.1511640  27.1754410
  48.7065470  82.3829470  30.2878020  48.4751560  82.1542220  29.3875970
  48.9670020  83.3029020  30.2422910  33.4577610  80.8254180  31.1805970
  32.5633660  80.7920940  31.5199680  33.9975160  81.0240970  31.9457220
  47.1453540  77.6085900  33.0657720  48.0223720  77.6169300  33.4491720
  47.1574380  76.8716740  32.4550070  32.0823760  80.7391450  18.6769540
  31.1787840  81.0021650  18.5021200  32.5664380  81.0102620  17.8969500
  48.5916810  81.4615440  23.9545740  49.1154290  80.9678090  23.3235910
  49.1776230  81.5965800  24.6993310  48.7706530  81.5455310  27.4765290
  47.8209240  81.5118850  27.5910280  48.9519540  82.4555420  27.2415060
  34.6250970  79.7956990  16.5863920  35.3342670  79.3740210  16.1011200
  33.9090910  79.8632220  15.9547270  34.2725130  75.8496320  15.6266570
  34.9953260  76.3905260  15.9447790  34.5449650  75.5759740  14.7508110
  48.0816780  80.7188790  19.8938150  48.5775900  80.4859660  20.6787030
  47.8832850  79.8800630  19.4775790  33.9617320  75.1002510  25.5289190
  34.6093510  74.5499890  25.0884350  34.3819160  75.3545660  26.3505000
  49.5103940  79.3549740  22.4275830  49.4003220  79.2005780  23.3658100
  50.2711530  78.8270680  22.1851240  47.8569660  75.2943870  28.8858830
  48.4941880  75.9078010  29.2518020  48.0044550  75.3304530  27.9408060
  50.3994210  77.1857660  15.6681970  51.3243520  77.0538840  15.4600260
  50.3770000  77.2650480  16.6218420  50.4732700  77.9568320  18.2938680
  49.6784200  77.8913440  18.8231590  50.6775980  78.8918960  18.2824030
  35.3213690  88.4277780  32.4367700  35.2783320  88.0570690  33.3182160
  35.4524700  89.3655350  32.5769520  39.0219720  89.9837370  28.0377420
  38.7811080  90.2511930  27.1507940  39.9622360  90.1543100  28.0928280
  41.2274140  76.4470060  31.7933930  41.1663030  77.0391890  32.5429340
  42.1674520  76.3396020  31.6484190  43.8648700  76.1040120  31.4326220
  44.4789110  76.4219410  30.7707300  44.4098260  75.6188710  32.0522080
  34.3869960  74.7834380  31.5465280  34.9352950  74.6022430  30.7831390
  34.4525270  73.9928490  32.0821590  44.6056740  74.6672260  27.7595510
  43.7316580  75.0007370  27.5568440  44.4967490  74.1945440  28.5847380
  45.5128720  76.8743130  29.1437230  45.1842080  76.0594890  28.7638960
  46.4611020  76.8312940  29.0202920  34.7913950  88.7398410  28.5073520
  34.0648010  88.1203700  28.4399470  34.8523100  89.1339020  27.6371600
  42.3531560  75.5842100  26.6988420  41.5703350  76.0587600  26.9785180
  42.0594490  74.6796930  26.5901600  46.9052630  76.2865200  24.7437510
  47.3460720  76.2310300  23.8959110  46.6360220  77.2023210  24.8147690
  48.7691200  75.9180440  22.7546330  48.7079600  74.9741660  22.6077350
  49.5483230  76.0260530  23.2999790  33.6971970  75.8889580  19.2202140
  34.4551330  76.0018460  18.6466170  33.2349140  76.7258780  19.1745570
  40.2385780  78.0028850  22.2104450  39.4260290  77.6285740  21.8700330
  40.7427420  77.2473930  22.5125640  44.7410760  74.6671300  23.4487520
  45.3440130  75.2391510  23.9236040  44.0003750  75.2310740  23.2261420
  47.8845360  75.0692860  18.7227800  48.0795990  75.9676310  18.9895230
  47.0975230  74.8379940  19.2160750  36.0697120  76.4153630  17.7604110
  36.5989880  75.6283430  17.6312060  36.7025440  77.0944820  17.9939640
  38.2634960  76.1528770  20.8149500  37.6337700  75.4516080  20.9819630
  37.7240100  76.9132900  20.5982660  38.3890520  75.4312750  33.2501990
  38.1074790  75.9346350  32.4862810  38.7710220  74.6334500  32.8844120
  36.4414410  88.8153140  18.0416000  35.8123290  89.2838240  18.5901830
  36.5562240  87.9702360  18.4762190  44.9905980  74.8466330  33.8282460
  44.8771430  75.1660940  34.7233980  45.8075720  75.2478840  33.5319740
  43.8964130  82.8658800   4.1917200  43.8158180  81.9513410   3.9208910
  43.4828550  83.3625870   3.4856910  42.0282170  84.6437820   6.0726470
  41.2524270  84.1638260   6.3625040  42.6795100  83.9643470   5.8982630
  36.0448000  84.9557630   6.9502230  35.2132880  84.7006340   7.3498740
  36.6528980  85.0268400   7.6860150  46.0489600  89.0498010   4.8525600
  45.5871130  88.2785250   5.1812770  46.8615150  89.0764080   5.3578050
  36.0249260  88.9897720   7.1460250  36.3277300  88.0995460   6.9670470
  36.7692850  89.5467940   6.9182500  32.4172960  82.5165170   6.6184320
  32.9889070  81.7487370   6.6187960  32.4174500  82.8153930   5.7090930
  41.4691160  87.3195010   6.0796630  41.3999440  86.3784950   5.9185760
  42.2311020  87.4096420   6.6519200  33.6597830  77.9249530   8.4053250
  33.4800670  77.0275280   8.6856010  33.2577910  78.4721400   9.0800200
  42.4996330  80.1265390   6.3065560  42.8761150  79.2537270   6.1939230
  42.4015840  80.4624090   5.4156000  36.6301340  78.4991020   1.7683000
  36.7368090  79.3994750   2.0751760  35.7193700  78.4508990   1.4777650
  46.2820450  77.6215830   3.2393900  47.1030070  77.1312400   3.2819380
  46.3154530  78.2113490   3.9925740  34.2784500  80.4210030   7.0135590
  34.9594610  80.6848400   7.6322990  33.9632550  79.5810900   7.3473600
  38.4709070  81.4677390   6.1008180  38.9787290  81.9658360   6.7413200
  39.0022310  80.6912590   5.9247540  50.5720000  79.6382580   9.8037530
  49.8672170  80.0264290   9.2852640  50.8377920  80.3332870  10.4058460
  36.7545170  76.1075950  10.3671600  36.7563610  76.6248340   9.5617500
  35.9249480  75.6306130  10.3441530  38.0048020  85.7471130   8.5445100
  37.6717400  86.3740050   9.1866170  38.1814700  86.2733010   7.7646770
  46.5181930  79.5616210   6.0121440  45.8137500  79.8501100   6.5924550
  46.8794090  80.3716320   5.6521000  36.4360500  77.8185910   8.3742050
  36.7777310  78.6627960   8.0795920  35.4976310  77.9669650   8.4907390
  37.2167120  87.7151930  10.3594280  37.8341120  88.3903010  10.0778730
  36.3560240  88.1239910  10.2681780  48.1344710  89.1791340   8.2748920
  47.4508230  89.8490450   8.2665590  48.6739000  89.3771990   7.5093780
  49.5868850  79.0071000   6.4030650  48.6393760  79.0409980   6.5346080
  49.9118840  79.8209950   6.7880010  40.1188390  75.3068180   4.6986640
  40.4263370  74.7515070   3.9822140  39.1889090  75.4412640   4.5159630
  46.9648870  87.7451690   2.0784270  46.8545200  86.8026020   2.2033690
  46.9617120  88.1067330   2.9647030  45.0688890  85.9265310   8.3176710
  45.4857680  85.7125420   7.4830170  45.7928710  86.1838100   8.8885330
  49.0150990  84.3252530   8.4092950  48.1869620  84.3945620   7.9343080
  49.6101470  84.9106840   7.9408780  45.9793000  81.1121850   9.3547820
  45.5664180  81.9375560   9.6087810  45.2468950  80.5266890   9.1624180
  38.1125790  83.8981750   4.2166490  37.7082790  83.1859000   3.7212390
  38.1988910  83.5534990   5.1054530  38.5807490  87.5849310   6.3805700
  38.2835780  86.9794780   5.7013480  39.5307310  87.6226620   6.2695060
  36.8254410  80.6724960   7.9965530  37.3769000  80.7820300   7.2218780
  37.3397920  81.0462560   8.7120760  37.6725920  87.3231000  13.0313500
  36.7754450  87.5470970  13.2786900  37.6978790  87.4465940  12.0824900
  36.4997140  84.1944320  11.6070870  36.3604910  85.0667120  11.9758270
  35.6178500  83.8517130  11.4618810  42.8226520  89.1120190   2.9136000
  43.2622430  89.8544520   2.4991390  42.7613410  89.3546760   3.8374960
  38.2977490  90.1366020  13.8156020  38.2692920  90.5408970  12.9484450
  38.1342460  89.2076380  13.6527620  32.4515790  85.9641870   7.5241780
  32.5296210  86.0990640   6.5797500  33.0657470  85.2557760   7.7169900
  33.6963420  87.6642060   3.9347960  33.2891500  87.8056650   3.0801560
  34.5876430  87.3802220   3.7319170  49.6525560  88.1105970  12.2720200
  49.7788620  87.8717850  11.3537380  49.6946940  87.2790510  12.7442280
  49.5049570  80.1638430  13.2369940  48.8893840  80.6718100  12.7085400
  49.1845990  79.2636760  13.1795880  32.5075310  87.0056040  10.0636240
  32.6706350  86.5361400   9.2455610  32.9727760  86.4979600  10.7285080
  37.2794080  76.1361800   5.0996810  36.8362230  76.9171340   4.7681330
  37.8379070  76.4591690   5.8067750  41.5663890  79.0030320  10.7032130
  41.1043260  79.2113340  11.5152070  41.1642000  78.1889670  10.4002800
  46.5668400  80.2239270  11.8328790  45.7161990  79.9245020  12.1537860
  46.4070190  80.4681280  10.9212610  43.6618110  81.7241020  13.9327580
  43.9871520  80.8904770  13.5929810  44.4498440  82.2469540  14.0805910
  39.3169980  76.6809130   6.9586410  39.6142310  77.5871960   6.8778430
  39.8655540  76.1927910   6.3445980  37.0708300  81.2595370   2.8278060
  36.8449220  81.0432540   3.7324680  36.2900830  81.6923830   2.4824030
  39.5107510  82.1580950  13.4938330  39.4151110  81.2175680  13.3438730
  40.3539490  82.3796020  13.0986400  42.9070930  79.9022280   3.4571990
  43.3000500  80.2194480   2.6440680  43.2687780  79.0234160   3.5716510
  34.6418050  78.5694620  11.6472110  34.2481440  79.4169830  11.8544890
  33.9536450  77.9320990  11.8380750  41.2163100  78.6529590  14.7168850
  40.5261420  78.4601790  15.3514940  41.9595400  78.9364230  15.2493150
  31.9435100  76.4923080   5.6802190  31.6548150  77.0625940   6.3927170
  32.6880860  76.0127530   6.0433420  43.4926070  82.4928030   7.5522770
  42.7607190  83.0014840   7.9012870  43.0950410  81.6758010   7.2511550
  39.9303460  79.1682230   5.9575260  39.9339520  78.7272180   5.1079800
  40.8254580  79.4899560   6.0647080  35.7805840  79.0508720   4.9169470
  35.4405890  79.5283950   5.6736520  35.0183160  78.5973840   4.5570570
  43.9551980  77.9461710   6.9645710  43.9724720  78.3970360   7.8087560
  43.7067560  77.0467350   7.1779150  47.3822730  75.3593890  12.8032090
  47.7068500  74.6283550  13.3290070  47.4179240  75.0407530  11.9013080
  34.0814290  86.3807470  12.2232050  33.6969080  85.7401140  12.8215010
  34.3926480  87.0843590  12.7926780  40.2311430  83.2284010   7.7040670
  40.5981560  82.7542580   8.4502010  40.0416490  84.1025580   8.0449010
  33.0951920  77.9727700   3.8334140  32.8098840  77.6083370   4.6712760
  33.0330780  77.2408160   3.2197280  38.0210800  82.2692650  10.0224880
  37.7167870  83.1484630  10.2475240  38.9757260  82.3292440  10.0582320
  47.3080570  85.4719000   6.4118120  48.0279690  85.9674290   6.0214230
  47.1062390  84.7936890   5.7671990  42.6899370  85.5428060  12.2987120
  42.6236680  84.6223730  12.0444710  42.0604510  85.6403500  13.0131760
  36.5929990  86.1434020   4.2570540  37.1108660  85.3402280   4.2027430
  36.1414010  86.0813160   5.0987370  34.0774530  83.1095390  11.1696240
  33.7189470  83.7749240  11.7569580  33.7829090  82.2778940  11.5408860
  37.2787650  83.5679630  14.0535790  36.9787790  83.7136810  13.1563610
  38.0498890  83.0084920  13.9609180  42.6216100  88.3648630  12.0490920
  42.6360640  87.4329590  11.8309830  41.9141200  88.4508390  12.6880690
  48.8327310  85.0055970  11.3959500  48.1075500  85.5984750  11.1988890
  49.3602770  84.9979510  10.5972870  44.3626900  86.7316140   4.8943350
  44.7150720  86.1344270   4.2344720  43.4789230  86.4060370   5.0651600
  40.4490180  87.4913830   2.3013760  41.1361310  88.0383040   2.6821350
  39.6622600  88.0354560   2.3363370  39.7517390  84.4959860   1.9139120
  40.2080170  85.3065110   2.1399310  39.4005600  84.1783000   2.7457610
  42.0550000  90.0066200   9.1431420  42.6992220  90.2125580   9.8204840
  42.4179440  89.2454600   8.6902270  35.6529170  74.8397510   2.3861640
  35.5243800  74.8315410   3.3346560  34.8291190  75.1780600   2.0352650
  43.3282080  88.0098550   7.8608870  43.9704310  87.3091710   7.9741040
  43.8531430  88.7896990   7.6805760  45.1019700  88.8093450  11.0644930
  45.4375940  89.3960140  11.7422850  44.1820040  88.6786160  11.2942720
  32.6523100  76.5988630  11.8468340  31.9381620  76.7985550  12.4520950
  33.0718140  75.8228200  12.2183140  32.9395690  90.5868890  12.8334870
  33.0486810  89.6463630  12.6930260  32.2876250  90.8523640  12.1848600
  40.9308280  88.8584780  14.2332990  40.6105150  88.1394020  14.7778680
  40.2566640  89.5339850  14.3069050  44.1461880  79.0910940   9.5969790
  44.5142700  78.2706150   9.9249360  43.2860080  79.1512830  10.0125440
  39.4807940  80.3253830   1.8215230  38.7724090  80.7940170   2.2628840
  39.7652420  79.6675840   2.4560420  41.1063870  81.7450530   9.8207760
  41.6049120  82.2196350  10.4859610  41.2486820  80.8214050  10.0277790
  43.5123370  77.0504490   3.2611020  43.3891150  77.0690620   2.3120530
  44.4607930  77.0983430   3.3809420  48.3130730  77.9618490  10.6636150
  47.8104330  78.7023890  11.0029960  49.1287390  78.3502490  10.3472940
  46.6052740  83.2051670   4.1097510  45.6642880  83.2201900   4.2845200
  46.9196810  82.4187630   4.5557810  43.9218760  87.7617670  14.5929890
  43.3156920  87.7849270  13.8525640  43.6172870  87.0300710  15.1297140
  32.8051940  84.1411260  13.5890530  33.3090960  83.5618540  14.1606760
  32.0659360  84.4251490  14.1266900  39.8589880  85.5482250  13.1226050
  39.0935550  86.1167250  13.0380720  40.0405840  85.2558460  12.2294280
  47.0013230  87.2787580  13.6801070  47.7422700  87.6163340  13.1768530
  46.2385910  87.4479640  13.1270840  34.8375020  82.2840850  14.4840600
  34.8780360  81.9854720  15.3925830  35.6920520  82.6848460  14.3248120
  36.7780830  80.8632950  12.4515090  36.2477290  80.3723900  11.8238430
  37.4468900  81.2917150  11.9173020  45.6758890  85.3302410  12.2156280
  46.0899910  85.4847490  13.0646700  44.7409890  85.4557630  12.3782060
  46.1481060  82.6698570  14.2195430  46.7301830  81.9150890  14.1315910
  46.3242830  83.2006010  13.4426910  37.2653130  77.8295320  12.5312380
  37.1710000  77.2116070  11.8063250  36.6850520  78.5561610  12.3042290
  40.0314570  76.3868560   9.5639770  39.5831870  76.4092820   8.7185320
  39.3979770  75.9887580  10.1610070  40.4374120  85.2822890  10.1852210
  40.8562230  86.1255620  10.0128450  39.5182750  85.4194930   9.9558990
  42.7738020  83.0139070  11.5690050  42.8934230  82.4180210  12.3084890
  43.6332020  83.0508760  11.1491350  45.1125920  83.5676260  10.1452560
  44.5861140  84.0918880   9.5417700  45.4557260  84.2003650  10.7762290
  39.5406790  79.5560420  12.8265870  40.1306480  79.2476270  13.5143690
  38.7227030  79.0840170  12.9825770  44.3600220  79.1726230  13.0598890
  43.6715740  78.5107770  12.9948880  45.0806240  78.7264500  13.5047350
  32.5471040  90.1501700   4.8630210  32.8774050  89.2822760   4.6308850
  32.9762040  90.3560220   5.6935170  37.1432960  88.4810710   2.5232180
  36.8428500  88.3575680   3.4236090  37.0370450  87.6219300   2.1147910
  48.6723430  90.5189290  11.8889150  48.0725420  90.5781850  11.1453070
  48.8017330  89.5794270  12.0186000  32.8685680  83.5292520   3.9600720
  32.2134520  83.2604160   3.3160420  33.7063630  83.4197000   3.5102700
  50.3741310  85.8604690   4.5734990  50.7450140  85.0772010   4.1670960
  51.0143240  86.5493790   4.3952290  47.3575070  87.2441270   9.9865310
  46.5434910  87.6738430  10.2491100  47.7649270  87.8559680   9.3734360
  49.3165850  83.2357950   1.8795010  48.9409450  82.4685880   1.4476300
  48.5868970  83.6180650   2.3669940  33.9061610  83.9145090   8.5004060
  34.2734650  83.8272490   9.3800080  33.3372430  83.1511640   8.4010920
  48.7065470  82.3829470  11.5134530  48.4751560  82.1542220  10.6132480
  48.9670020  83.3029020  11.4679420  33.4577610  80.8254180  12.4062480
  32.5633660  80.7920940  12.7456190  33.9975160  81.0240970  13.1713730
  47.1453540  77.6085900  14.2914230  48.0223720  77.6169300  14.6748230
  47.1574380  76.8716740  13.6806580  48.5916810  81.4615440   5.1802250
  49.1154290  80.9678090   4.5492420  49.1776230  81.5965800   5.9249820
  48.7706530  81.5455310   8.7021800  47.8209240  81.5118850   8.8166790
  48.9519540  82.4555420   8.4671570  33.9617320  75.1002510   6.7545700
  34.6093510  74.5499890   6.3140860  34.3819160  75.3545660   7.5761510
  49.5103940  79.3549740   3.6532340  49.4003220  79.2005780   4.5914610
  50.2711530  78.8270680   3.4107750  47.8569660  75.2943870  10.1115340
  48.4941880  75.9078010  10.4774530  48.0044550  75.3304530   9.1664570
  33.7149320  75.2558180   9.4971020  33.3664140  75.7122000  10.2629200
  33.3837020  74.3615310   9.5793450  35.3213690  88.4277780  13.6624210
  35.2783320  88.0570690  14.5438670  35.4524700  89.3655350  13.8026030
  39.0219720  89.9837370   9.2633930  38.7811080  90.2511930   8.3764450
  39.9622360  90.1543100   9.3184790  41.2274140  76.4470060  13.0190440
  41.1663030  77.0391890  13.7685850  42.1674520  76.3396020  12.8740700
  43.8648700  76.1040120  12.6582730  44.4789110  76.4219410  11.9963810
  44.4098260  75.6188710  13.2778590  34.3869960  74.7834380  12.7721790
  34.9352950  74.6022430  12.0087900  34.4525270  73.9928490  13.3078100
  44.6056740  74.6672260   8.9852020  43.7316580  75.0007370   8.7824950
  44.4967490  74.1945440   9.8103890  45.5128720  76.8743130  10.3693740
  45.1842080  76.0594890   9.9895470  46.4611020  76.8312940  10.2459430
  34.7913950  88.7398410   9.7330030  34.0648010  88.1203700   9.6655980
  34.8523100  89.1339020   8.8628110  42.3531560  75.5842100   7.9244930
  41.5703350  76.0587600   8.2041690  42.0594490  74.6796930   7.8158110
  46.9052630  76.2865200   5.9694020  47.3460720  76.2310300   5.1215620
  46.6360220  77.2023210   6.0404200  48.7691200  75.9180440   3.9802840
  48.7079600  74.9741660   3.8333860  49.5483230  76.0260530   4.5256300
  40.2385780  78.0028850   3.4360960  39.4260290  77.6285740   3.0956840
  40.7427420  77.2473930   3.7382150  44.7410760  74.6671300   4.6744030
  45.3440130  75.2391510   5.1492550  44.0003750  75.2310740   4.4517930
  38.2634960  76.1528770   2.0406010  37.6337700  75.4516080   2.2076140
  37.7240100  76.9132900   1.8239170  38.3890520  75.4312750  14.4758500
  38.1074790  75.9346350  13.7119320  38.7710220  74.6334500  14.1100630
  44.9905980  74.8466330  15.0538970  44.8771430  75.1660940  15.9490490
  45.8075720  75.2478840  14.7576250  43.8964130  64.0915310  60.5147670
  43.8158180  63.1769920  60.2439380  43.4828550  64.5882380  59.8087380
  42.0282170  65.8694330  62.3956940  41.2524270  65.3894770  62.6855510
  42.6795100  65.1899980  62.2213100  36.0448000  66.1814140  63.2732700
  35.2132880  65.9262850  63.6729210  36.6528980  66.2524910  64.0090620
  46.0489600  70.2754520  61.1756070  45.5871130  69.5041760  61.5043240
  46.8615150  70.3020590  61.6808520  36.0249260  70.2154230  63.4690720
  36.3277300  69.3251970  63.2900940  36.7692850  70.7724450  63.2412970
  34.4539950  61.1416030  57.0575090  33.5656650  61.4832000  56.9554970
  34.7381140  60.9416350  56.1655920  32.4172960  63.7421680  62.9414790
  32.9889070  62.9743880  62.9418430  32.4174500  64.0410440  62.0321400
  42.2752910  72.5612530  60.7960060  41.6564350  73.0170030  60.2254500
  43.1304690  72.7163990  60.3949760  41.4691160  68.5451520  62.4027100
  41.3999440  67.6041460  62.2416230  42.2311020  68.6352930  62.9749670
  33.6597830  59.1506040  64.7283720  33.4800670  58.2531790  65.0086480
  33.2577910  59.6977910  65.4030670  42.4996330  61.3521900  62.6296030
  42.8761150  60.4793780  62.5169700  42.4015840  61.6880600  61.7386470
  36.6301340  59.7247530  58.0913470  36.7368090  60.6251260  58.3982230
  35.7193700  59.6765500  57.8008120  46.2820450  58.8472340  59.5624370
  47.1030070  58.3568910  59.6049850  46.3154530  59.4370000  60.3156210
  34.2784500  61.6466540  63.3366060  34.9594610  61.9104910  63.9553460
  33.9632550  60.8067410  63.6704070  38.4709070  62.6933900  62.4238650
  38.9787290  63.1914870  63.0643670  39.0022310  61.9169100  62.2478010
  43.1416260  67.4451770  58.1891970  42.5233530  67.9101220  57.6254690
  43.6539510  68.1379250  58.6061480  38.0048020  66.9727640  64.8675570
  37.6717400  67.5996560  65.5096640  38.1814700  67.4989520  64.0877240
  46.5181930  60.7872720  62.3351910  45.8137500  61.0757610  62.9155020
  46.8794090  61.5972830  61.9751470  36.4360500  59.0442420  64.6972520
  36.7777310  59.8884470  64.4026390  35.4976310  59.1926160  64.8137860
  32.5099460  68.1308300  55.5631600  32.1327440  68.6195400  54.8316500
  32.7672530  68.8033580  56.1938130  48.1344710  70.4047850  64.5979390
  47.4508230  71.0746960  64.5896060  48.6739000  70.6028500  63.8324250
  49.5868850  60.2327510  62.7261120  48.6393760  60.2666490  62.8576550
  49.9118840  61.0466460  63.1110480  40.1188390  56.5324690  61.0217110
  40.4263370  55.9771580  60.3052610  39.1889090  56.6669150  60.8390100
  45.6703450  72.2491980  63.3124570  45.6830610  71.8454270  62.4446830
  45.1178670  73.0239270  63.2086000  46.9648870  68.9708200  58.4014740
  46.8545200  68.0282530  58.5264160  46.9617120  69.3323840  59.2877500
  45.0688890  67.1521820  64.6407180  45.4857680  66.9381930  63.8060640
  45.7928710  67.4094610  65.2115800  42.5069150  64.5973520  57.7577230
  41.5798430  64.5310900  57.9865700  42.6593970  65.5353650  57.6432470
  42.4938230  60.8690520  54.7544390  41.5541900  61.0304480  54.8396850
  42.8121490  61.5876200  54.2080380  49.0150990  65.5509040  64.7323420
  48.1869620  65.6202130  64.2573550  49.6101470  66.1363350  64.2639250
  46.5366440  66.1593820  58.2612480  45.9178860  65.8213370  57.6138780
  46.5190890  65.5153580  58.9691670  45.9793000  62.3378360  65.6778290
  45.5664180  63.1632070  65.9318280  45.2468950  61.7523400  65.4854650
  38.1125790  65.1238260  60.5396960  37.7082790  64.4115510  60.0442860
  38.1988910  64.7791500  61.4285000  38.5807490  68.8105820  62.7036170
  38.2835780  68.2051290  62.0243950  39.5307310  68.8483130  62.5925530
  36.8254410  61.8981470  64.3196000  37.3769000  62.0076810  63.5449250
  37.3397920  62.2719070  65.0351230  46.6693100  72.3837690  66.3659270
  46.1923660  73.1909880  66.1731880  45.9854890  71.7316020  66.5185480
  44.7131140  65.3980630  55.2685230  45.1524420  64.5603060  55.1223050
  45.4259560  66.0310030  55.3549370  42.8226520  70.3376700  59.2366470
  43.2622430  71.0801030  58.8221860  42.7613410  70.5803270  60.1605430
  48.2948280  56.6523440  53.5826270  47.9820940  56.7450270  54.4825340
  49.0560750  57.2304470  53.5323700  34.8130420  64.0183240  58.0403610
  34.6928020  64.7445330  57.4284880  34.5031310  63.2486150  57.5631520
  32.4515790  67.1898380  63.8472250  32.5296210  67.3247150  62.9027970
  33.0657470  66.4814270  64.0400370  33.6963420  68.8898570  60.2578430
  33.2891500  69.0313160  59.4032030  34.5876430  68.6058730  60.0549640
  45.4896700  73.3245820  56.5929480  45.3297840  73.0348760  57.4911310
  45.3243410  72.5485950  56.0574710  37.9685080  73.1044350  58.3701100
  37.7927560  72.1879890  58.1568900  37.1140820  73.4631640  58.6098900
  45.1922830  70.8333380  55.1527480  44.4987990  70.8310670  54.4929760
  45.9345690  70.4092700  54.7221650  44.7572760  72.4596090  59.2275970
  45.2129710  71.6785470  59.5414590  45.0965280  73.1702910  59.7717150
  37.2794080  57.3618310  61.4227280  36.8362230  58.1427850  61.0911800
  37.8379070  57.6848200  62.1298220  40.3952900  56.9829010  56.3033110
  39.7707080  56.9788880  57.0286420  40.3083020  56.1159970  55.9069080
  39.3169980  57.9065640  63.2816880  39.6142310  58.8128470  63.2008900
  39.8655540  57.4184420  62.6676450  37.0708300  62.4851880  59.1508530
  36.8449220  62.2689050  60.0555150  36.2900830  62.9180340  58.8054500
  44.3006060  62.4915250  57.7499180  43.7014950  63.2151050  57.5662800
  44.8485670  62.4292030  56.9675630  42.9070930  61.1278790  59.7802460
  43.3000500  61.4450990  58.9671150  43.2687780  60.2490670  59.8946980
  31.9435100  57.7179590  62.0032660  31.6548150  58.2882450  62.7157640
  32.6880860  57.2384040  62.3663890  32.1305330  61.6599710  53.2135380
  32.0480000  62.6030470  53.3550370  31.7788390  61.5174620  52.3347730
  43.4926070  63.7184540  63.8753240  42.7607190  64.2271350  64.2243340
  43.0950410  62.9014520  63.5742020  39.9303460  60.3938740  62.2805730
  39.9339520  59.9528690  61.4310270  40.8254580  60.7156070  62.3877550
  35.7805840  60.2765230  61.2399940  35.4405890  60.7540460  61.9966990
  35.0183160  59.8230350  60.8801040  39.9923610  61.3950820  55.2712490
  40.1136430  61.3537300  56.2198310  39.6072120  62.2574970  55.1159220
  43.9551980  59.1718220  63.2876180  43.9724720  59.6226870  64.1318030
  43.7067560  58.2723860  63.5009620  39.0045110  63.7051960  54.6695790
  38.4362010  63.2570210  54.0431700  39.7134110  64.0644740  54.1360940
  40.2311430  64.4540520  64.0271140  40.5981560  63.9799090  64.7732480
  40.0416490  65.3282090  64.3679480  33.0951920  59.1984210  60.1564610
  32.8098840  58.8339880  60.9943230  33.0330780  58.4664670  59.5427750
  36.5492590  67.7010150  56.9422200  35.7754850  67.1607770  56.7820920
  37.2787220  67.1816760  56.6039960  47.3080570  66.6975510  62.7348590
  48.0279690  67.1930800  62.3444700  47.1062390  66.0193400  62.0902460
  42.7690510  58.0913470  56.8777980  41.9555120  57.5926640  56.8023290
  42.5752460  58.9311720  56.4614330  45.4838900  62.4633120  55.1740140
  46.3718520  62.7750350  54.9991480  45.4543990  61.5905370  54.7820720
  36.5929990  67.3690530  60.5801010  37.1108660  66.5658790  60.5257900
  36.1414010  67.3069670  61.4217840  41.4799490  68.6356810  55.8528310
  41.8215190  69.3799040  55.3571630  40.6512200  68.9487930  56.2153140
  47.7553170  63.7744960  54.6420000  47.6716890  64.2059180  53.7916440
  48.4747360  64.2343310  55.0746820  48.7840420  70.6287220  57.3702130
  48.1416580  69.9742840  57.6445850  48.3971080  71.0342310  56.5942800
  44.3626900  67.9572650  61.2173820  44.7150720  67.3600780  60.5575190
  43.4789230  67.6316880  61.3882070  40.4490180  68.7170340  58.6244230
  41.1361310  69.2639550  59.0051820  39.6622600  69.2611070  58.6593840
  32.5882580  64.3343160  54.1161310  33.4577430  64.6167960  54.3997230
  32.0972900  65.1479030  54.0010120  39.7517390  65.7216370  58.2369590
  40.2080170  66.5321620  58.4629780  39.4005600  65.4039510  59.0688080
  42.0550000  71.2322710  65.4661890  42.6992220  71.4382090  66.1435310
  42.4179440  70.4711110  65.0132740  35.6529170  56.0654020  58.7092110
  35.5243800  56.0571920  59.6577030  34.8291190  56.4037110  58.3583120
  43.3282080  69.2355060  64.1839340  43.9704310  68.5348220  64.2971510
  43.8531430  70.0153500  64.0036230  47.1737800  69.5203680  53.9078480
  46.9475380  68.8034120  54.5003120  46.7834000  69.2716120  53.0700230
  32.9553830  73.5470540  54.6822940  33.3151470  74.1459880  54.0280210
  32.8146170  74.0930430  55.4557970  46.7554050  67.4375620  55.5692640
  46.4675750  67.8988310  56.3570520  47.5506220  66.9773390  55.8376860
  38.9722450  70.9301740  55.4996610  38.9632550  71.6631430  54.8841120
  38.0520810  70.6833320  55.5923570  34.5729090  66.1516630  56.2443370
  33.9657040  66.8915530  56.2538670  35.0478440  66.2415990  55.4181570
  44.1461880  60.3167450  65.9200260  44.5142700  59.4962660  66.2479830
  43.2860080  60.3769340  66.3355910  47.5123910  59.2724390  56.7287820
  46.8837070  59.3770060  56.0146050  47.0175830  59.4921170  57.5181700
  41.9582050  70.9929980  54.1621800  42.0594030  70.7893970  53.2323780
  41.0583790  70.7388260  54.3669580  39.4807940  61.5510340  58.1445700
  38.7724090  62.0196680  58.5859310  39.7652420  60.8932350  58.7790890
  43.5123370  58.2761000  59.5841490  43.3891150  58.2947130  58.6351000
  44.4607930  58.3239940  59.7039890  40.6000160  73.5116300  58.8569470
  40.8541660  73.4737690  57.9348840  39.6512640  73.3849630  58.8497720
  37.6842960  59.8595420  55.5196410  38.5333490  60.2965570  55.4536600
  37.3174230  60.1715680  56.3468470  46.6052740  64.4308180  60.4327980
  45.6642880  64.4458410  60.6075670  46.9196810  63.6444140  60.8788280
  36.5834380  66.1127780  53.9931940  37.3497650  66.0009140  54.5557370
  36.6609070  65.4165750  53.3408710  35.2781140  63.5452850  54.6764830
  35.3584730  62.5980360  54.7882230  36.1700890  63.8759730  54.7825490
  48.6078320  71.6017030  62.1082240  48.7325740  72.4248200  62.5806050
  49.4743880  71.3907760  61.7606390  36.0795850  73.6948240  61.7799370
  36.8158330  73.1463700  62.0507940  36.4636770  74.5604250  61.6405360
  32.9641330  69.7621810  57.6540880  32.0381110  70.0042950  57.6446290
  33.4297760  70.5896070  57.5325630  39.1898160  72.8678550  53.6024940
  39.9826770  73.1567380  53.1506730  38.6702510  72.4370720  52.9237420
  48.2428330  72.0948680  55.0261680  47.9569840  71.6813820  54.2115860
  48.0447880  73.0236390  54.9062200  39.7075560  68.0881960  53.4667290
  39.6026200  67.4734310  54.1928670  39.5399780  67.5647850  52.6830300
  42.9478290  67.1501990  54.0709280  42.3988390  67.5971290  54.7152020
  43.5697550  66.6451240  54.5946950  38.6153410  66.1092910  55.9674580
  39.0369830  65.9432780  56.8105970  38.7404250  65.2993140  55.4729720
  41.1281050  65.1330520  53.2151680  41.6486710  64.4179540  52.8492830
  41.7749450  65.7716390  53.5152190  40.0314570  57.6125070  65.8870240
  39.5831870  57.6349330  65.0415790  39.3979770  57.2144090  66.4840540
  40.4374120  66.5079400  66.5082680  40.8562230  67.3512130  66.3358920
  39.5182750  66.6451440  66.2789460  37.5112310  62.1826140  52.9132740
  37.3101370  61.3193500  53.2746080  37.3404360  62.0959500  51.9754340
  44.9900620  56.9934370  55.4419620  45.2702910  56.1502270  55.7979040
  44.2166350  57.2257480  55.9558370  36.3095110  59.2826760  52.9010620
  36.6121010  59.2894190  51.9929770  37.0489700  58.9324620  53.3978280
  39.5280040  58.2261380  53.8866820  39.1802040  57.5485370  53.3069270
  39.7292810  57.7650890  54.7010210  41.6929080  73.2142130  55.5053420
  42.5879870  73.5527100  55.5272180  41.7246710  72.4921540  54.8777700
  35.3325240  68.5869180  53.7340420  35.7700110  69.1298850  54.3898000
  35.8172970  67.7616130  53.7436760  32.5471040  71.3758210  61.1860680
  32.8774050  70.5079270  60.9539320  32.9762040  71.5816730  62.0165640
  37.1432960  69.7067220  58.8462650  36.8428500  69.5832190  59.7466560
  37.0370450  68.8475810  58.4378380  33.0361250  72.2428800  63.9242310
  32.5992240  72.4229600  64.7566460  33.6038930  73.0003420  63.7824030
  49.9124880  69.4863620  53.5489330  49.0817840  69.5540270  54.0196560
  50.0896710  70.3767740  53.2456190  49.3681340  66.2311100  56.0523530
  50.1300250  66.8007750  56.1583220  49.3835710  65.6638300  56.8231840
  32.8685680  64.7549030  60.2831190  32.2134520  64.4860670  59.6390890
  33.7063630  64.6453510  59.8333170  50.3741310  67.0861200  60.8965460
  50.7450140  66.3028520  60.4901430  51.0143240  67.7750300  60.7182760
  49.4200510  66.5245470  53.2096050  49.6949350  67.4324350  53.0815270
  49.2311250  66.4608000  54.1458040  45.8176120  59.5490320  54.5049680
  46.2361000  59.3621300  53.6646340  45.5112180  58.6969370  54.8152610
  49.3165850  64.4614460  58.2025480  48.9409450  63.6942390  57.7706770
  48.5868970  64.8437160  58.6900410  33.9061610  65.1401600  64.8234530
  34.2734650  65.0529000  65.7030550  33.3372430  64.3768150  64.7241390
  32.0823760  61.9647960  56.2256520  31.1787840  62.2278160  56.0508180
  32.5664380  62.2359130  55.4456480  48.5916810  62.6871950  61.5032720
  49.1154290  62.1934600  60.8722890  49.1776230  62.8222310  62.2480290
  48.7706530  62.7711820  65.0252270  47.8209240  62.7375360  65.1397260
  48.9519540  63.6811930  64.7902040  34.6250970  61.0213500  54.1350900
  35.3342670  60.5996720  53.6498180  33.9090910  61.0888730  53.5034250
  34.2725130  57.0752830  53.1753550  34.9953260  57.6161770  53.4934770
  34.5449650  56.8016250  52.2995090  48.0816780  61.9445300  57.4425130
  48.5775900  61.7116170  58.2274010  47.8832850  61.1057140  57.0262770
  33.9617320  56.3259020  63.0776170  34.6093510  55.7756400  62.6371330
  34.3819160  56.5802170  63.8991980  49.5103940  60.5806250  59.9762810
  49.4003220  60.4262290  60.9145080  50.2711530  60.0527190  59.7338220
  50.3994210  58.4114170  53.2168950  51.3243520  58.2795350  53.0087240
  50.3770000  58.4906990  54.1705400  50.4732700  59.1824830  55.8425660
  49.6784200  59.1169950  56.3718570  50.6775980  60.1175470  55.8311010
  47.4151120  73.2216380  59.8364050  48.0110190  72.9000950  59.1598470
  47.6729270  72.7488200  60.6277320  39.0219720  71.2093880  65.5864400
  38.7811080  71.4768440  64.6994920  39.9622360  71.3799610  65.6415260
  44.6056740  55.8928770  65.3082490  43.7316580  56.2263880  65.1055420
  44.4967490  55.4201950  66.1334360  47.9663330  73.8711680  63.6661780
  47.5066300  74.6227490  63.2919800  47.3375790  73.1518150  63.6076580
  34.7913950  69.9654920  66.0560500  34.0648010  69.3460210  65.9886450
  34.8523100  70.3595530  65.1858580  38.3959050  72.1799920  62.8409910
  38.9124070  71.5687280  62.3158170  39.0456430  72.6828700  63.3320920
  41.1354550  73.0708410  63.6678890  41.4232360  72.8162710  62.7911900
  41.6477770  72.5185770  64.2584460  42.3531560  56.8098610  64.2475400
  41.5703350  57.2844110  64.5272160  42.0594490  55.9053440  64.1388580
  46.9052630  57.5121710  62.2924490  47.3460720  57.4566810  61.4446090
  46.6360220  58.4279720  62.3634670  48.7691200  57.1436950  60.3033310
  48.7079600  56.1998170  60.1564330  49.5483230  57.2517040  60.8486770
  33.0743950  73.2829310  59.2657260  32.9065990  72.6499990  59.9639150
  32.2078460  73.4888710  58.9151450  33.6971970  57.1146090  56.7689120
  34.4551330  57.2274970  56.1953150  33.2349140  57.9515290  56.7232550
  40.2385780  59.2285360  59.7591430  39.4260290  58.8542250  59.4187310
  40.7427420  58.4730440  60.0612620  44.7410760  55.8927810  60.9974500
  45.3440130  56.4648020  61.4723020  44.0003750  56.4567250  60.7748400
  47.8845360  56.2949370  56.2714780  48.0795990  57.1932820  56.5382210
  47.0975230  56.0636450  56.7647730  34.6806650  71.9762540  56.7107400
  34.1554270  72.3570570  56.0069360  34.6051230  72.6013310  57.4317110
  36.0697120  57.6410140  55.3091090  36.5989880  56.8539940  55.1799040
  36.7025440  58.3201330  55.5426620  38.2634960  57.3785280  58.3636480
  37.6337700  56.6772590  58.5306610  37.7240100  58.1389410  58.1469640
  49.4371970  73.5350080  58.0321340  49.6124160  72.8487820  57.3882260
  48.7393540  74.0597130  57.6398010  37.2799620  73.9244920  55.5856650
  38.0118440  73.6404200  55.0380540  37.5393290  73.6858200  56.4756030
  36.4414410  70.0409650  55.5902980  35.8123290  70.5094750  56.1388810
  36.5562240  69.1958870  56.0249170  43.8964130  64.0915310  41.7404180
  43.8158180  63.1769920  41.4695890  43.4828550  64.5882380  41.0343890
  42.0282170  65.8694330  43.6213450  41.2524270  65.3894770  43.9112020
  42.6795100  65.1899980  43.4469610  36.0448000  66.1814140  44.4989210
  35.2132880  65.9262850  44.8985720  36.6528980  66.2524910  45.2347130
  46.0489600  70.2754520  42.4012580  45.5871130  69.5041760  42.7299750
  46.8615150  70.3020590  42.9065030  36.0249260  70.2154230  44.6947230
  36.3277300  69.3251970  44.5157450  36.7692850  70.7724450  44.4669480
  32.4172960  63.7421680  44.1671300  32.9889070  62.9743880  44.1674940
  32.4174500  64.0410440  43.2577910  42.2752910  72.5612530  42.0216570
  41.6564350  73.0170030  41.4511010  43.1304690  72.7163990  41.6206270
  41.4691160  68.5451520  43.6283610  41.3999440  67.6041460  43.4672740
  42.2311020  68.6352930  44.2006180  33.6597830  59.1506040  45.9540230
  33.4800670  58.2531790  46.2342990  33.2577910  59.6977910  46.6287180
  42.4996330  61.3521900  43.8552540  42.8761150  60.4793780  43.7426210
  42.4015840  61.6880600  42.9642980  46.2820450  58.8472340  40.7880880
  47.1030070  58.3568910  40.8306360  46.3154530  59.4370000  41.5412720
  34.2784500  61.6466540  44.5622570  34.9594610  61.9104910  45.1809970
  33.9632550  60.8067410  44.8960580  38.4709070  62.6933900  43.6495160
  38.9787290  63.1914870  44.2900180  39.0022310  61.9169100  43.4734520
  50.5720000  60.8639090  47.3524510  49.8672170  61.2520800  46.8339620
  50.8377920  61.5589380  47.9545440  43.1416260  67.4451770  39.4148480
  42.5233530  67.9101220  38.8511200  43.6539510  68.1379250  39.8317990
  38.0048020  66.9727640  46.0932080  37.6717400  67.5996560  46.7353150
  38.1814700  67.4989520  45.3133750  46.5181930  60.7872720  43.5608420
  45.8137500  61.0757610  44.1411530  46.8794090  61.5972830  43.2007980
  37.2167120  68.9408440  47.9081260  37.8341120  69.6159520  47.6265710
  36.3560240  69.3496420  47.8168760  32.5099460  68.1308300  36.7888110
  32.1327440  68.6195400  36.0573010  32.7672530  68.8033580  37.4194640
  48.1344710  70.4047850  45.8235900  47.4508230  71.0746960  45.8152570
  48.6739000  70.6028500  45.0580760  49.5868850  60.2327510  43.9517630
  48.6393760  60.2666490  44.0833060  49.9118840  61.0466460  44.3366990
  45.6703450  72.2491980  44.5381080  45.6830610  71.8454270  43.6703340
  45.1178670  73.0239270  44.4342510  46.9648870  68.9708200  39.6271250
  46.8545200  68.0282530  39.7520670  46.9617120  69.3323840  40.5134010
  45.0688890  67.1521820  45.8663690  45.4857680  66.9381930  45.0317150
  45.7928710  67.4094610  46.4372310  42.5069150  64.5973520  38.9833740
  41.5798430  64.5310900  39.2122210  42.6593970  65.5353650  38.8688980
  42.4938230  60.8690520  35.9800900  41.5541900  61.0304480  36.0653360
  42.8121490  61.5876200  35.4336890  49.0150990  65.5509040  45.9579930
  48.1869620  65.6202130  45.4830060  49.6101470  66.1363350  45.4895760
  46.5366440  66.1593820  39.4868990  45.9178860  65.8213370  38.8395290
  46.5190890  65.5153580  40.1948180  45.9793000  62.3378360  46.9034800
  45.5664180  63.1632070  47.1574790  45.2468950  61.7523400  46.7111160
  38.1125790  65.1238260  41.7653470  37.7082790  64.4115510  41.2699370
  38.1988910  64.7791500  42.6541510  38.5807490  68.8105820  43.9292680
  38.2835780  68.2051290  43.2500460  39.5307310  68.8483130  43.8182040
  36.8254410  61.8981470  45.5452510  37.3769000  62.0076810  44.7705760
  37.3397920  62.2719070  46.2607740  46.6693100  72.3837690  47.5915780
  46.1923660  73.1909880  47.3988390  45.9854890  71.7316020  47.7441990
  37.6725920  68.5487510  50.5800480  36.7754450  68.7727480  50.8273880
  37.6978790  68.6722450  49.6311880  44.7131140  65.3980630  36.4941740
  45.1524420  64.5603060  36.3479560  45.4259560  66.0310030  36.5805880
  36.4997140  65.4200830  49.1557850  36.3604910  66.2923630  49.5245250
  35.6178500  65.0773640  49.0105790  42.8226520  70.3376700  40.4622980
  43.2622430  71.0801030  40.0478370  42.7613410  70.5803270  41.3861940
  38.2977490  71.3622530  51.3643000  38.2692920  71.7665480  50.4971430
  38.1342460  70.4332890  51.2014600  48.2948280  56.6523440  34.8082780
  47.9820940  56.7450270  35.7081850  49.0560750  57.2304470  34.7580210
  34.8130420  64.0183240  39.2660120  34.6928020  64.7445330  38.6541390
  34.5031310  63.2486150  38.7888030  50.2492310  72.1449630  52.6607170
  50.7252030  72.6232520  53.3396250  50.8699470  72.0767120  51.9352670
  32.4515790  67.1898380  45.0728760  32.5296210  67.3247150  44.1284480
  33.0657470  66.4814270  45.2656880  33.6963420  68.8898570  41.4834940
  33.2891500  69.0313160  40.6288540  34.5876430  68.6058730  41.2806150
  49.6525560  69.3362480  49.8207180  49.7788620  69.0974360  48.9024360
  49.6946940  68.5047020  50.2929260  43.5142300  73.0390480  48.3901990
  44.0286970  72.9498490  49.1924420  42.6711380  73.3850180  48.6829900
  45.4896700  73.3245820  37.8185990  45.3297840  73.0348760  38.7167820
  45.3243410  72.5485950  37.2831220  37.9685080  73.1044350  39.5957610
  37.7927560  72.1879890  39.3825410  37.1140820  73.4631640  39.8355410
  45.1922830  70.8333380  36.3783990  44.4987990  70.8310670  35.7186270
  45.9345690  70.4092700  35.9478160  44.7572760  72.4596090  40.4532480
  45.2129710  71.6785470  40.7671100  45.0965280  73.1702910  40.9973660
  49.5049570  61.3894940  50.7856920  48.8893840  61.8974610  50.2572380
  49.1845990  60.4893270  50.7282860  32.5075310  68.2312550  47.6123220
  32.6706350  67.7617910  46.7942590  32.9727760  67.7236110  48.2772060
  41.5663890  60.2286830  48.2519110  41.1043260  60.4369850  49.0639050
  41.1642000  59.4146180  47.9489780  46.5668400  61.4495780  49.3815770
  45.7161990  61.1501530  49.7024840  46.4070190  61.6937790  48.4699590
  43.6618110  62.9497530  51.4814560  43.9871520  62.1161280  51.1416790
  44.4498440  63.4726050  51.6292890  40.3952900  56.9829010  37.5289620
  39.7707080  56.9788880  38.2542930  40.3083020  56.1159970  37.1325590
  37.0708300  62.4851880  40.3765040  36.8449220  62.2689050  41.2811660
  36.2900830  62.9180340  40.0311010  44.3006060  62.4915250  38.9755690
  43.7014950  63.2151050  38.7919310  44.8485670  62.4292030  38.1932140
  39.5107510  63.3837460  51.0425310  39.4151110  62.4432190  50.8925710
  40.3539490  63.6052530  50.6473380  42.9070930  61.1278790  41.0058970
  43.3000500  61.4450990  40.1927660  43.2687780  60.2490670  41.1203490
  34.6418050  59.7951130  49.1959090  34.2481440  60.6426340  49.4031870
  33.9536450  59.1577500  49.3867730  41.2163100  59.8786100  52.2655830
  40.5261420  59.6858300  52.9001920  41.9595400  60.1620740  52.7980130
  31.9435100  57.7179590  43.2289170  31.6548150  58.2882450  43.9414150
  32.6880860  57.2384040  43.5920400  43.4926070  63.7184540  45.1009750
  42.7607190  64.2271350  45.4499850  43.0950410  62.9014520  44.7998530
  39.9303460  60.3938740  43.5062240  39.9339520  59.9528690  42.6566780
  40.8254580  60.7156070  43.6134060  35.7805840  60.2765230  42.4656450
  35.4405890  60.7540460  43.2223500  35.0183160  59.8230350  42.1057550
  39.9923610  61.3950820  36.4969000  40.1136430  61.3537300  37.4454820
  39.6072120  62.2574970  36.3415730  43.9551980  59.1718220  44.5132690
  43.9724720  59.6226870  45.3574540  43.7067560  58.2723860  44.7266130
  39.0045110  63.7051960  35.8952300  38.4362010  63.2570210  35.2688210
  39.7134110  64.0644740  35.3617450  47.3822730  56.5850400  50.3519070
  47.7068500  55.8540060  50.8777050  47.4179240  56.2664040  49.4500060
  34.0814290  67.6063980  49.7719030  33.6969080  66.9657650  50.3701990
  34.3926480  68.3100100  50.3413760  40.2311430  64.4540520  45.2527650
  40.5981560  63.9799090  45.9988990  40.0416490  65.3282090  45.5935990
  38.0210800  63.4949160  47.5711860  37.7167870  64.3741140  47.7962220
  38.9757260  63.5548950  47.6069300  36.5492590  67.7010150  38.1678710
  35.7754850  67.1607770  38.0077430  37.2787220  67.1816760  37.8296470
  47.3080570  66.6975510  43.9605100  48.0279690  67.1930800  43.5701210
  47.1062390  66.0193400  43.3158970  42.7690510  58.0913470  38.1034490
  41.9555120  57.5926640  38.0279800  42.5752460  58.9311720  37.6870840
  42.6899370  66.7684570  49.8474100  42.6236680  65.8480240  49.5931690
  42.0604510  66.8660010  50.5618740  45.4838900  62.4633120  36.3996650
  46.3718520  62.7750350  36.2247990  45.4543990  61.5905370  36.0077230
  36.5929990  67.3690530  41.8057520  37.1108660  66.5658790  41.7514410
  36.1414010  67.3069670  42.6474350  41.4799490  68.6356810  37.0784820
  41.8215190  69.3799040  36.5828140  40.6512200  68.9487930  37.4409650
  34.0774530  64.3351900  48.7183220  33.7189470  65.0005750  49.3056560
  33.7829090  63.5035450  49.0895840  37.2787650  64.7936140  51.6022770
  36.9787790  64.9393320  50.7050590  38.0498890  64.2341430  51.5096160
  42.6216100  69.5905140  49.5977900  42.6360640  68.6586100  49.3796810
  41.9141200  69.6764900  50.2367670  47.7553170  63.7744960  35.8676510
  47.6716890  64.2059180  35.0172950  48.4747360  64.2343310  36.3003330
  48.8327310  66.2312480  48.9446480  48.1075500  66.8241260  48.7475870
  49.3602770  66.2236020  48.1459850  48.7840420  70.6287220  38.5958640
  48.1416580  69.9742840  38.8702360  48.3971080  71.0342310  37.8199310
  44.3626900  67.9572650  42.4430330  44.7150720  67.3600780  41.7831700
  43.4789230  67.6316880  42.6138580  40.4490180  68.7170340  39.8500740
  41.1361310  69.2639550  40.2308330  39.6622600  69.2611070  39.8850350
  39.7517390  65.7216370  39.4626100  40.2080170  66.5321620  39.6886290
  39.4005600  65.4039510  40.2944590  42.0550000  71.2322710  46.6918400
  42.6992220  71.4382090  47.3691820  42.4179440  70.4711110  46.2389250
  43.3282080  69.2355060  45.4095850  43.9704310  68.5348220  45.5228020
  43.8531430  70.0153500  45.2292740  47.1737800  69.5203680  35.1334990
  46.9475380  68.8034120  35.7259630  46.7834000  69.2716120  34.2956740
  45.1019700  70.0349960  48.6131910  45.4375940  70.6216650  49.2909830
  44.1820040  69.9042670  48.8429700  32.9553830  73.5470540  35.9079450
  33.3151470  74.1459880  35.2536720  32.8146170  74.0930430  36.6814480
  32.6523100  57.8245140  49.3955320  31.9381620  58.0242060  50.0007930
  33.0718140  57.0484710  49.7670120  46.7554050  67.4375620  36.7949150
  46.4675750  67.8988310  37.5827030  47.5506220  66.9773390  37.0633370
  32.9395690  71.8125400  50.3821850  33.0486810  70.8720140  50.2417240
  32.2876250  72.0780150  49.7335580  40.9308280  70.0841290  51.7819970
  40.6105150  69.3650530  52.3265660  40.2566640  70.7596360  51.8556030
  38.9722450  70.9301740  36.7253120  38.9632550  71.6631430  36.1097630
  38.0520810  70.6833320  36.8180080  34.5729090  66.1516630  37.4699880
  33.9657040  66.8915530  37.4795180  35.0478440  66.2415990  36.6438080
  44.1461880  60.3167450  47.1456770  44.5142700  59.4962660  47.4736340
  43.2860080  60.3769340  47.5612420  47.5123910  59.2724390  37.9544330
  46.8837070  59.3770060  37.2402560  47.0175830  59.4921170  38.7438210
  41.9582050  70.9929980  35.3878310  42.0594030  70.7893970  34.4580290
  41.0583790  70.7388260  35.5926090  39.4807940  61.5510340  39.3702210
  38.7724090  62.0196680  39.8115820  39.7652420  60.8932350  40.0047400
  41.1063870  62.9707040  47.3694740  41.6049120  63.4452860  48.0346590
  41.2486820  62.0470560  47.5764770  43.5123370  58.2761000  40.8098000
  43.3891150  58.2947130  39.8607510  44.4607930  58.3239940  40.9296400
  40.6000160  73.5116300  40.0825980  40.8541660  73.4737690  39.1605350
  39.6512640  73.3849630  40.0754230  37.6842960  59.8595420  36.7452920
  38.5333490  60.2965570  36.6793110  37.3174230  60.1715680  37.5724980
  48.3130730  59.1875000  48.2123130  47.8104330  59.9280400  48.5516940
  49.1287390  59.5759000  47.8959920  46.6052740  64.4308180  41.6584490
  45.6642880  64.4458410  41.8332180  46.9196810  63.6444140  42.1044790
  48.6078320  71.6017030  43.3338750  48.7325740  72.4248200  43.8062560
  49.4743880  71.3907760  42.9862900  36.0795850  73.6948240  43.0055880
  36.8158330  73.1463700  43.2764450  36.4636770  74.5604250  42.8661870
  32.9641330  69.7621810  38.8797390  32.0381110  70.0042950  38.8702800
  33.4297760  70.5896070  38.7582140  35.0854130  72.8794310  52.1941460
  35.8866860  73.2006360  52.6076860  34.5705950  72.5189890  52.9161370
  39.1898160  72.8678550  34.8281450  39.9826770  73.1567380  34.3763240
  38.6702510  72.4370720  34.1493930  43.9218760  68.9874180  52.1416870
  43.3156920  69.0105780  51.4012620  43.6172870  68.2557220  52.6784120
  45.3519130  72.7154470  50.7526280  46.3040880  72.6312490  50.7026520
  45.2047350  73.3796180  51.4260070  48.2428330  72.0948680  36.2518190
  47.9569840  71.6813820  35.4372370  48.0447880  73.0236390  36.1318710
  32.8051940  65.3667770  51.1377510  33.3090960  64.7875050  51.7093740
  32.0659360  65.6508000  51.6753880  39.7075560  68.0881960  34.6923800
  39.6026200  67.4734310  35.4185180  39.5399780  67.5647850  33.9086810
  39.8589880  66.7738760  50.6713030  39.0935550  67.3423760  50.5867700
  40.0405840  66.4814970  49.7781260  42.9478290  67.1501990  35.2965790
  42.3988390  67.5971290  35.9408530  43.5697550  66.6451240  35.8203460
  47.0013230  68.5044090  51.2288050  47.7422700  68.8419850  50.7255510
  46.2385910  68.6736150  50.6757820  34.8375020  63.5097360  52.0327580
  34.8780360  63.2111230  52.9412810  35.6920520  63.9104970  51.8735100
  38.6153410  66.1092910  37.1931090  39.0369830  65.9432780  38.0362480
  38.7404250  65.2993140  36.6986230  36.7780830  62.0889460  50.0002070
  36.2477290  61.5980410  49.3725410  37.4468900  62.5173660  49.4660000
  41.1281050  65.1330520  34.4408190  41.6486710  64.4179540  34.0749340
  41.7749450  65.7716390  34.7408700  45.6758890  66.5558920  49.7643260
  46.0899910  66.7104000  50.6133680  44.7409890  66.6814140  49.9269040
  46.1481060  63.8955080  51.7682410  46.7301830  63.1407400  51.6802890
  46.3242830  64.4262520  50.9913890  37.2653130  59.0551830  50.0799360
  37.1710000  58.4372580  49.3550230  36.6850520  59.7818120  49.8529270
  40.0314570  57.6125070  47.1126750  39.5831870  57.6349330  46.2672300
  39.3979770  57.2144090  47.7097050  40.4374120  66.5079400  47.7339190
  40.8562230  67.3512130  47.5615430  39.5182750  66.6451440  47.5045970
  42.7738020  64.2395580  49.1177030  42.8934230  63.6436720  49.8571870
  43.6332020  64.2765270  48.6978330  45.1125920  64.7932770  47.6939540
  44.5861140  65.3175390  47.0904680  45.4557260  65.4260160  48.3249270
  38.2881540  72.8132410  48.8496920  37.7502630  73.5378470  48.5305620
  38.5415500  72.3362750  48.0594260  39.5406790  60.7816930  50.3752850
  40.1306480  60.4732780  51.0630670  38.7227030  60.3096680  50.5312750
  44.3600220  60.3982740  50.6085870  43.6715740  59.7364280  50.5435860
  45.0806240  59.9521010  51.0534330  44.9900620  56.9934370  36.6676130
  45.2702910  56.1502270  37.0235550  44.2166350  57.2257480  37.1814880
  41.1443750  74.0483620  49.1083570  41.0702450  74.9518760  49.4155940
  40.2422590  73.7295520  49.0805640  39.5280040  58.2261380  35.1123330
  39.1802040  57.5485370  34.5325780  39.7292810  57.7650890  35.9266720
  41.6929080  73.2142130  36.7309930  42.5879870  73.5527100  36.7528690
  41.7246710  72.4921540  36.1034210  35.3325240  68.5869180  34.9596930
  35.7700110  69.1298850  35.6154510  35.8172970  67.7616130  34.9693270
  32.5471040  71.3758210  42.4117190  32.8774050  70.5079270  42.1795830
  32.9762040  71.5816730  43.2422150  37.1432960  69.7067220  40.0719160
  36.8428500  69.5832190  40.9723070  37.0370450  68.8475810  39.6634890
  33.0361250  72.2428800  45.1498820  32.5992240  72.4229600  45.9822970
  33.6038930  73.0003420  45.0080540  48.6723430  71.7445800  49.4376130
  48.0725420  71.8038360  48.6940050  48.8017330  70.8050780  49.5672980
  49.9124880  69.4863620  34.7745840  49.0817840  69.5540270  35.2453070
  50.0896710  70.3767740  34.4712700  49.3681340  66.2311100  37.2780040
  50.1300250  66.8007750  37.3839730  49.3835710  65.6638300  38.0488350
  32.8685680  64.7549030  41.5087700  32.2134520  64.4860670  40.8647400
  33.7063630  64.6453510  41.0589680  50.3741310  67.0861200  42.1221970
  50.7450140  66.3028520  41.7157940  51.0143240  67.7750300  41.9439270
  47.3575070  68.4697780  47.5352290  46.5434910  68.8994940  47.7978080
  47.7649270  69.0816190  46.9221340  49.4200510  66.5245470  34.4352560
  49.6949350  67.4324350  34.3071780  49.2311250  66.4608000  35.3714550
  45.8176120  59.5490320  35.7306190  46.2361000  59.3621300  34.8902850
  45.5112180  58.6969370  36.0409120  49.3165850  64.4614460  39.4281990
  48.9409450  63.6942390  38.9963280  48.5868970  64.8437160  39.9156920
  33.9061610  65.1401600  46.0491040  34.2734650  65.0529000  46.9287060
  33.3372430  64.3768150  45.9497900  48.7065470  63.6085980  49.0621510
  48.4751560  63.3798730  48.1619460  48.9670020  64.5285530  49.0166400
  33.4577610  62.0510690  49.9549460  32.5633660  62.0177450  50.2943170
  33.9975160  62.2497480  50.7200710  47.1453540  58.8342410  51.8401210
  48.0223720  58.8425810  52.2235210  47.1574380  58.0973250  51.2293560
  48.5916810  62.6871950  42.7289230  49.1154290  62.1934600  42.0979400
  49.1776230  62.8222310  43.4736800  48.7706530  62.7711820  46.2508780
  47.8209240  62.7375360  46.3653770  48.9519540  63.6811930  46.0158550
  48.0816780  61.9445300  38.6681640  48.5775900  61.7116170  39.4530520
  47.8832850  61.1057140  38.2519280  49.5103940  60.5806250  41.2019320
  49.4003220  60.4262290  42.1401590  50.2711530  60.0527190  40.9594730
  47.8569660  56.5200380  47.6602320  48.4941880  57.1334520  48.0261510
  48.0044550  56.5561040  46.7151550  50.3994210  58.4114170  34.4425460
  51.3243520  58.2795350  34.2343750  50.3770000  58.4906990  35.3961910
  50.4732700  59.1824830  37.0682170  49.6784200  59.1169950  37.5975080
  50.6775980  60.1175470  37.0567520  47.4151120  73.2216380  41.0620560
  48.0110190  72.9000950  40.3854980  47.6729270  72.7488200  41.8533830
  35.3213690  69.6534290  51.2111190  35.2783320  69.2827200  52.0925650
  35.4524700  70.5911860  51.3513010  39.0219720  71.2093880  46.8120910
  38.7811080  71.4768440  45.9251430  39.9622360  71.3799610  46.8671770
  41.2274140  57.6726570  50.5677420  41.1663030  58.2648400  51.3172830
  42.1674520  57.5652530  50.4227680  43.8648700  57.3296630  50.2069710
  44.4789110  57.6475920  49.5450790  44.4098260  56.8445220  50.8265570
  50.2823880  73.2288260  47.6131550  49.7882160  73.6257130  46.8958680
  49.6737170  72.6037470  48.0068830  34.3869960  56.0090890  50.3208770
  34.9352950  55.8278940  49.5574880  34.4525270  55.2185000  50.8565080
  35.1601720  72.5996540  48.3308970  34.5662040  72.4681240  49.0699010
  35.1525560  71.7634680  47.8651070  44.6056740  55.8928770  46.5339000
  43.7316580  56.2263880  46.3311930  44.4967490  55.4201950  47.3590870
  45.5128720  58.0999640  47.9180720  45.1842080  57.2851400  47.5382450
  46.4611020  58.0569450  47.7946410  47.9663330  73.8711680  44.8918290
  47.5066300  74.6227490  44.5176310  47.3375790  73.1518150  44.8333090
  34.7913950  69.9654920  47.2817010  34.0648010  69.3460210  47.2142960
  34.8523100  70.3595530  46.4115090  38.3959050  72.1799920  44.0666420
  38.9124070  71.5687280  43.5414680  39.0456430  72.6828700  44.5577430
  41.1354550  73.0708410  44.8935400  41.4232360  72.8162710  44.0168410
  41.6477770  72.5185770  45.4840970  42.3531560  56.8098610  45.4731910
  41.5703350  57.2844110  45.7528670  42.0594490  55.9053440  45.3645090
  46.9052630  57.5121710  43.5181000  47.3460720  57.4566810  42.6702600
  46.6360220  58.4279720  43.5891180  48.7691200  57.1436950  41.5289820
  48.7079600  56.1998170  41.3820840  49.5483230  57.2517040  42.0743280
  33.0743950  73.2829310  40.4913770  32.9065990  72.6499990  41.1895660
  32.2078460  73.4888710  40.1407960  40.2385780  59.2285360  40.9847940
  39.4260290  58.8542250  40.6443820  40.7427420  58.4730440  41.2869130
  44.7410760  55.8927810  42.2231010  45.3440130  56.4648020  42.6979530
  44.0003750  56.4567250  42.0004910  47.8845360  56.2949370  37.4971290
  48.0795990  57.1932820  37.7638720  47.0975230  56.0636450  37.9904240
  34.6806650  71.9762540  37.9363910  34.1554270  72.3570570  37.2325870
  34.6051230  72.6013310  38.6573620  38.2634960  57.3785280  39.5892990
  37.6337700  56.6772590  39.7563120  37.7240100  58.1389410  39.3726150
  41.2026910  73.9924510  52.2603600  42.1294220  73.7568780  52.3039560
  41.1877340  74.8196510  51.7789630  49.4371970  73.5350080  39.2577850
  49.6124160  72.8487820  38.6138770  48.7393540  74.0597130  38.8654520
  38.3890520  56.6569260  52.0245480  38.1074790  57.1602860  51.2606300
  38.7710220  55.8591010  51.6587610  37.2799620  73.9244920  36.8113160
  38.0118440  73.6404200  36.2637050  37.5393290  73.6858200  37.7012540
  36.4414410  70.0409650  36.8159490  35.8123290  70.5094750  37.3645320
  36.5562240  69.1958870  37.2505680  44.9905980  56.0722840  52.6025950
  44.8771430  56.3917450  53.4977470  45.8075720  56.4735350  52.3063230
  47.7704470  73.2194370  52.0844640  48.5629790  72.7243600  51.8770600
  48.0637620  73.8984510  52.6920250  36.0249260  70.2154230  25.9203740
  36.3277300  69.3251970  25.7413960  36.7692850  70.7724450  25.6925990
  42.2752910  72.5612530  23.2473080  41.6564350  73.0170030  22.6767520
  43.1304690  72.7163990  22.8462780  37.2167120  68.9408440  29.1337770
  37.8341120  69.6159520  28.8522220  36.3560240  69.3496420  29.0425270
  32.5099460  68.1308300  18.0144620  32.1327440  68.6195400  17.2829520
  32.7672530  68.8033580  18.6451150  48.1344710  70.4047850  27.0492410
  47.4508230  71.0746960  27.0409080  48.6739000  70.6028500  26.2837270
  45.0688890  67.1521820  27.0920200  45.4857680  66.9381930  26.2573660
  45.7928710  67.4094610  27.6628820  42.4938230  60.8690520  17.2057410
  41.5541900  61.0304480  17.2909870  42.8121490  61.5876200  16.6593400
  49.0150990  65.5509040  27.1836440  48.1869620  65.6202130  26.7086570
  49.6101470  66.1363350  26.7152270  46.6693100  72.3837690  28.8172290
  46.1923660  73.1909880  28.6244900  45.9854890  71.7316020  28.9698500
  38.2977490  71.3622530  32.5899510  38.2692920  71.7665480  31.7227940
  38.1342460  70.4332890  32.4271110  48.2948280  56.6523440  16.0339290
  47.9820940  56.7450270  16.9338360  49.0560750  57.2304470  15.9836720
  34.8130420  64.0183240  20.4916630  34.6928020  64.7445330  19.8797900
  34.5031310  63.2486150  20.0144540  50.2492310  72.1449630  33.8863680
  50.7252030  72.6232520  34.5652760  50.8699470  72.0767120  33.1609180
  33.6963420  68.8898570  22.7091450  33.2891500  69.0313160  21.8545050
  34.5876430  68.6058730  22.5062660  49.6525560  69.3362480  31.0463690
  49.7788620  69.0974360  30.1280870  49.6946940  68.5047020  31.5185770
  43.5142300  73.0390480  29.6158500  44.0286970  72.9498490  30.4180930
  42.6711380  73.3850180  29.9086410  45.4896700  73.3245820  19.0442500
  45.3297840  73.0348760  19.9424330  45.3243410  72.5485950  18.5087730
  37.9685080  73.1044350  20.8214120  37.7927560  72.1879890  20.6081920
  37.1140820  73.4631640  21.0611920  45.1922830  70.8333380  17.6040500
  44.4987990  70.8310670  16.9442780  45.9345690  70.4092700  17.1734670
  49.5049570  61.3894940  32.0113430  48.8893840  61.8974610  31.4828890
  49.1845990  60.4893270  31.9539370  32.5075310  68.2312550  28.8379730
  32.6706350  67.7617910  28.0199100  32.9727760  67.7236110  29.5028570
  46.5668400  61.4495780  30.6072280  45.7161990  61.1501530  30.9281350
  46.4070190  61.6937790  29.6956100  43.6618110  62.9497530  32.7071070
  43.9871520  62.1161280  32.3673300  44.4498440  63.4726050  32.8549400
  40.3952900  56.9829010  18.7546130  39.7707080  56.9788880  19.4799440
  40.3083020  56.1159970  18.3582100  41.2163100  59.8786100  33.4912340
  40.5261420  59.6858300  34.1258430  41.9595400  60.1620740  34.0236640
  32.1305330  61.6599710  15.6648400  32.0480000  62.6030470  15.8063390
  31.7788390  61.5174620  14.7860750  47.3822730  56.5850400  31.5775580
  47.7068500  55.8540060  32.1033560  47.4179240  56.2664040  30.6756570
  42.7690510  58.0913470  19.3291000  41.9555120  57.5926640  19.2536310
  42.5752460  58.9311720  18.9127350  45.4838900  62.4633120  17.6253160
  46.3718520  62.7750350  17.4504500  45.4543990  61.5905370  17.2333740
  42.6216100  69.5905140  30.8234410  42.6360640  68.6586100  30.6053320
  41.9141200  69.6764900  31.4624180  47.7553170  63.7744960  17.0933020
  47.6716890  64.2059180  16.2429460  48.4747360  64.2343310  17.5259840
  48.8327310  66.2312480  30.1702990  48.1075500  66.8241260  29.9732380
  49.3602770  66.2236020  29.3716360  48.7840420  70.6287220  19.8215150
  48.1416580  69.9742840  20.0958870  48.3971080  71.0342310  19.0455820
  32.5882580  64.3343160  16.5674330  33.4577430  64.6167960  16.8510250
  32.0972900  65.1479030  16.4523140  42.0550000  71.2322710  27.9174910
  42.6992220  71.4382090  28.5948330  42.4179440  70.4711110  27.4645760
  47.1737800  69.5203680  16.3591500  46.9475380  68.8034120  16.9516140
  46.7834000  69.2716120  15.5213250  45.1019700  70.0349960  29.8388420
  45.4375940  70.6216650  30.5166340  44.1820040  69.9042670  30.0686210
  32.9553830  73.5470540  17.1335960  33.3151470  74.1459880  16.4793230
  32.8146170  74.0930430  17.9070990  46.7554050  67.4375620  18.0205660
  46.4675750  67.8988310  18.8083540  47.5506220  66.9773390  18.2889880
  40.9308280  70.0841290  33.0076480  40.6105150  69.3650530  33.5522170
  40.2566640  70.7596360  33.0812540  38.9722450  70.9301740  17.9509630
  38.9632550  71.6631430  17.3354140  38.0520810  70.6833320  18.0436590
  34.5729090  66.1516630  18.6956390  33.9657040  66.8915530  18.7051690
  35.0478440  66.2415990  17.8694590  44.1461880  60.3167450  28.3713280
  44.5142700  59.4962660  28.6992850  43.2860080  60.3769340  28.7868930
  47.5123910  59.2724390  19.1800840  46.8837070  59.3770060  18.4659070
  47.0175830  59.4921170  19.9694720  41.9582050  70.9929980  16.6134820
  42.0594030  70.7893970  15.6836800  41.0583790  70.7388260  16.8182600
  40.6000160  73.5116300  21.3082490  40.8541660  73.4737690  20.3861860
  39.6512640  73.3849630  21.3010740  36.5834380  66.1127780  16.4444960
  37.3497650  66.0009140  17.0070390  36.6609070  65.4165750  15.7921730
  36.0795850  73.6948240  24.2312390  36.8158330  73.1463700  24.5020960
  36.4636770  74.5604250  24.0918380  32.9641330  69.7621810  20.1053900
  32.0381110  70.0042950  20.0959310  33.4297760  70.5896070  19.9838650
  35.0854130  72.8794310  33.4197970  35.8866860  73.2006360  33.8333370
  34.5705950  72.5189890  34.1417880  39.1898160  72.8678550  16.0537960
  39.9826770  73.1567380  15.6019750  38.6702510  72.4370720  15.3750440
  43.9218760  68.9874180  33.3673380  43.3156920  69.0105780  32.6269130
  43.6172870  68.2557220  33.9040630  45.3519130  72.7154470  31.9782790
  46.3040880  72.6312490  31.9283030  45.2047350  73.3796180  32.6516580
  48.2428330  72.0948680  17.4774700  47.9569840  71.6813820  16.6628880
  48.0447880  73.0236390  17.3575220  39.7075560  68.0881960  15.9180310
  39.6026200  67.4734310  16.6441690  39.5399780  67.5647850  15.1343320
  42.9478290  67.1501990  16.5222300  42.3988390  67.5971290  17.1665040
  43.5697550  66.6451240  17.0459970  47.0013230  68.5044090  32.4544560
  47.7422700  68.8419850  31.9512020  46.2385910  68.6736150  31.9014330
  41.1281050  65.1330520  15.6664700  41.6486710  64.4179540  15.3005850
  41.7749450  65.7716390  15.9665210  45.6758890  66.5558920  30.9899770
  46.0899910  66.7104000  31.8390190  44.7409890  66.6814140  31.1525550
  46.1481060  63.8955080  32.9938920  46.7301830  63.1407400  32.9059400
  46.3242830  64.4262520  32.2170400  45.1125920  64.7932770  28.9196050
  44.5861140  65.3175390  28.3161190  45.4557260  65.4260160  29.5505780
  38.2881540  72.8132410  30.0753430  37.7502630  73.5378470  29.7562130
  38.5415500  72.3362750  29.2850770  44.3600220  60.3982740  31.8342380
  43.6715740  59.7364280  31.7692370  45.0806240  59.9521010  32.2790840
  44.9900620  56.9934370  17.8932640  45.2702910  56.1502270  18.2492060
  44.2166350  57.2257480  18.4071390  36.3095110  59.2826760  15.3523640
  36.6121010  59.2894190  14.4442790  37.0489700  58.9324620  15.8491300
  41.1443750  74.0483620  30.3340080  41.0702450  74.9518760  30.6412450
  40.2422590  73.7295520  30.3062150  39.5280040  58.2261380  16.3379840
  39.1802040  57.5485370  15.7582290  39.7292810  57.7650890  17.1523230
  41.6929080  73.2142130  17.9566440  42.5879870  73.5527100  17.9785200
  41.7246710  72.4921540  17.3290720  35.3325240  68.5869180  16.1853440
  35.7700110  69.1298850  16.8411020  35.8172970  67.7616130  16.1949780
  32.5471040  71.3758210  23.6373700  32.8774050  70.5079270  23.4052340
  32.9762040  71.5816730  24.4678660  33.0361250  72.2428800  26.3755330
  32.5992240  72.4229600  27.2079480  33.6038930  73.0003420  26.2337050
  48.6723430  71.7445800  30.6632640  48.0725420  71.8038360  29.9196560
  48.8017330  70.8050780  30.7929490  49.9124880  69.4863620  16.0002350
  49.0817840  69.5540270  16.4709580  50.0896710  70.3767740  15.6969210
  49.3681340  66.2311100  18.5036550  50.1300250  66.8007750  18.6096240
  49.3835710  65.6638300  19.2744860  50.3741310  67.0861200  23.3478480
  50.7450140  66.3028520  22.9414450  51.0143240  67.7750300  23.1695780
  47.3575070  68.4697780  28.7608800  46.5434910  68.8994940  29.0234590
  47.7649270  69.0816190  28.1477850  49.4200510  66.5245470  15.6609070
  49.6949350  67.4324350  15.5328290  49.2311250  66.4608000  16.5971060
  45.8176120  59.5490320  16.9562700  46.2361000  59.3621300  16.1159360
  45.5112180  58.6969370  17.2665630  48.7065470  63.6085980  30.2878020
  48.4751560  63.3798730  29.3875970  48.9670020  64.5285530  30.2422910
  47.1453540  58.8342410  33.0657720  48.0223720  58.8425810  33.4491720
  47.1574380  58.0973250  32.4550070  34.2725130  57.0752830  15.6266570
  34.9953260  57.6161770  15.9447790  34.5449650  56.8016250  14.7508110
  48.0816780  61.9445300  19.8938150  48.5775900  61.7116170  20.6787030
  47.8832850  61.1057140  19.4775790  50.3994210  58.4114170  15.6681970
  51.3243520  58.2795350  15.4600260  50.3770000  58.4906990  16.6218420
  50.4732700  59.1824830  18.2938680  49.6784200  59.1169950  18.8231590
  50.6775980  60.1175470  18.2824030  35.3213690  69.6534290  32.4367700
  35.2783320  69.2827200  33.3182160  35.4524700  70.5911860  32.5769520
  39.0219720  71.2093880  28.0377420  38.7811080  71.4768440  27.1507940
  39.9622360  71.3799610  28.0928280  41.2274140  57.6726570  31.7933930
  41.1663030  58.2648400  32.5429340  42.1674520  57.5652530  31.6484190
  43.8648700  57.3296630  31.4326220  44.4789110  57.6475920  30.7707300
  44.4098260  56.8445220  32.0522080  50.2823880  73.2288260  28.8388060
  49.7882160  73.6257130  28.1215190  49.6737170  72.6037470  29.2325340
  35.1601720  72.5996540  29.5565480  34.5662040  72.4681240  30.2955520
  35.1525560  71.7634680  29.0907580  44.6056740  55.8928770  27.7595510
  43.7316580  56.2263880  27.5568440  44.4967490  55.4201950  28.5847380
  47.9663330  73.8711680  26.1174800  47.5066300  74.6227490  25.7432820
  47.3375790  73.1518150  26.0589600  34.7913950  69.9654920  28.5073520
  34.0648010  69.3460210  28.4399470  34.8523100  70.3595530  27.6371600
  38.3959050  72.1799920  25.2922930  38.9124070  71.5687280  24.7671190
  39.0456430  72.6828700  25.7833940  41.1354550  73.0708410  26.1191910
  41.4232360  72.8162710  25.2424920  41.6477770  72.5185770  26.7097480
  42.3531560  56.8098610  26.6988420  41.5703350  57.2844110  26.9785180
  42.0594490  55.9053440  26.5901600  33.0743950  73.2829310  21.7170280
  32.9065990  72.6499990  22.4152170  32.2078460  73.4888710  21.3664470
  47.8845360  56.2949370  18.7227800  48.0795990  57.1932820  18.9895230
  47.0975230  56.0636450  19.2160750  34.6806650  71.9762540  19.1620420
  34.1554270  72.3570570  18.4582380  34.6051230  72.6013310  19.8830130
  36.0697120  57.6410140  17.7604110  36.5989880  56.8539940  17.6312060
  36.7025440  58.3201330  17.9939640  41.2026910  73.9924510  33.4860110
  42.1294220  73.7568780  33.5296070  41.1877340  74.8196510  33.0046140
  49.4371970  73.5350080  20.4834360  49.6124160  72.8487820  19.8395280
  48.7393540  74.0597130  20.0911030  38.3890520  56.6569260  33.2501990
  38.1074790  57.1602860  32.4862810  38.7710220  55.8591010  32.8844120
  37.2799620  73.9244920  18.0369670  38.0118440  73.6404200  17.4893560
  37.5393290  73.6858200  18.9269050  36.4414410  70.0409650  18.0416000
  35.8123290  70.5094750  18.5901830  36.5562240  69.1958870  18.4762190
  44.9905980  56.0722840  33.8282460  44.8771430  56.3917450  34.7233980
  45.8075720  56.4735350  33.5319740  47.7704470  73.2194370  33.3101150
  48.5629790  72.7243600  33.1027110  48.0637620  73.8984510  33.9176760
  43.8964130  64.0915310   4.1917200  43.8158180  63.1769920   3.9208910
  43.4828550  64.5882380   3.4856910  42.0282170  65.8694330   6.0726470
  41.2524270  65.3894770   6.3625040  42.6795100  65.1899980   5.8982630
  36.0448000  66.1814140   6.9502230  35.2132880  65.9262850   7.3498740
  36.6528980  66.2524910   7.6860150  46.0489600  70.2754520   4.8525600
  45.5871130  69.5041760   5.1812770  46.8615150  70.3020590   5.3578050
  36.0249260  70.2154230   7.1460250  36.3277300  69.3251970   6.9670470
  36.7692850  70.7724450   6.9182500  32.4172960  63.7421680   6.6184320
  32.9889070  62.9743880   6.6187960  32.4174500  64.0410440   5.7090930
  42.2752910  72.5612530   4.4729590  41.6564350  73.0170030   3.9024030
  43.1304690  72.7163990   4.0719290  41.4691160  68.5451520   6.0796630
  41.3999440  67.6041460   5.9185760  42.2311020  68.6352930   6.6519200
  33.6597830  59.1506040   8.4053250  33.4800670  58.2531790   8.6856010
  33.2577910  59.6977910   9.0800200  42.4996330  61.3521900   6.3065560
  42.8761150  60.4793780   6.1939230  42.4015840  61.6880600   5.4156000
  36.6301340  59.7247530   1.7683000  36.7368090  60.6251260   2.0751760
  35.7193700  59.6765500   1.4777650  46.2820450  58.8472340   3.2393900
  47.1030070  58.3568910   3.2819380  46.3154530  59.4370000   3.9925740
  34.2784500  61.6466540   7.0135590  34.9594610  61.9104910   7.6322990
  33.9632550  60.8067410   7.3473600  38.4709070  62.6933900   6.1008180
  38.9787290  63.1914870   6.7413200  39.0022310  61.9169100   5.9247540
  50.5720000  60.8639090   9.8037530  49.8672170  61.2520800   9.2852640
  50.8377920  61.5589380  10.4058460  36.7545170  57.3332460  10.3671600
  36.7563610  57.8504850   9.5617500  35.9249480  56.8562640  10.3441530
  38.0048020  66.9727640   8.5445100  37.6717400  67.5996560   9.1866170
  38.1814700  67.4989520   7.7646770  46.5181930  60.7872720   6.0121440
  45.8137500  61.0757610   6.5924550  46.8794090  61.5972830   5.6521000
  36.4360500  59.0442420   8.3742050  36.7777310  59.8884470   8.0795920
  35.4976310  59.1926160   8.4907390  37.2167120  68.9408440  10.3594280
  37.8341120  69.6159520  10.0778730  36.3560240  69.3496420  10.2681780
  48.1344710  70.4047850   8.2748920  47.4508230  71.0746960   8.2665590
  48.6739000  70.6028500   7.5093780  49.5868850  60.2327510   6.4030650
  48.6393760  60.2666490   6.5346080  49.9118840  61.0466460   6.7880010
  40.1188390  56.5324690   4.6986640  40.4263370  55.9771580   3.9822140
  39.1889090  56.6669150   4.5159630  45.6703450  72.2491980   6.9894100
  45.6830610  71.8454270   6.1216360  45.1178670  73.0239270   6.8855530
  46.9648870  68.9708200   2.0784270  46.8545200  68.0282530   2.2033690
  46.9617120  69.3323840   2.9647030  45.0688890  67.1521820   8.3176710
  45.4857680  66.9381930   7.4830170  45.7928710  67.4094610   8.8885330
  49.0150990  65.5509040   8.4092950  48.1869620  65.6202130   7.9343080
  49.6101470  66.1363350   7.9408780  45.9793000  62.3378360   9.3547820
  45.5664180  63.1632070   9.6087810  45.2468950  61.7523400   9.1624180
  38.1125790  65.1238260   4.2166490  37.7082790  64.4115510   3.7212390
  38.1988910  64.7791500   5.1054530  38.5807490  68.8105820   6.3805700
  38.2835780  68.2051290   5.7013480  39.5307310  68.8483130   6.2695060
  36.8254410  61.8981470   7.9965530  37.3769000  62.0076810   7.2218780
  37.3397920  62.2719070   8.7120760  46.6693100  72.3837690  10.0428800
  46.1923660  73.1909880   9.8501410  45.9854890  71.7316020  10.1955010
  37.6725920  68.5487510  13.0313500  36.7754450  68.7727480  13.2786900
  37.6978790  68.6722450  12.0824900  36.4997140  65.4200830  11.6070870
  36.3604910  66.2923630  11.9758270  35.6178500  65.0773640  11.4618810
  42.8226520  70.3376700   2.9136000  43.2622430  71.0801030   2.4991390
  42.7613410  70.5803270   3.8374960  38.2977490  71.3622530  13.8156020
  38.2692920  71.7665480  12.9484450  38.1342460  70.4332890  13.6527620
  50.2492310  72.1449630  15.1120190  50.7252030  72.6232520  15.7909270
  50.8699470  72.0767120  14.3865690  32.4515790  67.1898380   7.5241780
  32.5296210  67.3247150   6.5797500  33.0657470  66.4814270   7.7169900
  33.6963420  68.8898570   3.9347960  33.2891500  69.0313160   3.0801560
  34.5876430  68.6058730   3.7319170  49.6525560  69.3362480  12.2720200
  49.7788620  69.0974360  11.3537380  49.6946940  68.5047020  12.7442280
  43.5142300  73.0390480  10.8415010  44.0286970  72.9498490  11.6437440
  42.6711380  73.3850180  11.1342920  37.9685080  73.1044350   2.0470630
  37.7927560  72.1879890   1.8338430  37.1140820  73.4631640   2.2868430
  44.7572760  72.4596090   2.9045500  45.2129710  71.6785470   3.2184120
  45.0965280  73.1702910   3.4486680  49.5049570  61.3894940  13.2369940
  48.8893840  61.8974610  12.7085400  49.1845990  60.4893270  13.1795880
  32.5075310  68.2312550  10.0636240  32.6706350  67.7617910   9.2455610
  32.9727760  67.7236110  10.7285080  37.2794080  57.3618310   5.0996810
  36.8362230  58.1427850   4.7681330  37.8379070  57.6848200   5.8067750
  41.5663890  60.2286830  10.7032130  41.1043260  60.4369850  11.5152070
  41.1642000  59.4146180  10.4002800  46.5668400  61.4495780  11.8328790
  45.7161990  61.1501530  12.1537860  46.4070190  61.6937790  10.9212610
  43.6618110  62.9497530  13.9327580  43.9871520  62.1161280  13.5929810
  44.4498440  63.4726050  14.0805910  39.3169980  57.9065640   6.9586410
  39.6142310  58.8128470   6.8778430  39.8655540  57.4184420   6.3445980
  37.0708300  62.4851880   2.8278060  36.8449220  62.2689050   3.7324680
  36.2900830  62.9180340   2.4824030  39.5107510  63.3837460  13.4938330
  39.4151110  62.4432190  13.3438730  40.3539490  63.6052530  13.0986400
  42.9070930  61.1278790   3.4571990  43.3000500  61.4450990   2.6440680
  43.2687780  60.2490670   3.5716510  34.6418050  59.7951130  11.6472110
  34.2481440  60.6426340  11.8544890  33.9536450  59.1577500  11.8380750
  41.2163100  59.8786100  14.7168850  40.5261420  59.6858300  15.3514940
  41.9595400  60.1620740  15.2493150  31.9435100  57.7179590   5.6802190
  31.6548150  58.2882450   6.3927170  32.6880860  57.2384040   6.0433420
  43.4926070  63.7184540   7.5522770  42.7607190  64.2271350   7.9012870
  43.0950410  62.9014520   7.2511550  39.9303460  60.3938740   5.9575260
  39.9339520  59.9528690   5.1079800  40.8254580  60.7156070   6.0647080
  35.7805840  60.2765230   4.9169470  35.4405890  60.7540460   5.6736520
  35.0183160  59.8230350   4.5570570  43.9551980  59.1718220   6.9645710
  43.9724720  59.6226870   7.8087560  43.7067560  58.2723860   7.1779150
  47.3822730  56.5850400  12.8032090  47.7068500  55.8540060  13.3290070
  47.4179240  56.2664040  11.9013080  34.0814290  67.6063980  12.2232050
  33.6969080  66.9657650  12.8215010  34.3926480  68.3100100  12.7926780
  40.2311430  64.4540520   7.7040670  40.5981560  63.9799090   8.4502010
  40.0416490  65.3282090   8.0449010  33.0951920  59.1984210   3.8334140
  32.8098840  58.8339880   4.6712760  33.0330780  58.4664670   3.2197280
  38.0210800  63.4949160  10.0224880  37.7167870  64.3741140  10.2475240
  38.9757260  63.5548950  10.0582320  47.3080570  66.6975510   6.4118120
  48.0279690  67.1930800   6.0214230  47.1062390  66.0193400   5.7671990
  42.6899370  66.7684570  12.2987120  42.6236680  65.8480240  12.0444710
  42.0604510  66.8660010  13.0131760  36.5929990  67.3690530   4.2570540
  37.1108660  66.5658790   4.2027430  36.1414010  67.3069670   5.0987370
  34.0774530  64.3351900  11.1696240  33.7189470  65.0005750  11.7569580
  33.7829090  63.5035450  11.5408860  37.2787650  64.7936140  14.0535790
  36.9787790  64.9393320  13.1563610  38.0498890  64.2341430  13.9609180
  42.6216100  69.5905140  12.0490920  42.6360640  68.6586100  11.8309830
  41.9141200  69.6764900  12.6880690  48.8327310  66.2312480  11.3959500
  48.1075500  66.8241260  11.1988890  49.3602770  66.2236020  10.5972870
  44.3626900  67.9572650   4.8943350  44.7150720  67.3600780   4.2344720
  43.4789230  67.6316880   5.0651600  40.4490180  68.7170340   2.3013760
  41.1361310  69.2639550   2.6821350  39.6622600  69.2611070   2.3363370
  39.7517390  65.7216370   1.9139120  40.2080170  66.5321620   2.1399310
  39.4005600  65.4039510   2.7457610  42.0550000  71.2322710   9.1431420
  42.6992220  71.4382090   9.8204840  42.4179440  70.4711110   8.6902270
  35.6529170  56.0654020   2.3861640  35.5243800  56.0571920   3.3346560
  34.8291190  56.4037110   2.0352650  43.3282080  69.2355060   7.8608870
  43.9704310  68.5348220   7.9741040  43.8531430  70.0153500   7.6805760
  45.1019700  70.0349960  11.0644930  45.4375940  70.6216650  11.7422850
  44.1820040  69.9042670  11.2942720  32.6523100  57.8245140  11.8468340
  31.9381620  58.0242060  12.4520950  33.0718140  57.0484710  12.2183140
  32.9395690  71.8125400  12.8334870  33.0486810  70.8720140  12.6930260
  32.2876250  72.0780150  12.1848600  40.9308280  70.0841290  14.2332990
  40.6105150  69.3650530  14.7778680  40.2566640  70.7596360  14.3069050
  44.1461880  60.3167450   9.5969790  44.5142700  59.4962660   9.9249360
  43.2860080  60.3769340  10.0125440  39.4807940  61.5510340   1.8215230
  38.7724090  62.0196680   2.2628840  39.7652420  60.8932350   2.4560420
  41.1063870  62.9707040   9.8207760  41.6049120  63.4452860  10.4859610
  41.2486820  62.0470560  10.0277790  43.5123370  58.2761000   3.2611020
  43.3891150  58.2947130   2.3120530  44.4607930  58.3239940   3.3809420
  40.6000160  73.5116300   2.5339000  40.8541660  73.4737690   1.6118370
  39.6512640  73.3849630   2.5267250  48.3130730  59.1875000  10.6636150
  47.8104330  59.9280400  11.0029960  49.1287390  59.5759000  10.3472940
  46.6052740  64.4308180   4.1097510  45.6642880  64.4458410   4.2845200
  46.9196810  63.6444140   4.5557810  48.6078320  71.6017030   5.7851770
  48.7325740  72.4248200   6.2575580  49.4743880  71.3907760   5.4375920
  36.0795850  73.6948240   5.4568900  36.8158330  73.1463700   5.7277470
  36.4636770  74.5604250   5.3174890  35.0854130  72.8794310  14.6454480
  35.8866860  73.2006360  15.0589880  34.5705950  72.5189890  15.3674390
  43.9218760  68.9874180  14.5929890  43.3156920  69.0105780  13.8525640
  43.6172870  68.2557220  15.1297140  45.3519130  72.7154470  13.2039300
  46.3040880  72.6312490  13.1539540  45.2047350  73.3796180  13.8773090
  32.8051940  65.3667770  13.5890530  33.3090960  64.7875050  14.1606760
  32.0659360  65.6508000  14.1266900  39.8589880  66.7738760  13.1226050
  39.0935550  67.3423760  13.0380720  40.0405840  66.4814970  12.2294280
  47.0013230  68.5044090  13.6801070  47.7422700  68.8419850  13.1768530
  46.2385910  68.6736150  13.1270840  34.8375020  63.5097360  14.4840600
  34.8780360  63.2111230  15.3925830  35.6920520  63.9104970  14.3248120
  36.7780830  62.0889460  12.4515090  36.2477290  61.5980410  11.8238430
  37.4468900  62.5173660  11.9173020  45.6758890  66.5558920  12.2156280
  46.0899910  66.7104000  13.0646700  44.7409890  66.6814140  12.3782060
  46.1481060  63.8955080  14.2195430  46.7301830  63.1407400  14.1315910
  46.3242830  64.4262520  13.4426910  37.2653130  59.0551830  12.5312380
  37.1710000  58.4372580  11.8063250  36.6850520  59.7818120  12.3042290
  40.0314570  57.6125070   9.5639770  39.5831870  57.6349330   8.7185320
  39.3979770  57.2144090  10.1610070  40.4374120  66.5079400  10.1852210
  40.8562230  67.3512130  10.0128450  39.5182750  66.6451440   9.9558990
  42.7738020  64.2395580  11.5690050  42.8934230  63.6436720  12.3084890
  43.6332020  64.2765270  11.1491350  45.1125920  64.7932770  10.1452560
  44.5861140  65.3175390   9.5417700  45.4557260  65.4260160  10.7762290
  38.2881540  72.8132410  11.3009940  37.7502630  73.5378470  10.9818640
  38.5415500  72.3362750  10.5107280  39.5406790  60.7816930  12.8265870
  40.1306480  60.4732780  13.5143690  38.7227030  60.3096680  12.9825770
  44.3600220  60.3982740  13.0598890  43.6715740  59.7364280  12.9948880
  45.0806240  59.9521010  13.5047350  41.1443750  74.0483620  11.5596590
  41.0702450  74.9518760  11.8668960  40.2422590  73.7295520  11.5318660
  32.5471040  71.3758210   4.8630210  32.8774050  70.5079270   4.6308850
  32.9762040  71.5816730   5.6935170  37.1432960  69.7067220   2.5232180
  36.8428500  69.5832190   3.4236090  37.0370450  68.8475810   2.1147910
  33.0361250  72.2428800   7.6011840  32.5992240  72.4229600   8.4335990
  33.6038930  73.0003420   7.4593560  48.6723430  71.7445800  11.8889150
  48.0725420  71.8038360  11.1453070  48.8017330  70.8050780  12.0186000
  32.8685680  64.7549030   3.9600720  32.2134520  64.4860670   3.3160420
  33.7063630  64.6453510   3.5102700  50.3741310  67.0861200   4.5734990
  50.7450140  66.3028520   4.1670960  51.0143240  67.7750300   4.3952290
  47.3575070  68.4697780   9.9865310  46.5434910  68.8994940  10.2491100
  47.7649270  69.0816190   9.3734360  49.3165850  64.4614460   1.8795010
  48.9409450  63.6942390   1.4476300  48.5868970  64.8437160   2.3669940
  33.9061610  65.1401600   8.5004060  34.2734650  65.0529000   9.3800080
  33.3372430  64.3768150   8.4010920  48.7065470  63.6085980  11.5134530
  48.4751560  63.3798730  10.6132480  48.9670020  64.5285530  11.4679420
  33.4577610  62.0510690  12.4062480  32.5633660  62.0177450  12.7456190
  33.9975160  62.2497480  13.1713730  47.1453540  58.8342410  14.2914230
  48.0223720  58.8425810  14.6748230  47.1574380  58.0973250  13.6806580
  48.5916810  62.6871950   5.1802250  49.1154290  62.1934600   4.5492420
  49.1776230  62.8222310   5.9249820  48.7706530  62.7711820   8.7021800
  47.8209240  62.7375360   8.8166790  48.9519540  63.6811930   8.4671570
  33.9617320  56.3259020   6.7545700  34.6093510  55.7756400   6.3140860
  34.3819160  56.5802170   7.5761510  49.5103940  60.5806250   3.6532340
  49.4003220  60.4262290   4.5914610  50.2711530  60.0527190   3.4107750
  47.8569660  56.5200380  10.1115340  48.4941880  57.1334520  10.4774530
  48.0044550  56.5561040   9.1664570  47.4151120  73.2216380   3.5133580
  48.0110190  72.9000950   2.8368000  47.6729270  72.7488200   4.3046850
  33.7149320  56.4814690   9.4971020  33.3664140  56.9378510  10.2629200
  33.3837020  55.5871820   9.5793450  35.3213690  69.6534290  13.6624210
  35.2783320  69.2827200  14.5438670  35.4524700  70.5911860  13.8026030
  39.0219720  71.2093880   9.2633930  38.7811080  71.4768440   8.3764450
  39.9622360  71.3799610   9.3184790  41.2274140  57.6726570  13.0190440
  41.1663030  58.2648400  13.7685850  42.1674520  57.5652530  12.8740700
  43.8648700  57.3296630  12.6582730  44.4789110  57.6475920  11.9963810
  44.4098260  56.8445220  13.2778590  50.2823880  73.2288260  10.0644570
  49.7882160  73.6257130   9.3471700  49.6737170  72.6037470  10.4581850
  34.3869960  56.0090890  12.7721790  34.9352950  55.8278940  12.0087900
  34.4525270  55.2185000  13.3078100  35.1601720  72.5996540  10.7821990
  34.5662040  72.4681240  11.5212030  35.1525560  71.7634680  10.3164090
  44.6056740  55.8928770   8.9852020  43.7316580  56.2263880   8.7824950
  44.4967490  55.4201950   9.8103890  45.5128720  58.0999640  10.3693740
  45.1842080  57.2851400   9.9895470  46.4611020  58.0569450  10.2459430
  47.9663330  73.8711680   7.3431310  47.5066300  74.6227490   6.9689330
  47.3375790  73.1518150   7.2846110  34.7913950  69.9654920   9.7330030
  34.0648010  69.3460210   9.6655980  34.8523100  70.3595530   8.8628110
  38.3959050  72.1799920   6.5179440  38.9124070  71.5687280   5.9927700
  39.0456430  72.6828700   7.0090450  41.1354550  73.0708410   7.3448420
  41.4232360  72.8162710   6.4681430  41.6477770  72.5185770   7.9353990
  42.3531560  56.8098610   7.9244930  41.5703350  57.2844110   8.2041690
  42.0594490  55.9053440   7.8158110  46.9052630  57.5121710   5.9694020
  47.3460720  57.4566810   5.1215620  46.6360220  58.4279720   6.0404200
  48.7691200  57.1436950   3.9802840  48.7079600  56.1998170   3.8333860
  49.5483230  57.2517040   4.5256300  33.0743950  73.2829310   2.9426790
  32.9065990  72.6499990   3.6408680  32.2078460  73.4888710   2.5920980
  40.2385780  59.2285360   3.4360960  39.4260290  58.8542250   3.0956840
  40.7427420  58.4730440   3.7382150  44.7410760  55.8927810   4.6744030
  45.3440130  56.4648020   5.1492550  44.0003750  56.4567250   4.4517930
  38.2634960  57.3785280   2.0406010  37.6337700  56.6772590   2.2076140
  37.7240100  58.1389410   1.8239170  41.2026910  73.9924510  14.7116620
  42.1294220  73.7568780  14.7552580  41.1877340  74.8196510  14.2302650
  38.3890520  56.6569260  14.4758500  38.1074790  57.1602860  13.7119320
  38.7710220  55.8591010  14.1100630  44.9905980  56.0722840  15.0538970
  44.8771430  56.3917450  15.9490490  45.8075720  56.4735350  14.7576250
  47.7704470  73.2194370  14.5357660  48.5629790  72.7243600  14.3283620
  48.0637620  73.8984510  15.1433270  43.8964130  45.3171820  60.5147670
  43.8158180  44.4026430  60.2439380  43.4828550  45.8138890  59.8087380
  42.0282170  47.0950840  62.3956940  41.2524270  46.6151280  62.6855510
  42.6795100  46.4156490  62.2213100  36.0448000  47.4070650  63.2732700
  35.2132880  47.1519360  63.6729210  36.6528980  47.4781420  64.0090620
  46.0489600  51.5011030  61.1756070  45.5871130  50.7298270  61.5043240
  46.8615150  51.5277100  61.6808520  36.0249260  51.4410740  63.4690720
  36.3277300  50.5508480  63.2900940  36.7692850  51.9980960  63.2412970
  34.4539950  42.3672540  57.0575090  33.5656650  42.7088510  56.9554970
  34.7381140  42.1672860  56.1655920  32.4172960  44.9678190  62.9414790
  32.9889070  44.2000390  62.9418430  32.4174500  45.2666950  62.0321400
  42.2752910  53.7869040  60.7960060  41.6564350  54.2426540  60.2254500
  43.1304690  53.9420500  60.3949760  41.4691160  49.7708030  62.4027100
  41.3999440  48.8297970  62.2416230  42.2311020  49.8609440  62.9749670
  33.6597830  40.3762550  64.7283720  33.4800670  39.4788300  65.0086480
  33.2577910  40.9234420  65.4030670  42.4996330  42.5778410  62.6296030
  42.8761150  41.7050290  62.5169700  42.4015840  42.9137110  61.7386470
  36.6301340  40.9504040  58.0913470  36.7368090  41.8507770  58.3982230
  35.7193700  40.9022010  57.8008120  46.2820450  40.0728850  59.5624370
  47.1030070  39.5825420  59.6049850  46.3154530  40.6626510  60.3156210
  34.2784500  42.8723050  63.3366060  34.9594610  43.1361420  63.9553460
  33.9632550  42.0323920  63.6704070  38.4709070  43.9190410  62.4238650
  38.9787290  44.4171380  63.0643670  39.0022310  43.1425610  62.2478010
  43.1416260  48.6708280  58.1891970  42.5233530  49.1357730  57.6254690
  43.6539510  49.3635760  58.6061480  38.0048020  48.1984150  64.8675570
  37.6717400  48.8253070  65.5096640  38.1814700  48.7246030  64.0877240
  46.5181930  42.0129230  62.3351910  45.8137500  42.3014120  62.9155020
  46.8794090  42.8229340  61.9751470  36.4360500  40.2698930  64.6972520
  36.7777310  41.1140980  64.4026390  35.4976310  40.4182670  64.8137860
  32.5099460  49.3564810  55.5631600  32.1327440  49.8451910  54.8316500
  32.7672530  50.0290090  56.1938130  48.1344710  51.6304360  64.5979390
  47.4508230  52.3003470  64.5896060  48.6739000  51.8285010  63.8324250
  49.5868850  41.4584020  62.7261120  48.6393760  41.4923000  62.8576550
  49.9118840  42.2722970  63.1110480  40.1188390  37.7581200  61.0217110
  40.4263370  37.2028090  60.3052610  39.1889090  37.8925660  60.8390100
  45.6703450  53.4748490  63.3124570  45.6830610  53.0710780  62.4446830
  45.1178670  54.2495780  63.2086000  46.9648870  50.1964710  58.4014740
  46.8545200  49.2539040  58.5264160  46.9617120  50.5580350  59.2877500
  45.0688890  48.3778330  64.6407180  45.4857680  48.1638440  63.8060640
  45.7928710  48.6351120  65.2115800  42.5069150  45.8230030  57.7577230
  41.5798430  45.7567410  57.9865700  42.6593970  46.7610160  57.6432470
  42.4938230  42.0947030  54.7544390  41.5541900  42.2560990  54.8396850
  42.8121490  42.8132710  54.2080380  49.0150990  46.7765550  64.7323420
  48.1869620  46.8458640  64.2573550  49.6101470  47.3619860  64.2639250
  46.5366440  47.3850330  58.2612480  45.9178860  47.0469880  57.6138780
  46.5190890  46.7410090  58.9691670  45.9793000  43.5634870  65.6778290
  45.5664180  44.3888580  65.9318280  45.2468950  42.9779910  65.4854650
  38.1125790  46.3494770  60.5396960  37.7082790  45.6372020  60.0442860
  38.1988910  46.0048010  61.4285000  38.5807490  50.0362330  62.7036170
  38.2835780  49.4307800  62.0243950  39.5307310  50.0739640  62.5925530
  36.8254410  43.1237980  64.3196000  37.3769000  43.2333320  63.5449250
  37.3397920  43.4975580  65.0351230  46.6693100  53.6094200  66.3659270
  46.1923660  54.4166390  66.1731880  45.9854890  52.9572530  66.5185480
  44.7131140  46.6237140  55.2685230  45.1524420  45.7859570  55.1223050
  45.4259560  47.2566540  55.3549370  42.8226520  51.5633210  59.2366470
  43.2622430  52.3057540  58.8221860  42.7613410  51.8059780  60.1605430
  48.2948280  37.8779950  53.5826270  47.9820940  37.9706780  54.4825340
  49.0560750  38.4560980  53.5323700  34.8130420  45.2439750  58.0403610
  34.6928020  45.9701840  57.4284880  34.5031310  44.4742660  57.5631520
  32.4515790  48.4154890  63.8472250  32.5296210  48.5503660  62.9027970
  33.0657470  47.7070780  64.0400370  33.6963420  50.1155080  60.2578430
  33.2891500  50.2569670  59.4032030  34.5876430  49.8315240  60.0549640
  45.4896700  54.5502330  56.5929480  45.3297840  54.2605270  57.4911310
  45.3243410  53.7742460  56.0574710  37.9685080  54.3300860  58.3701100
  37.7927560  53.4136400  58.1568900  37.1140820  54.6888150  58.6098900
  45.1922830  52.0589890  55.1527480  44.4987990  52.0567180  54.4929760
  45.9345690  51.6349210  54.7221650  44.7572760  53.6852600  59.2275970
  45.2129710  52.9041980  59.5414590  45.0965280  54.3959420  59.7717150
  37.2794080  38.5874820  61.4227280  36.8362230  39.3684360  61.0911800
  37.8379070  38.9104710  62.1298220  40.3952900  38.2085520  56.3033110
  39.7707080  38.2045390  57.0286420  40.3083020  37.3416480  55.9069080
  39.3169980  39.1322150  63.2816880  39.6142310  40.0384980  63.2008900
  39.8655540  38.6440930  62.6676450  37.0708300  43.7108390  59.1508530
  36.8449220  43.4945560  60.0555150  36.2900830  44.1436850  58.8054500
  44.3006060  43.7171760  57.7499180  43.7014950  44.4407560  57.5662800
  44.8485670  43.6548540  56.9675630  42.9070930  42.3535300  59.7802460
  43.3000500  42.6707500  58.9671150  43.2687780  41.4747180  59.8946980
  31.9435100  38.9436100  62.0032660  31.6548150  39.5138960  62.7157640
  32.6880860  38.4640550  62.3663890  32.1305330  42.8856220  53.2135380
  32.0480000  43.8286980  53.3550370  31.7788390  42.7431130  52.3347730
  43.4926070  44.9441050  63.8753240  42.7607190  45.4527860  64.2243340
  43.0950410  44.1271030  63.5742020  39.9303460  41.6195250  62.2805730
  39.9339520  41.1785200  61.4310270  40.8254580  41.9412580  62.3877550
  35.7805840  41.5021740  61.2399940  35.4405890  41.9796970  61.9966990
  35.0183160  41.0486860  60.8801040  39.9923610  42.6207330  55.2712490
  40.1136430  42.5793810  56.2198310  39.6072120  43.4831480  55.1159220
  43.9551980  40.3974730  63.2876180  43.9724720  40.8483380  64.1318030
  43.7067560  39.4980370  63.5009620  39.0045110  44.9308470  54.6695790
  38.4362010  44.4826720  54.0431700  39.7134110  45.2901250  54.1360940
  40.2311430  45.6797030  64.0271140  40.5981560  45.2055600  64.7732480
  40.0416490  46.5538600  64.3679480  33.0951920  40.4240720  60.1564610
  32.8098840  40.0596390  60.9943230  33.0330780  39.6921180  59.5427750
  36.5492590  48.9266660  56.9422200  35.7754850  48.3864280  56.7820920
  37.2787220  48.4073270  56.6039960  47.3080570  47.9232020  62.7348590
  48.0279690  48.4187310  62.3444700  47.1062390  47.2449910  62.0902460
  42.7690510  39.3169980  56.8777980  41.9555120  38.8183150  56.8023290
  42.5752460  40.1568230  56.4614330  45.4838900  43.6889630  55.1740140
  46.3718520  44.0006860  54.9991480  45.4543990  42.8161880  54.7820720
  36.5929990  48.5947040  60.5801010  37.1108660  47.7915300  60.5257900
  36.1414010  48.5326180  61.4217840  41.4799490  49.8613320  55.8528310
  41.8215190  50.6055550  55.3571630  40.6512200  50.1744440  56.2153140
  47.7553170  45.0001470  54.6420000  47.6716890  45.4315690  53.7916440
  48.4747360  45.4599820  55.0746820  48.7840420  51.8543730  57.3702130
  48.1416580  51.1999350  57.6445850  48.3971080  52.2598820  56.5942800
  44.3626900  49.1829160  61.2173820  44.7150720  48.5857290  60.5575190
  43.4789230  48.8573390  61.3882070  40.4490180  49.9426850  58.6244230
  41.1361310  50.4896060  59.0051820  39.6622600  50.4867580  58.6593840
  32.5882580  45.5599670  54.1161310  33.4577430  45.8424470  54.3997230
  32.0972900  46.3735540  54.0010120  39.7517390  46.9472880  58.2369590
  40.2080170  47.7578130  58.4629780  39.4005600  46.6296020  59.0688080
  42.0550000  52.4579220  65.4661890  42.6992220  52.6638600  66.1435310
  42.4179440  51.6967620  65.0132740  35.6529170  37.2910530  58.7092110
  35.5243800  37.2828430  59.6577030  34.8291190  37.6293620  58.3583120
  43.3282080  50.4611570  64.1839340  43.9704310  49.7604730  64.2971510
  43.8531430  51.2410010  64.0036230  47.1737800  50.7460190  53.9078480
  46.9475380  50.0290630  54.5003120  46.7834000  50.4972630  53.0700230
  32.9553830  54.7727050  54.6822940  33.3151470  55.3716390  54.0280210
  32.8146170  55.3186940  55.4557970  46.7554050  48.6632130  55.5692640
  46.4675750  49.1244820  56.3570520  47.5506220  48.2029900  55.8376860
  38.9722450  52.1558250  55.4996610  38.9632550  52.8887940  54.8841120
  38.0520810  51.9089830  55.5923570  34.5729090  47.3773140  56.2443370
  33.9657040  48.1172040  56.2538670  35.0478440  47.4672500  55.4181570
  44.1461880  41.5423960  65.9200260  44.5142700  40.7219170  66.2479830
  43.2860080  41.6025850  66.3355910  47.5123910  40.4980900  56.7287820
  46.8837070  40.6026570  56.0146050  47.0175830  40.7177680  57.5181700
  41.9582050  52.2186490  54.1621800  42.0594030  52.0150480  53.2323780
  41.0583790  51.9644770  54.3669580  39.4807940  42.7766850  58.1445700
  38.7724090  43.2453190  58.5859310  39.7652420  42.1188860  58.7790890
  43.5123370  39.5017510  59.5841490  43.3891150  39.5203640  58.6351000
  44.4607930  39.5496450  59.7039890  40.6000160  54.7372810  58.8569470
  40.8541660  54.6994200  57.9348840  39.6512640  54.6106140  58.8497720
  37.6842960  41.0851930  55.5196410  38.5333490  41.5222080  55.4536600
  37.3174230  41.3972190  56.3468470  46.6052740  45.6564690  60.4327980
  45.6642880  45.6714920  60.6075670  46.9196810  44.8700650  60.8788280
  36.5834380  47.3384290  53.9931940  37.3497650  47.2265650  54.5557370
  36.6609070  46.6422260  53.3408710  35.2781140  44.7709360  54.6764830
  35.3584730  43.8236870  54.7882230  36.1700890  45.1016240  54.7825490
  48.6078320  52.8273540  62.1082240  48.7325740  53.6504710  62.5806050
  49.4743880  52.6164270  61.7606390  36.0795850  54.9204750  61.7799370
  36.8158330  54.3720210  62.0507940  36.4636770  55.7860760  61.6405360
  32.9641330  50.9878320  57.6540880  32.0381110  51.2299460  57.6446290
  33.4297760  51.8152580  57.5325630  39.1898160  54.0935060  53.6024940
  39.9826770  54.3823890  53.1506730  38.6702510  53.6627230  52.9237420
  48.2428330  53.3205190  55.0261680  47.9569840  52.9070330  54.2115860
  48.0447880  54.2492900  54.9062200  39.7075560  49.3138470  53.4667290
  39.6026200  48.6990820  54.1928670  39.5399780  48.7904360  52.6830300
  42.9478290  48.3758500  54.0709280  42.3988390  48.8227800  54.7152020
  43.5697550  47.8707750  54.5946950  38.6153410  47.3349420  55.9674580
  39.0369830  47.1689290  56.8105970  38.7404250  46.5249650  55.4729720
  41.1281050  46.3587030  53.2151680  41.6486710  45.6436050  52.8492830
  41.7749450  46.9972900  53.5152190  40.0314570  38.8381580  65.8870240
  39.5831870  38.8605840  65.0415790  39.3979770  38.4400600  66.4840540
  40.4374120  47.7335910  66.5082680  40.8562230  48.5768640  66.3358920
  39.5182750  47.8707950  66.2789460  37.5112310  43.4082650  52.9132740
  37.3101370  42.5450010  53.2746080  37.3404360  43.3216010  51.9754340
  44.9900620  38.2190880  55.4419620  45.2702910  37.3758780  55.7979040
  44.2166350  38.4513990  55.9558370  36.3095110  40.5083270  52.9010620
  36.6121010  40.5150700  51.9929770  37.0489700  40.1581130  53.3978280
  39.5280040  39.4517890  53.8866820  39.1802040  38.7741880  53.3069270
  39.7292810  38.9907400  54.7010210  41.6929080  54.4398640  55.5053420
  42.5879870  54.7783610  55.5272180  41.7246710  53.7178050  54.8777700
  35.3325240  49.8125690  53.7340420  35.7700110  50.3555360  54.3898000
  35.8172970  48.9872640  53.7436760  32.5471040  52.6014720  61.1860680
  32.8774050  51.7335780  60.9539320  32.9762040  52.8073240  62.0165640
  37.1432960  50.9323730  58.8462650  36.8428500  50.8088700  59.7466560
  37.0370450  50.0732320  58.4378380  33.0361250  53.4685310  63.9242310
  32.5992240  53.6486110  64.7566460  33.6038930  54.2259930  63.7824030
  49.9124880  50.7120130  53.5489330  49.0817840  50.7796780  54.0196560
  50.0896710  51.6024250  53.2456190  49.3681340  47.4567610  56.0523530
  50.1300250  48.0264260  56.1583220  49.3835710  46.8894810  56.8231840
  32.8685680  45.9805540  60.2831190  32.2134520  45.7117180  59.6390890
  33.7063630  45.8710020  59.8333170  50.3741310  48.3117710  60.8965460
  50.7450140  47.5285030  60.4901430  51.0143240  49.0006810  60.7182760
  49.4200510  47.7501980  53.2096050  49.6949350  48.6580860  53.0815270
  49.2311250  47.6864510  54.1458040  45.8176120  40.7746830  54.5049680
  46.2361000  40.5877810  53.6646340  45.5112180  39.9225880  54.8152610
  49.3165850  45.6870970  58.2025480  48.9409450  44.9198900  57.7706770
  48.5868970  46.0693670  58.6900410  33.9061610  46.3658110  64.8234530
  34.2734650  46.2785510  65.7030550  33.3372430  45.6024660  64.7241390
  32.0823760  43.1904470  56.2256520  31.1787840  43.4534670  56.0508180
  32.5664380  43.4615640  55.4456480  48.5916810  43.9128460  61.5032720
  49.1154290  43.4191110  60.8722890  49.1776230  44.0478820  62.2480290
  48.7706530  43.9968330  65.0252270  47.8209240  43.9631870  65.1397260
  48.9519540  44.9068440  64.7902040  34.6250970  42.2470010  54.1350900
  35.3342670  41.8253230  53.6498180  33.9090910  42.3145240  53.5034250
  34.2725130  38.3009340  53.1753550  34.9953260  38.8418280  53.4934770
  34.5449650  38.0272760  52.2995090  48.0816780  43.1701810  57.4425130
  48.5775900  42.9372680  58.2274010  47.8832850  42.3313650  57.0262770
  33.9617320  37.5515530  63.0776170  34.6093510  37.0012910  62.6371330
  34.3819160  37.8058680  63.8991980  49.5103940  41.8062760  59.9762810
  49.4003220  41.6518800  60.9145080  50.2711530  41.2783700  59.7338220
  50.3994210  39.6370680  53.2168950  51.3243520  39.5051860  53.0087240
  50.3770000  39.7163500  54.1705400  50.4732700  40.4081340  55.8425660
  49.6784200  40.3426460  56.3718570  50.6775980  41.3431980  55.8311010
  47.4151120  54.4472890  59.8364050  48.0110190  54.1257460  59.1598470
  47.6729270  53.9744710  60.6277320  39.0219720  52.4350390  65.5864400
  38.7811080  52.7024950  64.6994920  39.9622360  52.6056120  65.6415260
  44.6056740  37.1185280  65.3082490  43.7316580  37.4520390  65.1055420
  44.4967490  36.6458460  66.1334360  47.9663330  55.0968190  63.6661780
  47.5066300  55.8484000  63.2919800  47.3375790  54.3774660  63.6076580
  34.7913950  51.1911430  66.0560500  34.0648010  50.5716720  65.9886450
  34.8523100  51.5852040  65.1858580  38.3959050  53.4056430  62.8409910
  38.9124070  52.7943790  62.3158170  39.0456430  53.9085210  63.3320920
  41.1354550  54.2964920  63.6678890  41.4232360  54.0419220  62.7911900
  41.6477770  53.7442280  64.2584460  42.3531560  38.0355120  64.2475400
  41.5703350  38.5100620  64.5272160  42.0594490  37.1309950  64.1388580
  46.9052630  38.7378220  62.2924490  47.3460720  38.6823320  61.4446090
  46.6360220  39.6536230  62.3634670  48.7691200  38.3693460  60.3033310
  48.7079600  37.4254680  60.1564330  49.5483230  38.4773550  60.8486770
  33.0743950  54.5085820  59.2657260  32.9065990  53.8756500  59.9639150
  32.2078460  54.7145220  58.9151450  33.6971970  38.3402600  56.7689120
  34.4551330  38.4531480  56.1953150  33.2349140  39.1771800  56.7232550
  40.2385780  40.4541870  59.7591430  39.4260290  40.0798760  59.4187310
  40.7427420  39.6986950  60.0612620  44.7410760  37.1184320  60.9974500
  45.3440130  37.6904530  61.4723020  44.0003750  37.6823760  60.7748400
  47.8845360  37.5205880  56.2714780  48.0795990  38.4189330  56.5382210
  47.0975230  37.2892960  56.7647730  34.6806650  53.2019050  56.7107400
  34.1554270  53.5827080  56.0069360  34.6051230  53.8269820  57.4317110
  36.0697120  38.8666650  55.3091090  36.5989880  38.0796450  55.1799040
  36.7025440  39.5457840  55.5426620  38.2634960  38.6041790  58.3636480
  37.6337700  37.9029100  58.5306610  37.7240100  39.3645920  58.1469640
  49.4371970  54.7606590  58.0321340  49.6124160  54.0744330  57.3882260
  48.7393540  55.2853640  57.6398010  37.2799620  55.1501430  55.5856650
  38.0118440  54.8660710  55.0380540  37.5393290  54.9114710  56.4756030
  36.4414410  51.2666160  55.5902980  35.8123290  51.7351260  56.1388810
  36.5562240  50.4215380  56.0249170  43.8964130  45.3171820  41.7404180
  43.8158180  44.4026430  41.4695890  43.4828550  45.8138890  41.0343890
  42.0282170  47.0950840  43.6213450  41.2524270  46.6151280  43.9112020
  42.6795100  46.4156490  43.4469610  46.0489600  51.5011030  42.4012580
  45.5871130  50.7298270  42.7299750  46.8615150  51.5277100  42.9065030
  42.2752910  53.7869040  42.0216570  41.6564350  54.2426540  41.4511010
  43.1304690  53.9420500  41.6206270  41.4691160  49.7708030  43.6283610
  41.3999440  48.8297970  43.4672740  42.2311020  49.8609440  44.2006180
  42.4996330  42.5778410  43.8552540  42.8761150  41.7050290  43.7426210
  42.4015840  42.9137110  42.9642980  46.2820450  40.0728850  40.7880880
  47.1030070  39.5825420  40.8306360  46.3154530  40.6626510  41.5412720
  36.7545170  38.5588970  47.9158580  36.7563610  39.0761360  47.1104480
  35.9249480  38.0819150  47.8928510  43.1416260  48.6708280  39.4148480
  42.5233530  49.1357730  38.8511200  43.6539510  49.3635760  39.8317990
  36.4360500  40.2698930  45.9229030  36.7777310  41.1140980  45.6282900
  35.4976310  40.4182670  46.0394370  37.2167120  50.1664950  47.9081260
  37.8341120  50.8416030  47.6265710  36.3560240  50.5752930  47.8168760
  48.1344710  51.6304360  45.8235900  47.4508230  52.3003470  45.8152570
  48.6739000  51.8285010  45.0580760  40.1188390  37.7581200  42.2473620
  40.4263370  37.2028090  41.5309120  39.1889090  37.8925660  42.0646610
  45.6703450  53.4748490  44.5381080  45.6830610  53.0710780  43.6703340
  45.1178670  54.2495780  44.4342510  45.0688890  48.3778330  45.8663690
  45.4857680  48.1638440  45.0317150  45.7928710  48.6351120  46.4372310
  42.5069150  45.8230030  38.9833740  41.5798430  45.7567410  39.2122210
  42.6593970  46.7610160  38.8688980  46.5366440  47.3850330  39.4868990
  45.9178860  47.0469880  38.8395290  46.5190890  46.7410090  40.1948180
  46.6693100  53.6094200  47.5915780  46.1923660  54.4166390  47.3988390
  45.9854890  52.9572530  47.7441990  37.6725920  49.7744020  50.5800480
  36.7754450  49.9983990  50.8273880  37.6978790  49.8978960  49.6311880
  42.8226520  51.5633210  40.4622980  43.2622430  52.3057540  40.0478370
  42.7613410  51.8059780  41.3861940  38.2977490  52.5879040  51.3643000
  38.2692920  52.9921990  50.4971430  38.1342460  51.6589400  51.2014600
  50.2492310  53.3706140  52.6607170  50.7252030  53.8489030  53.3396250
  50.8699470  53.3023630  51.9352670  49.6525560  50.5618990  49.8207180
  49.7788620  50.3230870  48.9024360  49.6946940  49.7303530  50.2929260
  43.5142300  54.2646990  48.3901990  44.0286970  54.1755000  49.1924420
  42.6711380  54.6106690  48.6829900  45.4896700  54.5502330  37.8185990
  45.3297840  54.2605270  38.7167820  45.3243410  53.7742460  37.2831220
  44.7572760  53.6852600  40.4532480  45.2129710  52.9041980  40.7671100
  45.0965280  54.3959420  40.9973660  41.5663890  41.4543340  48.2519110
  41.1043260  41.6626360  49.0639050  41.1642000  40.6402690  47.9489780
  43.6618110  44.1754040  51.4814560  43.9871520  43.3417790  51.1416790
  44.4498440  44.6982560  51.6292890  39.3169980  39.1322150  44.5073390
  39.6142310  40.0384980  44.4265410  39.8655540  38.6440930  43.8932960
  44.3006060  43.7171760  38.9755690  43.7014950  44.4407560  38.7919310
  44.8485670  43.6548540  38.1932140  39.5107510  44.6093970  51.0425310
  39.4151110  43.6688700  50.8925710  40.3539490  44.8309040  50.6473380
  42.9070930  42.3535300  41.0058970  43.3000500  42.6707500  40.1927660
  43.2687780  41.4747180  41.1203490  41.2163100  41.1042610  52.2655830
  40.5261420  40.9114810  52.9001920  41.9595400  41.3877250  52.7980130
  43.4926070  44.9441050  45.1009750  42.7607190  45.4527860  45.4499850
  43.0950410  44.1271030  44.7998530  39.9303460  41.6195250  43.5062240
  39.9339520  41.1785200  42.6566780  40.8254580  41.9412580  43.6134060
  43.9551980  40.3974730  44.5132690  43.9724720  40.8483380  45.3574540
  43.7067560  39.4980370  44.7266130  47.3822730  37.8106910  50.3519070
  47.7068500  37.0796570  50.8777050  47.4179240  37.4920550  49.4500060
  40.2311430  45.6797030  45.2527650  40.5981560  45.2055600  45.9988990
  40.0416490  46.5538600  45.5935990  47.3080570  47.9232020  43.9605100
  48.0279690  48.4187310  43.5701210  47.1062390  47.2449910  43.3158970
  42.6899370  47.9941080  49.8474100  42.6236680  47.0736750  49.5931690
  42.0604510  48.0916520  50.5618740  41.4799490  49.8613320  37.0784820
  41.8215190  50.6055550  36.5828140  40.6512200  50.1744440  37.4409650
  37.2787650  46.0192650  51.6022770  36.9787790  46.1649830  50.7050590
  38.0498890  45.4597940  51.5096160  42.6216100  50.8161650  49.5977900
  42.6360640  49.8842610  49.3796810  41.9141200  50.9021410  50.2367670
  48.8327310  47.4568990  48.9446480  48.1075500  48.0497770  48.7475870
  49.3602770  47.4492530  48.1459850  44.3626900  49.1829160  42.4430330
  44.7150720  48.5857290  41.7831700  43.4789230  48.8573390  42.6138580
  42.0550000  52.4579220  46.6918400  42.6992220  52.6638600  47.3691820
  42.4179440  51.6967620  46.2389250  43.3282080  50.4611570  45.4095850
  43.9704310  49.7604730  45.5228020  43.8531430  51.2410010  45.2292740
  45.1019700  51.2606470  48.6131910  45.4375940  51.8473160  49.2909830
  44.1820040  51.1299180  48.8429700  32.9395690  53.0381910  50.3821850
  33.0486810  52.0976650  50.2417240  32.2876250  53.3036660  49.7335580
  40.9308280  51.3097800  51.7819970  40.6105150  50.5907040  52.3265660
  40.2566640  51.9852870  51.8556030  41.9582050  52.2186490  35.3878310
  42.0594030  52.0150480  34.4580290  41.0583790  51.9644770  35.5926090
  41.1063870  44.1963550  47.3694740  41.6049120  44.6709370  48.0346590
  41.2486820  43.2727070  47.5764770  43.5123370  39.5017510  40.8098000
  43.3891150  39.5203640  39.8607510  44.4607930  39.5496450  40.9296400
  48.6078320  52.8273540  43.3338750  48.7325740  53.6504710  43.8062560
  49.4743880  52.6164270  42.9862900  35.0854130  54.1050820  52.1941460
  35.8866860  54.4262870  52.6076860  34.5705950  53.7446400  52.9161370
  43.9218760  50.2130690  52.1416870  43.3156920  50.2362290  51.4012620
  43.6172870  49.4813730  52.6784120  45.3519130  53.9410980  50.7526280
  46.3040880  53.8569000  50.7026520  45.2047350  54.6052690  51.4260070
  32.8051940  46.5924280  51.1377510  33.3090960  46.0131560  51.7093740
  32.0659360  46.8764510  51.6753880  39.8589880  47.9995270  50.6713030
  39.0935550  48.5680270  50.5867700  40.0405840  47.7071480  49.7781260
  42.9478290  48.3758500  35.2965790  42.3988390  48.8227800  35.9408530
  43.5697550  47.8707750  35.8203460  47.0013230  49.7300600  51.2288050
  47.7422700  50.0676360  50.7255510  46.2385910  49.8992660  50.6757820
  34.8375020  44.7353870  52.0327580  34.8780360  44.4367740  52.9412810
  35.6920520  45.1361480  51.8735100  45.6758890  47.7815430  49.7643260
  46.0899910  47.9360510  50.6133680  44.7409890  47.9070650  49.9269040
  46.1481060  45.1211590  51.7682410  46.7301830  44.3663910  51.6802890
  46.3242830  45.6519030  50.9913890  37.2653130  40.2808340  50.0799360
  37.1710000  39.6629090  49.3550230  36.6850520  41.0074630  49.8529270
  40.0314570  38.8381580  47.1126750  39.5831870  38.8605840  46.2672300
  39.3979770  38.4400600  47.7097050  40.4374120  47.7335910  47.7339190
  40.8562230  48.5768640  47.5615430  39.5182750  47.8707950  47.5045970
  42.7738020  45.4652090  49.1177030  42.8934230  44.8693230  49.8571870
  43.6332020  45.5021780  48.6978330  45.1125920  46.0189280  47.6939540
  44.5861140  46.5431900  47.0904680  45.4557260  46.6516670  48.3249270
  38.2881540  54.0388920  48.8496920  37.7502630  54.7634980  48.5305620
  38.5415500  53.5619260  48.0594260  39.5406790  42.0073440  50.3752850
  40.1306480  41.6989290  51.0630670  38.7227030  41.5353190  50.5312750
  44.3600220  41.6239250  50.6085870  43.6715740  40.9620790  50.5435860
  45.0806240  41.1777520  51.0534330  44.9900620  38.2190880  36.6676130
  45.2702910  37.3758780  37.0235550  44.2166350  38.4513990  37.1814880
  41.1443750  55.2740130  49.1083570  41.0702450  56.1775270  49.4155940
  40.2422590  54.9552030  49.0805640  41.6929080  54.4398640  36.7309930
  42.5879870  54.7783610  36.7528690  41.7246710  53.7178050  36.1034210
  48.6723430  52.9702310  49.4376130  48.0725420  53.0294870  48.6940050
  48.8017330  52.0307290  49.5672980  47.3575070  49.6954290  47.5352290
  46.5434910  50.1251450  47.7978080  47.7649270  50.3072700  46.9221340
  47.1453540  40.0598920  51.8401210  48.0223720  40.0682320  52.2235210
  47.1574380  39.3229760  51.2293560  47.4151120  54.4472890  41.0620560
  48.0110190  54.1257460  40.3854980  47.6729270  53.9744710  41.8533830
  33.7149320  37.7071200  47.0458000  33.3664140  38.1635020  47.8116180
  33.3837020  36.8128330  47.1280430  35.3213690  50.8790800  51.2111190
  35.2783320  50.5083710  52.0925650  35.4524700  51.8168370  51.3513010
  39.0219720  52.4350390  46.8120910  38.7811080  52.7024950  45.9251430
  39.9622360  52.6056120  46.8671770  41.2274140  38.8983080  50.5677420
  41.1663030  39.4904910  51.3172830  42.1674520  38.7909040  50.4227680
  43.8648700  38.5553140  50.2069710  44.4789110  38.8732430  49.5450790
  44.4098260  38.0701730  50.8265570  50.2823880  54.4544770  47.6131550
  49.7882160  54.8513640  46.8958680  49.6737170  53.8293980  48.0068830
  34.3869960  37.2347400  50.3208770  34.9352950  37.0535450  49.5574880
  34.4525270  36.4441510  50.8565080  35.1601720  53.8253050  48.3308970
  34.5662040  53.6937750  49.0699010  35.1525560  52.9891190  47.8651070
  44.6056740  37.1185280  46.5339000  43.7316580  37.4520390  46.3311930
  44.4967490  36.6458460  47.3590870  47.9663330  55.0968190  44.8918290
  47.5066300  55.8484000  44.5176310  47.3375790  54.3774660  44.8333090
  42.3531560  38.0355120  45.4731910  41.5703350  38.5100620  45.7528670
  42.0594490  37.1309950  45.3645090  44.7410760  37.1184320  42.2231010
  45.3440130  37.6904530  42.6979530  44.0003750  37.6823760  42.0004910
  47.8845360  37.5205880  37.4971290  48.0795990  38.4189330  37.7638720
  47.0975230  37.2892960  37.9904240  41.2026910  55.2181020  52.2603600
  42.1294220  54.9825290  52.3039560  41.1877340  56.0453020  51.7789630
  49.4371970  54.7606590  39.2577850  49.6124160  54.0744330  38.6138770
  48.7393540  55.2853640  38.8654520  38.3890520  37.8825770  52.0245480
  38.1074790  38.3859370  51.2606300  38.7710220  37.0847520  51.6587610
  44.9905980  37.2979350  52.6025950  44.8771430  37.6173960  53.4977470
  45.8075720  37.6991860  52.3063230  47.7704470  54.4450880  52.0844640
  48.5629790  53.9500110  51.8770600  48.0637620  55.1241020  52.6920250
  43.8964130  45.3171820  22.9660690  43.8158180  44.4026430  22.6952400
  43.4828550  45.8138890  22.2600400  42.0282170  47.0950840  24.8469960
  41.2524270  46.6151280  25.1368530  42.6795100  46.4156490  24.6726120
  36.0448000  47.4070650  25.7245720  35.2132880  47.1519360  26.1242230
  36.6528980  47.4781420  26.4603640  46.0489600  51.5011030  23.6269090
  45.5871130  50.7298270  23.9556260  46.8615150  51.5277100  24.1321540
  34.4539950  42.3672540  19.5088110  33.5656650  42.7088510  19.4067990
  34.7381140  42.1672860  18.6168940  32.4172960  44.9678190  25.3927810
  32.9889070  44.2000390  25.3931450  32.4174500  45.2666950  24.4834420
  42.2752910  53.7869040  23.2473080  41.6564350  54.2426540  22.6767520
  43.1304690  53.9420500  22.8462780  41.4691160  49.7708030  24.8540120
  41.3999440  48.8297970  24.6929250  42.2311020  49.8609440  25.4262690
  33.6597830  40.3762550  27.1796740  33.4800670  39.4788300  27.4599500
  33.2577910  40.9234420  27.8543690  42.4996330  42.5778410  25.0809050
  42.8761150  41.7050290  24.9682720  42.4015840  42.9137110  24.1899490
  36.6301340  40.9504040  20.5426490  36.7368090  41.8507770  20.8495250
  35.7193700  40.9022010  20.2521140  46.2820450  40.0728850  22.0137390
  47.1030070  39.5825420  22.0562870  46.3154530  40.6626510  22.7669230
  34.2784500  42.8723050  25.7879080  34.9594610  43.1361420  26.4066480
  33.9632550  42.0323920  26.1217090  38.4709070  43.9190410  24.8751670
  38.9787290  44.4171380  25.5156690  39.0022310  43.1425610  24.6991030
  50.5720000  42.0895600  28.5781020  49.8672170  42.4777310  28.0596130
  50.8377920  42.7845890  29.1801950  36.7545170  38.5588970  29.1415090
  36.7563610  39.0761360  28.3360990  35.9249480  38.0819150  29.1185020
  43.1416260  48.6708280  20.6404990  42.5233530  49.1357730  20.0767710
  43.6539510  49.3635760  21.0574500  38.0048020  48.1984150  27.3188590
  37.6717400  48.8253070  27.9609660  38.1814700  48.7246030  26.5390260
  46.5181930  42.0129230  24.7864930  45.8137500  42.3014120  25.3668040
  46.8794090  42.8229340  24.4264490  36.4360500  40.2698930  27.1485540
  36.7777310  41.1140980  26.8539410  35.4976310  40.4182670  27.2650880
  32.5099460  49.3564810  18.0144620  32.1327440  49.8451910  17.2829520
  32.7672530  50.0290090  18.6451150  48.1344710  51.6304360  27.0492410
  47.4508230  52.3003470  27.0409080  48.6739000  51.8285010  26.2837270
  49.5868850  41.4584020  25.1774140  48.6393760  41.4923000  25.3089570
  49.9118840  42.2722970  25.5623500  40.1188390  37.7581200  23.4730130
  40.4263370  37.2028090  22.7565630  39.1889090  37.8925660  23.2903120
  45.6703450  53.4748490  25.7637590  45.6830610  53.0710780  24.8959850
  45.1178670  54.2495780  25.6599020  46.9648870  50.1964710  20.8527760
  46.8545200  49.2539040  20.9777180  46.9617120  50.5580350  21.7390520
  45.0688890  48.3778330  27.0920200  45.4857680  48.1638440  26.2573660
  45.7928710  48.6351120  27.6628820  42.5069150  45.8230030  20.2090250
  41.5798430  45.7567410  20.4378720  42.6593970  46.7610160  20.0945490
  42.4938230  42.0947030  17.2057410  41.5541900  42.2560990  17.2909870
  42.8121490  42.8132710  16.6593400  49.0150990  46.7765550  27.1836440
  48.1869620  46.8458640  26.7086570  49.6101470  47.3619860  26.7152270
  46.5366440  47.3850330  20.7125500  45.9178860  47.0469880  20.0651800
  46.5190890  46.7410090  21.4204690  45.9793000  43.5634870  28.1291310
  45.5664180  44.3888580  28.3831300  45.2468950  42.9779910  27.9367670
  38.1125790  46.3494770  22.9909980  37.7082790  45.6372020  22.4955880
  38.1988910  46.0048010  23.8798020  38.5807490  50.0362330  25.1549190
  38.2835780  49.4307800  24.4756970  39.5307310  50.0739640  25.0438550
  36.8254410  43.1237980  26.7709020  37.3769000  43.2333320  25.9962270
  37.3397920  43.4975580  27.4864250  46.6693100  53.6094200  28.8172290
  46.1923660  54.4166390  28.6244900  45.9854890  52.9572530  28.9698500
  44.7131140  46.6237140  17.7198250  45.1524420  45.7859570  17.5736070
  45.4259560  47.2566540  17.8062390  42.8226520  51.5633210  21.6879490
  43.2622430  52.3057540  21.2734880  42.7613410  51.8059780  22.6118450
  48.2948280  37.8779950  16.0339290  47.9820940  37.9706780  16.9338360
  49.0560750  38.4560980  15.9836720  34.8130420  45.2439750  20.4916630
  34.6928020  45.9701840  19.8797900  34.5031310  44.4742660  20.0144540
  32.4515790  48.4154890  26.2985270  32.5296210  48.5503660  25.3540990
  33.0657470  47.7070780  26.4913390  43.5142300  54.2646990  29.6158500
  44.0286970  54.1755000  30.4180930  42.6711380  54.6106690  29.9086410
  45.4896700  54.5502330  19.0442500  45.3297840  54.2605270  19.9424330
  45.3243410  53.7742460  18.5087730  37.9685080  54.3300860  20.8214120
  37.7927560  53.4136400  20.6081920  37.1140820  54.6888150  21.0611920
  45.1922830  52.0589890  17.6040500  44.4987990  52.0567180  16.9442780
  45.9345690  51.6349210  17.1734670  44.7572760  53.6852600  21.6788990
  45.2129710  52.9041980  21.9927610  45.0965280  54.3959420  22.2230170
  32.5075310  49.4569060  28.8379730  32.6706350  48.9874420  28.0199100
  32.9727760  48.9492620  29.5028570  37.2794080  38.5874820  23.8740300
  36.8362230  39.3684360  23.5424820  37.8379070  38.9104710  24.5811240
  40.3952900  38.2085520  18.7546130  39.7707080  38.2045390  19.4799440
  40.3083020  37.3416480  18.3582100  39.3169980  39.1322150  25.7329900
  39.6142310  40.0384980  25.6521920  39.8655540  38.6440930  25.1189470
  37.0708300  43.7108390  21.6021550  36.8449220  43.4945560  22.5068170
  36.2900830  44.1436850  21.2567520  44.3006060  43.7171760  20.2012200
  43.7014950  44.4407560  20.0175820  44.8485670  43.6548540  19.4188650
  42.9070930  42.3535300  22.2315480  43.3000500  42.6707500  21.4184170
  43.2687780  41.4747180  22.3460000  34.6418050  41.0207640  30.4215600
  34.2481440  41.8682850  30.6288380  33.9536450  40.3834010  30.6124240
  31.9435100  38.9436100  24.4545680  31.6548150  39.5138960  25.1670660
  32.6880860  38.4640550  24.8176910  32.1305330  42.8856220  15.6648400
  32.0480000  43.8286980  15.8063390  31.7788390  42.7431130  14.7860750
  43.4926070  44.9441050  26.3266260  42.7607190  45.4527860  26.6756360
  43.0950410  44.1271030  26.0255040  39.9303460  41.6195250  24.7318750
  39.9339520  41.1785200  23.8823290  40.8254580  41.9412580  24.8390570
  35.7805840  41.5021740  23.6912960  35.4405890  41.9796970  24.4480010
  35.0183160  41.0486860  23.3314060  39.9923610  42.6207330  17.7225510
  40.1136430  42.5793810  18.6711330  39.6072120  43.4831480  17.5672240
  43.9551980  40.3974730  25.7389200  43.9724720  40.8483380  26.5831050
  43.7067560  39.4980370  25.9522640  39.0045110  44.9308470  17.1208810
  38.4362010  44.4826720  16.4944720  39.7134110  45.2901250  16.5873960
  40.2311430  45.6797030  26.4784160  40.5981560  45.2055600  27.2245500
  40.0416490  46.5538600  26.8192500  33.0951920  40.4240720  22.6077630
  32.8098840  40.0596390  23.4456250  33.0330780  39.6921180  21.9940770
  36.5492590  48.9266660  19.3935220  35.7754850  48.3864280  19.2333940
  37.2787220  48.4073270  19.0552980  47.3080570  47.9232020  25.1861610
  48.0279690  48.4187310  24.7957720  47.1062390  47.2449910  24.5415480
  42.7690510  39.3169980  19.3291000  41.9555120  38.8183150  19.2536310
  42.5752460  40.1568230  18.9127350  36.5929990  48.5947040  23.0314030
  37.1108660  47.7915300  22.9770920  36.1414010  48.5326180  23.8730860
  41.4799490  49.8613320  18.3041330  41.8215190  50.6055550  17.8084650
  40.6512200  50.1744440  18.6666160  42.6216100  50.8161650  30.8234410
  42.6360640  49.8842610  30.6053320  41.9141200  50.9021410  31.4624180
  48.7840420  51.8543730  19.8215150  48.1416580  51.1999350  20.0958870
  48.3971080  52.2598820  19.0455820  44.3626900  49.1829160  23.6686840
  44.7150720  48.5857290  23.0088210  43.4789230  48.8573390  23.8395090
  40.4490180  49.9426850  21.0757250  41.1361310  50.4896060  21.4564840
  39.6622600  50.4867580  21.1106860  32.5882580  45.5599670  16.5674330
  33.4577430  45.8424470  16.8510250  32.0972900  46.3735540  16.4523140
  39.7517390  46.9472880  20.6882610  40.2080170  47.7578130  20.9142800
  39.4005600  46.6296020  21.5201100  42.0550000  52.4579220  27.9174910
  42.6992220  52.6638600  28.5948330  42.4179440  51.6967620  27.4645760
  35.6529170  37.2910530  21.1605130  35.5243800  37.2828430  22.1090050
  34.8291190  37.6293620  20.8096140  43.3282080  50.4611570  26.6352360
  43.9704310  49.7604730  26.7484530  43.8531430  51.2410010  26.4549250
  47.1737800  50.7460190  16.3591500  46.9475380  50.0290630  16.9516140
  46.7834000  50.4972630  15.5213250  45.1019700  51.2606470  29.8388420
  45.4375940  51.8473160  30.5166340  44.1820040  51.1299180  30.0686210
  32.9553830  54.7727050  17.1335960  33.3151470  55.3716390  16.4793230
  32.8146170  55.3186940  17.9070990  32.6523100  39.0501650  30.6211830
  31.9381620  39.2498570  31.2264440  33.0718140  38.2741220  30.9926630
  46.7554050  48.6632130  18.0205660  46.4675750  49.1244820  18.8083540
  47.5506220  48.2029900  18.2889880  40.9308280  51.3097800  33.0076480
  40.6105150  50.5907040  33.5522170  40.2566640  51.9852870  33.0812540
  38.9722450  52.1558250  17.9509630  38.9632550  52.8887940  17.3354140
  38.0520810  51.9089830  18.0436590  34.5729090  47.3773140  18.6956390
  33.9657040  48.1172040  18.7051690  35.0478440  47.4672500  17.8694590
  41.9582050  52.2186490  16.6134820  42.0594030  52.0150480  15.6836800
  41.0583790  51.9644770  16.8182600  39.4807940  42.7766850  20.5958720
  38.7724090  43.2453190  21.0372330  39.7652420  42.1188860  21.2303910
  43.5123370  39.5017510  22.0354510  43.3891150  39.5203640  21.0864020
  44.4607930  39.5496450  22.1552910  40.6000160  54.7372810  21.3082490
  40.8541660  54.6994200  20.3861860  39.6512640  54.6106140  21.3010740
  37.6842960  41.0851930  17.9709430  38.5333490  41.5222080  17.9049620
  37.3174230  41.3972190  18.7981490  48.3130730  40.4131510  29.4379640
  47.8104330  41.1536910  29.7773450  49.1287390  40.8015510  29.1216430
  46.6052740  45.6564690  22.8841000  45.6642880  45.6714920  23.0588690
  46.9196810  44.8700650  23.3301300  36.5834380  47.3384290  16.4444960
  37.3497650  47.2265650  17.0070390  36.6609070  46.6422260  15.7921730
  35.2781140  44.7709360  17.1277850  35.3584730  43.8236870  17.2395250
  36.1700890  45.1016240  17.2338510  48.6078320  52.8273540  24.5595260
  48.7325740  53.6504710  25.0319070  49.4743880  52.6164270  24.2119410
  39.1898160  54.0935060  16.0537960  39.9826770  54.3823890  15.6019750
  38.6702510  53.6627230  15.3750440  48.2428330  53.3205190  17.4774700
  47.9569840  52.9070330  16.6628880  48.0447880  54.2492900  17.3575220
  39.7075560  49.3138470  15.9180310  39.6026200  48.6990820  16.6441690
  39.5399780  48.7904360  15.1343320  42.9478290  48.3758500  16.5222300
  42.3988390  48.8227800  17.1665040  43.5697550  47.8707750  17.0459970
  38.6153410  47.3349420  18.4187600  39.0369830  47.1689290  19.2618990
  38.7404250  46.5249650  17.9242740  41.1281050  46.3587030  15.6664700
  41.6486710  45.6436050  15.3005850  41.7749450  46.9972900  15.9665210
  37.2653130  40.2808340  31.3055870  37.1710000  39.6629090  30.5806740
  36.6850520  41.0074630  31.0785780  45.1125920  46.0189280  28.9196050
  44.5861140  46.5431900  28.3161190  45.4557260  46.6516670  29.5505780
  37.5112310  43.4082650  15.3645760  37.3101370  42.5450010  15.7259100
  37.3404360  43.3216010  14.4267360  44.9900620  38.2190880  17.8932640
  45.2702910  37.3758780  18.2492060  44.2166350  38.4513990  18.4071390
  36.3095110  40.5083270  15.3523640  36.6121010  40.5150700  14.4442790
  37.0489700  40.1581130  15.8491300  41.1443750  55.2740130  30.3340080
  41.0702450  56.1775270  30.6412450  40.2422590  54.9552030  30.3062150
  39.5280040  39.4517890  16.3379840  39.1802040  38.7741880  15.7582290
  39.7292810  38.9907400  17.1523230  41.6929080  54.4398640  17.9566440
  42.5879870  54.7783610  17.9785200  41.7246710  53.7178050  17.3290720
  35.3325240  49.8125690  16.1853440  35.7700110  50.3555360  16.8411020
  35.8172970  48.9872640  16.1949780  37.1432960  50.9323730  21.2975670
  36.8428500  50.8088700  22.1979580  37.0370450  50.0732320  20.8891400
  49.9124880  50.7120130  16.0002350  49.0817840  50.7796780  16.4709580
  50.0896710  51.6024250  15.6969210  32.8685680  45.9805540  22.7344210
  32.2134520  45.7117180  22.0903910  33.7063630  45.8710020  22.2846190
  50.3741310  48.3117710  23.3478480  50.7450140  47.5285030  22.9414450
  51.0143240  49.0006810  23.1695780  47.3575070  49.6954290  28.7608800
  46.5434910  50.1251450  29.0234590  47.7649270  50.3072700  28.1477850
  49.4200510  47.7501980  15.6609070  49.6949350  48.6580860  15.5328290
  49.2311250  47.6864510  16.5971060  45.8176120  40.7746830  16.9562700
  46.2361000  40.5877810  16.1159360  45.5112180  39.9225880  17.2665630
  33.9061610  46.3658110  27.2747550  34.2734650  46.2785510  28.1543570
  33.3372430  45.6024660  27.1754410  32.0823760  43.1904470  18.6769540
  31.1787840  43.4534670  18.5021200  32.5664380  43.4615640  17.8969500
  48.5916810  43.9128460  23.9545740  49.1154290  43.4191110  23.3235910
  49.1776230  44.0478820  24.6993310  48.7706530  43.9968330  27.4765290
  47.8209240  43.9631870  27.5910280  48.9519540  44.9068440  27.2415060
  34.6250970  42.2470010  16.5863920  35.3342670  41.8253230  16.1011200
  33.9090910  42.3145240  15.9547270  34.2725130  38.3009340  15.6266570
  34.9953260  38.8418280  15.9447790  34.5449650  38.0272760  14.7508110
  33.9617320  37.5515530  25.5289190  34.6093510  37.0012910  25.0884350
  34.3819160  37.8058680  26.3505000  50.3994210  39.6370680  15.6681970
  51.3243520  39.5051860  15.4600260  50.3770000  39.7163500  16.6218420
  47.4151120  54.4472890  22.2877070  48.0110190  54.1257460  21.6111490
  47.6729270  53.9744710  23.0790340  33.7149320  37.7071200  28.2714510
  33.3664140  38.1635020  29.0372690  33.3837020  36.8128330  28.3536940
  39.0219720  52.4350390  28.0377420  38.7811080  52.7024950  27.1507940
  39.9622360  52.6056120  28.0928280  44.6056740  37.1185280  27.7595510
  43.7316580  37.4520390  27.5568440  44.4967490  36.6458460  28.5847380
  45.5128720  39.3256150  29.1437230  45.1842080  38.5107910  28.7638960
  46.4611020  39.2825960  29.0202920  38.3959050  53.4056430  25.2922930
  38.9124070  52.7943790  24.7671190  39.0456430  53.9085210  25.7833940
  41.1354550  54.2964920  26.1191910  41.4232360  54.0419220  25.2424920
  41.6477770  53.7442280  26.7097480  42.3531560  38.0355120  26.6988420
  41.5703350  38.5100620  26.9785180  42.0594490  37.1309950  26.5901600
  46.9052630  38.7378220  24.7437510  47.3460720  38.6823320  23.8959110
  46.6360220  39.6536230  24.8147690  48.7691200  38.3693460  22.7546330
  48.7079600  37.4254680  22.6077350  49.5483230  38.4773550  23.2999790
  33.6971970  38.3402600  19.2202140  34.4551330  38.4531480  18.6466170
  33.2349140  39.1771800  19.1745570  40.2385780  40.4541870  22.2104450
  39.4260290  40.0798760  21.8700330  40.7427420  39.6986950  22.5125640
  44.7410760  37.1184320  23.4487520  45.3440130  37.6904530  23.9236040
  44.0003750  37.6823760  23.2261420  34.6806650  53.2019050  19.1620420
  34.1554270  53.5827080  18.4582380  34.6051230  53.8269820  19.8830130
  36.0697120  38.8666650  17.7604110  36.5989880  38.0796450  17.6312060
  36.7025440  39.5457840  17.9939640  38.2634960  38.6041790  20.8149500
  37.6337700  37.9029100  20.9819630  37.7240100  39.3645920  20.5982660
  41.2026910  55.2181020  33.4860110  42.1294220  54.9825290  33.5296070
  41.1877340  56.0453020  33.0046140  49.4371970  54.7606590  20.4834360
  49.6124160  54.0744330  19.8395280  48.7393540  55.2853640  20.0911030
  37.2799620  55.1501430  18.0369670  38.0118440  54.8660710  17.4893560
  37.5393290  54.9114710  18.9269050  36.4414410  51.2666160  18.0416000
  35.8123290  51.7351260  18.5901830  36.5562240  50.4215380  18.4762190
  44.9905980  37.2979350  33.8282460  44.8771430  37.6173960  34.7233980
  45.8075720  37.6991860  33.5319740  43.8964130  45.3171820   4.1917200
  43.8158180  44.4026430   3.9208910  43.4828550  45.8138890   3.4856910
  42.0282170  47.0950840   6.0726470  41.2524270  46.6151280   6.3625040
  42.6795100  46.4156490   5.8982630  36.0448000  47.4070650   6.9502230
  35.2132880  47.1519360   7.3498740  36.6528980  47.4781420   7.6860150
  46.0489600  51.5011030   4.8525600  45.5871130  50.7298270   5.1812770
  46.8615150  51.5277100   5.3578050  36.0249260  51.4410740   7.1460250
  36.3277300  50.5508480   6.9670470  36.7692850  51.9980960   6.9182500
  32.4172960  44.9678190   6.6184320  32.9889070  44.2000390   6.6187960
  32.4174500  45.2666950   5.7090930  42.2752910  53.7869040   4.4729590
  41.6564350  54.2426540   3.9024030  43.1304690  53.9420500   4.0719290
  41.4691160  49.7708030   6.0796630  41.3999440  48.8297970   5.9185760
  42.2311020  49.8609440   6.6519200  33.6597830  40.3762550   8.4053250
  33.4800670  39.4788300   8.6856010  33.2577910  40.9234420   9.0800200
  42.4996330  42.5778410   6.3065560  42.8761150  41.7050290   6.1939230
  42.4015840  42.9137110   5.4156000  36.6301340  40.9504040   1.7683000
  36.7368090  41.8507770   2.0751760  35.7193700  40.9022010   1.4777650
  46.2820450  40.0728850   3.2393900  47.1030070  39.5825420   3.2819380
  46.3154530  40.6626510   3.9925740  34.2784500  42.8723050   7.0135590
  34.9594610  43.1361420   7.6322990  33.9632550  42.0323920   7.3473600
  38.4709070  43.9190410   6.1008180  38.9787290  44.4171380   6.7413200
  39.0022310  43.1425610   5.9247540  50.5720000  42.0895600   9.8037530
  49.8672170  42.4777310   9.2852640  50.8377920  42.7845890  10.4058460
  36.7545170  38.5588970  10.3671600  36.7563610  39.0761360   9.5617500
  35.9249480  38.0819150  10.3441530  38.0048020  48.1984150   8.5445100
  37.6717400  48.8253070   9.1866170  38.1814700  48.7246030   7.7646770
  46.5181930  42.0129230   6.0121440  45.8137500  42.3014120   6.5924550
  46.8794090  42.8229340   5.6521000  36.4360500  40.2698930   8.3742050
  36.7777310  41.1140980   8.0795920  35.4976310  40.4182670   8.4907390
  37.2167120  50.1664950  10.3594280  37.8341120  50.8416030  10.0778730
  36.3560240  50.5752930  10.2681780  48.1344710  51.6304360   8.2748920
  47.4508230  52.3003470   8.2665590  48.6739000  51.8285010   7.5093780
  49.5868850  41.4584020   6.4030650  48.6393760  41.4923000   6.5346080
  49.9118840  42.2722970   6.7880010  40.1188390  37.7581200   4.6986640
  40.4263370  37.2028090   3.9822140  39.1889090  37.8925660   4.5159630
  45.6703450  53.4748490   6.9894100  45.6830610  53.0710780   6.1216360
  45.1178670  54.2495780   6.8855530  46.9648870  50.1964710   2.0784270
  46.8545200  49.2539040   2.2033690  46.9617120  50.5580350   2.9647030
  45.0688890  48.3778330   8.3176710  45.4857680  48.1638440   7.4830170
  45.7928710  48.6351120   8.8885330  49.0150990  46.7765550   8.4092950
  48.1869620  46.8458640   7.9343080  49.6101470  47.3619860   7.9408780
  45.9793000  43.5634870   9.3547820  45.5664180  44.3888580   9.6087810
  45.2468950  42.9779910   9.1624180  38.1125790  46.3494770   4.2166490
  37.7082790  45.6372020   3.7212390  38.1988910  46.0048010   5.1054530
  38.5807490  50.0362330   6.3805700  38.2835780  49.4307800   5.7013480
  39.5307310  50.0739640   6.2695060  36.8254410  43.1237980   7.9965530
  37.3769000  43.2333320   7.2218780  37.3397920  43.4975580   8.7120760
  46.6693100  53.6094200  10.0428800  46.1923660  54.4166390   9.8501410
  45.9854890  52.9572530  10.1955010  37.6725920  49.7744020  13.0313500
  36.7754450  49.9983990  13.2786900  37.6978790  49.8978960  12.0824900
  36.4997140  46.6457340  11.6070870  36.3604910  47.5180140  11.9758270
  35.6178500  46.3030150  11.4618810  42.8226520  51.5633210   2.9136000
  43.2622430  52.3057540   2.4991390  42.7613410  51.8059780   3.8374960
  38.2977490  52.5879040  13.8156020  38.2692920  52.9921990  12.9484450
  38.1342460  51.6589400  13.6527620  50.2492310  53.3706140  15.1120190
  50.7252030  53.8489030  15.7909270  50.8699470  53.3023630  14.3865690
  32.4515790  48.4154890   7.5241780  32.5296210  48.5503660   6.5797500
  33.0657470  47.7070780   7.7169900  33.6963420  50.1155080   3.9347960
  33.2891500  50.2569670   3.0801560  34.5876430  49.8315240   3.7319170
  49.6525560  50.5618990  12.2720200  49.7788620  50.3230870  11.3537380
  49.6946940  49.7303530  12.7442280  43.5142300  54.2646990  10.8415010
  44.0286970  54.1755000  11.6437440  42.6711380  54.6106690  11.1342920
  37.9685080  54.3300860   2.0470630  37.7927560  53.4136400   1.8338430
  37.1140820  54.6888150   2.2868430  44.7572760  53.6852600   2.9045500
  45.2129710  52.9041980   3.2184120  45.0965280  54.3959420   3.4486680
  49.5049570  42.6151450  13.2369940  48.8893840  43.1231120  12.7085400
  49.1845990  41.7149780  13.1795880  32.5075310  49.4569060  10.0636240
  32.6706350  48.9874420   9.2455610  32.9727760  48.9492620  10.7285080
  37.2794080  38.5874820   5.0996810  36.8362230  39.3684360   4.7681330
  37.8379070  38.9104710   5.8067750  41.5663890  41.4543340  10.7032130
  41.1043260  41.6626360  11.5152070  41.1642000  40.6402690  10.4002800
  46.5668400  42.6752290  11.8328790  45.7161990  42.3758040  12.1537860
  46.4070190  42.9194300  10.9212610  43.6618110  44.1754040  13.9327580
  43.9871520  43.3417790  13.5929810  44.4498440  44.6982560  14.0805910
  39.3169980  39.1322150   6.9586410  39.6142310  40.0384980   6.8778430
  39.8655540  38.6440930   6.3445980  37.0708300  43.7108390   2.8278060
  36.8449220  43.4945560   3.7324680  36.2900830  44.1436850   2.4824030
  39.5107510  44.6093970  13.4938330  39.4151110  43.6688700  13.3438730
  40.3539490  44.8309040  13.0986400  42.9070930  42.3535300   3.4571990
  43.3000500  42.6707500   2.6440680  43.2687780  41.4747180   3.5716510
  34.6418050  41.0207640  11.6472110  34.2481440  41.8682850  11.8544890
  33.9536450  40.3834010  11.8380750  41.2163100  41.1042610  14.7168850
  40.5261420  40.9114810  15.3514940  41.9595400  41.3877250  15.2493150
  31.9435100  38.9436100   5.6802190  31.6548150  39.5138960   6.3927170
  32.6880860  38.4640550   6.0433420  43.4926070  44.9441050   7.5522770
  42.7607190  45.4527860   7.9012870  43.0950410  44.1271030   7.2511550
  39.9303460  41.6195250   5.9575260  39.9339520  41.1785200   5.1079800
  40.8254580  41.9412580   6.0647080  35.7805840  41.5021740   4.9169470
  35.4405890  41.9796970   5.6736520  35.0183160  41.0486860   4.5570570
  43.9551980  40.3974730   6.9645710  43.9724720  40.8483380   7.8087560
  43.7067560  39.4980370   7.1779150  47.3822730  37.8106910  12.8032090
  47.7068500  37.0796570  13.3290070  47.4179240  37.4920550  11.9013080
  34.0814290  48.8320490  12.2232050  33.6969080  48.1914160  12.8215010
  34.3926480  49.5356610  12.7926780  40.2311430  45.6797030   7.7040670
  40.5981560  45.2055600   8.4502010  40.0416490  46.5538600   8.0449010
  33.0951920  40.4240720   3.8334140  32.8098840  40.0596390   4.6712760
  33.0330780  39.6921180   3.2197280  38.0210800  44.7205670  10.0224880
  37.7167870  45.5997650  10.2475240  38.9757260  44.7805460  10.0582320
  47.3080570  47.9232020   6.4118120  48.0279690  48.4187310   6.0214230
  47.1062390  47.2449910   5.7671990  42.6899370  47.9941080  12.2987120
  42.6236680  47.0736750  12.0444710  42.0604510  48.0916520  13.0131760
  36.5929990  48.5947040   4.2570540  37.1108660  47.7915300   4.2027430
  36.1414010  48.5326180   5.0987370  34.0774530  45.5608410  11.1696240
  33.7189470  46.2262260  11.7569580  33.7829090  44.7291960  11.5408860
  37.2787650  46.0192650  14.0535790  36.9787790  46.1649830  13.1563610
  38.0498890  45.4597940  13.9609180  42.6216100  50.8161650  12.0490920
  42.6360640  49.8842610  11.8309830  41.9141200  50.9021410  12.6880690
  48.8327310  47.4568990  11.3959500  48.1075500  48.0497770  11.1988890
  49.3602770  47.4492530  10.5972870  44.3626900  49.1829160   4.8943350
  44.7150720  48.5857290   4.2344720  43.4789230  48.8573390   5.0651600
  40.4490180  49.9426850   2.3013760  41.1361310  50.4896060   2.6821350
  39.6622600  50.4867580   2.3363370  39.7517390  46.9472880   1.9139120
  40.2080170  47.7578130   2.1399310  39.4005600  46.6296020   2.7457610
  42.0550000  52.4579220   9.1431420  42.6992220  52.6638600   9.8204840
  42.4179440  51.6967620   8.6902270  35.6529170  37.2910530   2.3861640
  35.5243800  37.2828430   3.3346560  34.8291190  37.6293620   2.0352650
  43.3282080  50.4611570   7.8608870  43.9704310  49.7604730   7.9741040
  43.8531430  51.2410010   7.6805760  45.1019700  51.2606470  11.0644930
  45.4375940  51.8473160  11.7422850  44.1820040  51.1299180  11.2942720
  32.6523100  39.0501650  11.8468340  31.9381620  39.2498570  12.4520950
  33.0718140  38.2741220  12.2183140  32.9395690  53.0381910  12.8334870
  33.0486810  52.0976650  12.6930260  32.2876250  53.3036660  12.1848600
  40.9308280  51.3097800  14.2332990  40.6105150  50.5907040  14.7778680
  40.2566640  51.9852870  14.3069050  44.1461880  41.5423960   9.5969790
  44.5142700  40.7219170   9.9249360  43.2860080  41.6025850  10.0125440
  39.4807940  42.7766850   1.8215230  38.7724090  43.2453190   2.2628840
  39.7652420  42.1188860   2.4560420  41.1063870  44.1963550   9.8207760
  41.6049120  44.6709370  10.4859610  41.2486820  43.2727070  10.0277790
  43.5123370  39.5017510   3.2611020  43.3891150  39.5203640   2.3120530
  44.4607930  39.5496450   3.3809420  40.6000160  54.7372810   2.5339000
  40.8541660  54.6994200   1.6118370  39.6512640  54.6106140   2.5267250
  48.3130730  40.4131510  10.6636150  47.8104330  41.1536910  11.0029960
  49.1287390  40.8015510  10.3472940  46.6052740  45.6564690   4.1097510
  45.6642880  45.6714920   4.2845200  46.9196810  44.8700650   4.5557810
  48.6078320  52.8273540   5.7851770  48.7325740  53.6504710   6.2575580
  49.4743880  52.6164270   5.4375920  36.0795850  54.9204750   5.4568900
  36.8158330  54.3720210   5.7277470  36.4636770  55.7860760   5.3174890
  35.0854130  54.1050820  14.6454480  35.8866860  54.4262870  15.0589880
  34.5705950  53.7446400  15.3674390  43.9218760  50.2130690  14.5929890
  43.3156920  50.2362290  13.8525640  43.6172870  49.4813730  15.1297140
  45.3519130  53.9410980  13.2039300  46.3040880  53.8569000  13.1539540
  45.2047350  54.6052690  13.8773090  32.8051940  46.5924280  13.5890530
  33.3090960  46.0131560  14.1606760  32.0659360  46.8764510  14.1266900
  39.8589880  47.9995270  13.1226050  39.0935550  48.5680270  13.0380720
  40.0405840  47.7071480  12.2294280  47.0013230  49.7300600  13.6801070
  47.7422700  50.0676360  13.1768530  46.2385910  49.8992660  13.1270840
  34.8375020  44.7353870  14.4840600  34.8780360  44.4367740  15.3925830
  35.6920520  45.1361480  14.3248120  36.7780830  43.3145970  12.4515090
  36.2477290  42.8236920  11.8238430  37.4468900  43.7430170  11.9173020
  45.6758890  47.7815430  12.2156280  46.0899910  47.9360510  13.0646700
  44.7409890  47.9070650  12.3782060  46.1481060  45.1211590  14.2195430
  46.7301830  44.3663910  14.1315910  46.3242830  45.6519030  13.4426910
  37.2653130  40.2808340  12.5312380  37.1710000  39.6629090  11.8063250
  36.6850520  41.0074630  12.3042290  40.0314570  38.8381580   9.5639770
  39.5831870  38.8605840   8.7185320  39.3979770  38.4400600  10.1610070
  40.4374120  47.7335910  10.1852210  40.8562230  48.5768640  10.0128450
  39.5182750  47.8707950   9.9558990  42.7738020  45.4652090  11.5690050
  42.8934230  44.8693230  12.3084890  43.6332020  45.5021780  11.1491350
  45.1125920  46.0189280  10.1452560  44.5861140  46.5431900   9.5417700
  45.4557260  46.6516670  10.7762290  38.2881540  54.0388920  11.3009940
  37.7502630  54.7634980  10.9818640  38.5415500  53.5619260  10.5107280
  39.5406790  42.0073440  12.8265870  40.1306480  41.6989290  13.5143690
  38.7227030  41.5353190  12.9825770  44.3600220  41.6239250  13.0598890
  43.6715740  40.9620790  12.9948880  45.0806240  41.1777520  13.5047350
  41.1443750  55.2740130  11.5596590  41.0702450  56.1775270  11.8668960
  40.2422590  54.9552030  11.5318660  32.5471040  52.6014720   4.8630210
  32.8774050  51.7335780   4.6308850  32.9762040  52.8073240   5.6935170
  37.1432960  50.9323730   2.5232180  36.8428500  50.8088700   3.4236090
  37.0370450  50.0732320   2.1147910  33.0361250  53.4685310   7.6011840
  32.5992240  53.6486110   8.4335990  33.6038930  54.2259930   7.4593560
  48.6723430  52.9702310  11.8889150  48.0725420  53.0294870  11.1453070
  48.8017330  52.0307290  12.0186000  32.8685680  45.9805540   3.9600720
  32.2134520  45.7117180   3.3160420  33.7063630  45.8710020   3.5102700
  50.3741310  48.3117710   4.5734990  50.7450140  47.5285030   4.1670960
  51.0143240  49.0006810   4.3952290  47.3575070  49.6954290   9.9865310
  46.5434910  50.1251450  10.2491100  47.7649270  50.3072700   9.3734360
  49.3165850  45.6870970   1.8795010  48.9409450  44.9198900   1.4476300
  48.5868970  46.0693670   2.3669940  33.9061610  46.3658110   8.5004060
  34.2734650  46.2785510   9.3800080  33.3372430  45.6024660   8.4010920
  48.7065470  44.8342490  11.5134530  48.4751560  44.6055240  10.6132480
  48.9670020  45.7542040  11.4679420  33.4577610  43.2767200  12.4062480
  32.5633660  43.2433960  12.7456190  33.9975160  43.4753990  13.1713730
  47.1453540  40.0598920  14.2914230  48.0223720  40.0682320  14.6748230
  47.1574380  39.3229760  13.6806580  48.5916810  43.9128460   5.1802250
  49.1154290  43.4191110   4.5492420  49.1776230  44.0478820   5.9249820
  48.7706530  43.9968330   8.7021800  47.8209240  43.9631870   8.8166790
  48.9519540  44.9068440   8.4671570  33.9617320  37.5515530   6.7545700
  34.6093510  37.0012910   6.3140860  34.3819160  37.8058680   7.5761510
  49.5103940  41.8062760   3.6532340  49.4003220  41.6518800   4.5914610
  50.2711530  41.2783700   3.4107750  47.8569660  37.7456890  10.1115340
  48.4941880  38.3591030  10.4774530  48.0044550  37.7817550   9.1664570
  47.4151120  54.4472890   3.5133580  48.0110190  54.1257460   2.8368000
  47.6729270  53.9744710   4.3046850  33.7149320  37.7071200   9.4971020
  33.3664140  38.1635020  10.2629200  33.3837020  36.8128330   9.5793450
  35.3213690  50.8790800  13.6624210  35.2783320  50.5083710  14.5438670
  35.4524700  51.8168370  13.8026030  39.0219720  52.4350390   9.2633930
  38.7811080  52.7024950   8.3764450  39.9622360  52.6056120   9.3184790
  41.2274140  38.8983080  13.0190440  41.1663030  39.4904910  13.7685850
  42.1674520  38.7909040  12.8740700  43.8648700  38.5553140  12.6582730
  44.4789110  38.8732430  11.9963810  44.4098260  38.0701730  13.2778590
  50.2823880  54.4544770  10.0644570  49.7882160  54.8513640   9.3471700
  49.6737170  53.8293980  10.4581850  34.3869960  37.2347400  12.7721790
  34.9352950  37.0535450  12.0087900  34.4525270  36.4441510  13.3078100
  35.1601720  53.8253050  10.7821990  34.5662040  53.6937750  11.5212030
  35.1525560  52.9891190  10.3164090  44.6056740  37.1185280   8.9852020
  43.7316580  37.4520390   8.7824950  44.4967490  36.6458460   9.8103890
  45.5128720  39.3256150  10.3693740  45.1842080  38.5107910   9.9895470
  46.4611020  39.2825960  10.2459430  47.9663330  55.0968190   7.3431310
  47.5066300  55.8484000   6.9689330  47.3375790  54.3774660   7.2846110
  34.7913950  51.1911430   9.7330030  34.0648010  50.5716720   9.6655980
  34.8523100  51.5852040   8.8628110  38.3959050  53.4056430   6.5179440
  38.9124070  52.7943790   5.9927700  39.0456430  53.9085210   7.0090450
  41.1354550  54.2964920   7.3448420  41.4232360  54.0419220   6.4681430
  41.6477770  53.7442280   7.9353990  42.3531560  38.0355120   7.9244930
  41.5703350  38.5100620   8.2041690  42.0594490  37.1309950   7.8158110
  46.9052630  38.7378220   5.9694020  47.3460720  38.6823320   5.1215620
  46.6360220  39.6536230   6.0404200  48.7691200  38.3693460   3.9802840
  48.7079600  37.4254680   3.8333860  49.5483230  38.4773550   4.5256300
  33.0743950  54.5085820   2.9426790  32.9065990  53.8756500   3.6408680
  32.2078460  54.7145220   2.5920980  40.2385780  40.4541870   3.4360960
  39.4260290  40.0798760   3.0956840  40.7427420  39.6986950   3.7382150
  44.7410760  37.1184320   4.6744030  45.3440130  37.6904530   5.1492550
  44.0003750  37.6823760   4.4517930  38.2634960  38.6041790   2.0406010
  37.6337700  37.9029100   2.2076140  37.7240100  39.3645920   1.8239170
  41.2026910  55.2181020  14.7116620  42.1294220  54.9825290  14.7552580
  41.1877340  56.0453020  14.2302650  38.3890520  37.8825770  14.4758500
  38.1074790  38.3859370  13.7119320  38.7710220  37.0847520  14.1100630
  44.9905980  37.2979350  15.0538970  44.8771430  37.6173960  15.9490490
  45.8075720  37.6991860  14.7576250  47.7704470  54.4450880  14.5357660
  48.5629790  53.9500110  14.3283620  48.0637620  55.1241020  15.1433270
  43.8964130  26.5428330  60.5147670  43.8158180  25.6282940  60.2439380
  43.4828550  27.0395400  59.8087380  42.0282170  28.3207350  62.3956940
  41.2524270  27.8407790  62.6855510  42.6795100  27.6413000  62.2213100
  36.0448000  28.6327160  63.2732700  35.2132880  28.3775870  63.6729210
  36.6528980  28.7037930  64.0090620  46.0489600  32.7267540  61.1756070
  45.5871130  31.9554780  61.5043240  46.8615150  32.7533610  61.6808520
  36.0249260  32.6667250  63.4690720  36.3277300  31.7764990  63.2900940
  36.7692850  33.2237470  63.2412970  34.4539950  23.5929050  57.0575090
  33.5656650  23.9345020  56.9554970  34.7381140  23.3929370  56.1655920
  32.4172960  26.1934700  62.9414790  32.9889070  25.4256900  62.9418430
  32.4174500  26.4923460  62.0321400  42.2752910  35.0125550  60.7960060
  41.6564350  35.4683050  60.2254500  43.1304690  35.1677010  60.3949760
  41.4691160  30.9964540  62.4027100  41.3999440  30.0554480  62.2416230
  42.2311020  31.0865950  62.9749670  33.6597830  21.6019060  64.7283720
  33.4800670  20.7044810  65.0086480  33.2577910  22.1490930  65.4030670
  42.4996330  23.8034920  62.6296030  42.8761150  22.9306800  62.5169700
  42.4015840  24.1393620  61.7386470  36.6301340  22.1760550  58.0913470
  36.7368090  23.0764280  58.3982230  35.7193700  22.1278520  57.8008120
  46.2820450  21.2985360  59.5624370  47.1030070  20.8081930  59.6049850
  46.3154530  21.8883020  60.3156210  34.2784500  24.0979560  63.3366060
  34.9594610  24.3617930  63.9553460  33.9632550  23.2580430  63.6704070
  38.4709070  25.1446920  62.4238650  38.9787290  25.6427890  63.0643670
  39.0022310  24.3682120  62.2478010  43.1416260  29.8964790  58.1891970
  42.5233530  30.3614240  57.6254690  43.6539510  30.5892270  58.6061480
  38.0048020  29.4240660  64.8675570  37.6717400  30.0509580  65.5096640
  38.1814700  29.9502540  64.0877240  46.5181930  23.2385740  62.3351910
  45.8137500  23.5270630  62.9155020  46.8794090  24.0485850  61.9751470
  36.4360500  21.4955440  64.6972520  36.7777310  22.3397490  64.4026390
  35.4976310  21.6439180  64.8137860  32.5099460  30.5821320  55.5631600
  32.1327440  31.0708420  54.8316500  32.7672530  31.2546600  56.1938130
  48.1344710  32.8560870  64.5979390  47.4508230  33.5259980  64.5896060
  48.6739000  33.0541520  63.8324250  49.5868850  22.6840530  62.7261120
  48.6393760  22.7179510  62.8576550  49.9118840  23.4979480  63.1110480
  40.1188390  18.9837710  61.0217110  40.4263370  18.4284600  60.3052610
  39.1889090  19.1182170  60.8390100  45.6703450  34.7005000  63.3124570
  45.6830610  34.2967290  62.4446830  45.1178670  35.4752290  63.2086000
  46.9648870  31.4221220  58.4014740  46.8545200  30.4795550  58.5264160
  46.9617120  31.7836860  59.2877500  45.0688890  29.6034840  64.6407180
  45.4857680  29.3894950  63.8060640  45.7928710  29.8607630  65.2115800
  42.5069150  27.0486540  57.7577230  41.5798430  26.9823920  57.9865700
  42.6593970  27.9866670  57.6432470  42.4938230  23.3203540  54.7544390
  41.5541900  23.4817500  54.8396850  42.8121490  24.0389220  54.2080380
  49.0150990  28.0022060  64.7323420  48.1869620  28.0715150  64.2573550
  49.6101470  28.5876370  64.2639250  46.5366440  28.6106840  58.2612480
  45.9178860  28.2726390  57.6138780  46.5190890  27.9666600  58.9691670
  45.9793000  24.7891380  65.6778290  45.5664180  25.6145090  65.9318280
  45.2468950  24.2036420  65.4854650  38.1125790  27.5751280  60.5396960
  37.7082790  26.8628530  60.0442860  38.1988910  27.2304520  61.4285000
  38.5807490  31.2618840  62.7036170  38.2835780  30.6564310  62.0243950
  39.5307310  31.2996150  62.5925530  36.8254410  24.3494490  64.3196000
  37.3769000  24.4589830  63.5449250  37.3397920  24.7232090  65.0351230
  46.6693100  34.8350710  66.3659270  46.1923660  35.6422900  66.1731880
  45.9854890  34.1829040  66.5185480  44.7131140  27.8493650  55.2685230
  45.1524420  27.0116080  55.1223050  45.4259560  28.4823050  55.3549370
  42.8226520  32.7889720  59.2366470  43.2622430  33.5314050  58.8221860
  42.7613410  33.0316290  60.1605430  48.2948280  19.1036460  53.5826270
  47.9820940  19.1963290  54.4825340  49.0560750  19.6817490  53.5323700
  34.8130420  26.4696260  58.0403610  34.6928020  27.1958350  57.4284880
  34.5031310  25.6999170  57.5631520  32.4515790  29.6411400  63.8472250
  32.5296210  29.7760170  62.9027970  33.0657470  28.9327290  64.0400370
  33.6963420  31.3411590  60.2578430  33.2891500  31.4826180  59.4032030
  34.5876430  31.0571750  60.0549640  45.4896700  35.7758840  56.5929480
  45.3297840  35.4861780  57.4911310  45.3243410  34.9998970  56.0574710
  37.9685080  35.5557370  58.3701100  37.7927560  34.6392910  58.1568900
  37.1140820  35.9144660  58.6098900  45.1922830  33.2846400  55.1527480
  44.4987990  33.2823690  54.4929760  45.9345690  32.8605720  54.7221650
  44.7572760  34.9109110  59.2275970  45.2129710  34.1298490  59.5414590
  45.0965280  35.6215930  59.7717150  37.2794080  19.8131330  61.4227280
  36.8362230  20.5940870  61.0911800  37.8379070  20.1361220  62.1298220
  40.3952900  19.4342030  56.3033110  39.7707080  19.4301900  57.0286420
  40.3083020  18.5672990  55.9069080  39.3169980  20.3578660  63.2816880
  39.6142310  21.2641490  63.2008900  39.8655540  19.8697440  62.6676450
  37.0708300  24.9364900  59.1508530  36.8449220  24.7202070  60.0555150
  36.2900830  25.3693360  58.8054500  44.3006060  24.9428270  57.7499180
  43.7014950  25.6664070  57.5662800  44.8485670  24.8805050  56.9675630
  42.9070930  23.5791810  59.7802460  43.3000500  23.8964010  58.9671150
  43.2687780  22.7003690  59.8946980  31.9435100  20.1692610  62.0032660
  31.6548150  20.7395470  62.7157640  32.6880860  19.6897060  62.3663890
  32.1305330  24.1112730  53.2135380  32.0480000  25.0543490  53.3550370
  31.7788390  23.9687640  52.3347730  43.4926070  26.1697560  63.8753240
  42.7607190  26.6784370  64.2243340  43.0950410  25.3527540  63.5742020
  39.9303460  22.8451760  62.2805730  39.9339520  22.4041710  61.4310270
  40.8254580  23.1669090  62.3877550  35.7805840  22.7278250  61.2399940
  35.4405890  23.2053480  61.9966990  35.0183160  22.2743370  60.8801040
  39.9923610  23.8463840  55.2712490  40.1136430  23.8050320  56.2198310
  39.6072120  24.7087990  55.1159220  43.9551980  21.6231240  63.2876180
  43.9724720  22.0739890  64.1318030  43.7067560  20.7236880  63.5009620
  39.0045110  26.1564980  54.6695790  38.4362010  25.7083230  54.0431700
  39.7134110  26.5157760  54.1360940  40.2311430  26.9053540  64.0271140
  40.5981560  26.4312110  64.7732480  40.0416490  27.7795110  64.3679480
  33.0951920  21.6497230  60.1564610  32.8098840  21.2852900  60.9943230
  33.0330780  20.9177690  59.5427750  36.5492590  30.1523170  56.9422200
  35.7754850  29.6120790  56.7820920  37.2787220  29.6329780  56.6039960
  47.3080570  29.1488530  62.7348590  48.0279690  29.6443820  62.3444700
  47.1062390  28.4706420  62.0902460  42.7690510  20.5426490  56.8777980
  41.9555120  20.0439660  56.8023290  42.5752460  21.3824740  56.4614330
  45.4838900  24.9146140  55.1740140  46.3718520  25.2263370  54.9991480
  45.4543990  24.0418390  54.7820720  36.5929990  29.8203550  60.5801010
  37.1108660  29.0171810  60.5257900  36.1414010  29.7582690  61.4217840
  41.4799490  31.0869830  55.8528310  41.8215190  31.8312060  55.3571630
  40.6512200  31.4000950  56.2153140  47.7553170  26.2257980  54.6420000
  47.6716890  26.6572200  53.7916440  48.4747360  26.6856330  55.0746820
  48.7840420  33.0800240  57.3702130  48.1416580  32.4255860  57.6445850
  48.3971080  33.4855330  56.5942800  44.3626900  30.4085670  61.2173820
  44.7150720  29.8113800  60.5575190  43.4789230  30.0829900  61.3882070
  40.4490180  31.1683360  58.6244230  41.1361310  31.7152570  59.0051820
  39.6622600  31.7124090  58.6593840  32.5882580  26.7856180  54.1161310
  33.4577430  27.0680980  54.3997230  32.0972900  27.5992050  54.0010120
  39.7517390  28.1729390  58.2369590  40.2080170  28.9834640  58.4629780
  39.4005600  27.8552530  59.0688080  42.0550000  33.6835730  65.4661890
  42.6992220  33.8895110  66.1435310  42.4179440  32.9224130  65.0132740
  35.6529170  18.5167040  58.7092110  35.5243800  18.5084940  59.6577030
  34.8291190  18.8550130  58.3583120  43.3282080  31.6868080  64.1839340
  43.9704310  30.9861240  64.2971510  43.8531430  32.4666520  64.0036230
  47.1737800  31.9716700  53.9078480  46.9475380  31.2547140  54.5003120
  46.7834000  31.7229140  53.0700230  32.9553830  35.9983560  54.6822940
  33.3151470  36.5972900  54.0280210  32.8146170  36.5443450  55.4557970
  46.7554050  29.8888640  55.5692640  46.4675750  30.3501330  56.3570520
  47.5506220  29.4286410  55.8376860  38.9722450  33.3814760  55.4996610
  38.9632550  34.1144450  54.8841120  38.0520810  33.1346340  55.5923570
  34.5729090  28.6029650  56.2443370  33.9657040  29.3428550  56.2538670
  35.0478440  28.6929010  55.4181570  44.1461880  22.7680470  65.9200260
  44.5142700  21.9475680  66.2479830  43.2860080  22.8282360  66.3355910
  47.5123910  21.7237410  56.7287820  46.8837070  21.8283080  56.0146050
  47.0175830  21.9434190  57.5181700  41.9582050  33.4443000  54.1621800
  42.0594030  33.2406990  53.2323780  41.0583790  33.1901280  54.3669580
  39.4807940  24.0023360  58.1445700  38.7724090  24.4709700  58.5859310
  39.7652420  23.3445370  58.7790890  43.5123370  20.7274020  59.5841490
  43.3891150  20.7460150  58.6351000  44.4607930  20.7752960  59.7039890
  40.6000160  35.9629320  58.8569470  40.8541660  35.9250710  57.9348840
  39.6512640  35.8362650  58.8497720  37.6842960  22.3108440  55.5196410
  38.5333490  22.7478590  55.4536600  37.3174230  22.6228700  56.3468470
  46.6052740  26.8821200  60.4327980  45.6642880  26.8971430  60.6075670
  46.9196810  26.0957160  60.8788280  36.5834380  28.5640800  53.9931940
  37.3497650  28.4522160  54.5557370  36.6609070  27.8678770  53.3408710
  35.2781140  25.9965870  54.6764830  35.3584730  25.0493380  54.7882230
  36.1700890  26.3272750  54.7825490  48.6078320  34.0530050  62.1082240
  48.7325740  34.8761220  62.5806050  49.4743880  33.8420780  61.7606390
  36.0795850  36.1461260  61.7799370  36.8158330  35.5976720  62.0507940
  36.4636770  37.0117270  61.6405360  32.9641330  32.2134830  57.6540880
  32.0381110  32.4555970  57.6446290  33.4297760  33.0409090  57.5325630
  39.1898160  35.3191570  53.6024940  39.9826770  35.6080400  53.1506730
  38.6702510  34.8883740  52.9237420  48.2428330  34.5461700  55.0261680
  47.9569840  34.1326840  54.2115860  48.0447880  35.4749410  54.9062200
  39.7075560  30.5394980  53.4667290  39.6026200  29.9247330  54.1928670
  39.5399780  30.0160870  52.6830300  42.9478290  29.6015010  54.0709280
  42.3988390  30.0484310  54.7152020  43.5697550  29.0964260  54.5946950
  38.6153410  28.5605930  55.9674580  39.0369830  28.3945800  56.8105970
  38.7404250  27.7506160  55.4729720  41.1281050  27.5843540  53.2151680
  41.6486710  26.8692560  52.8492830  41.7749450  28.2229410  53.5152190
  40.0314570  20.0638090  65.8870240  39.5831870  20.0862350  65.0415790
  39.3979770  19.6657110  66.4840540  40.4374120  28.9592420  66.5082680
  40.8562230  29.8025150  66.3358920  39.5182750  29.0964460  66.2789460
  37.5112310  24.6339160  52.9132740  37.3101370  23.7706520  53.2746080
  37.3404360  24.5472520  51.9754340  44.9900620  19.4447390  55.4419620
  45.2702910  18.6015290  55.7979040  44.2166350  19.6770500  55.9558370
  36.3095110  21.7339780  52.9010620  36.6121010  21.7407210  51.9929770
  37.0489700  21.3837640  53.3978280  39.5280040  20.6774400  53.8866820
  39.1802040  19.9998390  53.3069270  39.7292810  20.2163910  54.7010210
  41.6929080  35.6655150  55.5053420  42.5879870  36.0040120  55.5272180
  41.7246710  34.9434560  54.8777700  35.3325240  31.0382200  53.7340420
  35.7700110  31.5811870  54.3898000  35.8172970  30.2129150  53.7436760
  32.5471040  33.8271230  61.1860680  32.8774050  32.9592290  60.9539320
  32.9762040  34.0329750  62.0165640  37.1432960  32.1580240  58.8462650
  36.8428500  32.0345210  59.7466560  37.0370450  31.2988830  58.4378380
  33.0361250  34.6941820  63.9242310  32.5992240  34.8742620  64.7566460
  33.6038930  35.4516440  63.7824030  49.9124880  31.9376640  53.5489330
  49.0817840  32.0053290  54.0196560  50.0896710  32.8280760  53.2456190
  49.3681340  28.6824120  56.0523530  50.1300250  29.2520770  56.1583220
  49.3835710  28.1151320  56.8231840  32.8685680  27.2062050  60.2831190
  32.2134520  26.9373690  59.6390890  33.7063630  27.0966530  59.8333170
  50.3741310  29.5374220  60.8965460  50.7450140  28.7541540  60.4901430
  51.0143240  30.2263320  60.7182760  49.4200510  28.9758490  53.2096050
  49.6949350  29.8837370  53.0815270  49.2311250  28.9121020  54.1458040
  45.8176120  22.0003340  54.5049680  46.2361000  21.8134320  53.6646340
  45.5112180  21.1482390  54.8152610  49.3165850  26.9127480  58.2025480
  48.9409450  26.1455410  57.7706770  48.5868970  27.2950180  58.6900410
  33.9061610  27.5914620  64.8234530  34.2734650  27.5042020  65.7030550
  33.3372430  26.8281170  64.7241390  32.0823760  24.4160980  56.2256520
  31.1787840  24.6791180  56.0508180  32.5664380  24.6872150  55.4456480
  48.5916810  25.1384970  61.5032720  49.1154290  24.6447620  60.8722890
  49.1776230  25.2735330  62.2480290  48.7706530  25.2224840  65.0252270
  47.8209240  25.1888380  65.1397260  48.9519540  26.1324950  64.7902040
  34.6250970  23.4726520  54.1350900  35.3342670  23.0509740  53.6498180
  33.9090910  23.5401750  53.5034250  34.2725130  19.5265850  53.1753550
  34.9953260  20.0674790  53.4934770  34.5449650  19.2529270  52.2995090
  48.0816780  24.3958320  57.4425130  48.5775900  24.1629190  58.2274010
  47.8832850  23.5570160  57.0262770  33.9617320  18.7772040  63.0776170
  34.6093510  18.2269420  62.6371330  34.3819160  19.0315190  63.8991980
  49.5103940  23.0319270  59.9762810  49.4003220  22.8775310  60.9145080
  50.2711530  22.5040210  59.7338220  50.3994210  20.8627190  53.2168950
  51.3243520  20.7308370  53.0087240  50.3770000  20.9420010  54.1705400
  50.4732700  21.6337850  55.8425660  49.6784200  21.5682970  56.3718570
  50.6775980  22.5688490  55.8311010  47.4151120  35.6729400  59.8364050
  48.0110190  35.3513970  59.1598470  47.6729270  35.2001220  60.6277320
  39.0219720  33.6606900  65.5864400  38.7811080  33.9281460  64.6994920
  39.9622360  33.8312630  65.6415260  44.6056740  18.3441790  65.3082490
  43.7316580  18.6776900  65.1055420  44.4967490  17.8714970  66.1334360
  47.9663330  36.3224700  63.6661780  47.5066300  37.0740510  63.2919800
  47.3375790  35.6031170  63.6076580  34.7913950  32.4167940  66.0560500
  34.0648010  31.7973230  65.9886450  34.8523100  32.8108550  65.1858580
  38.3959050  34.6312940  62.8409910  38.9124070  34.0200300  62.3158170
  39.0456430  35.1341720  63.3320920  41.1354550  35.5221430  63.6678890
  41.4232360  35.2675730  62.7911900  41.6477770  34.9698790  64.2584460
  42.3531560  19.2611630  64.2475400  41.5703350  19.7357130  64.5272160
  42.0594490  18.3566460  64.1388580  46.9052630  19.9634730  62.2924490
  47.3460720  19.9079830  61.4446090  46.6360220  20.8792740  62.3634670
  48.7691200  19.5949970  60.3033310  48.7079600  18.6511190  60.1564330
  49.5483230  19.7030060  60.8486770  33.0743950  35.7342330  59.2657260
  32.9065990  35.1013010  59.9639150  32.2078460  35.9401730  58.9151450
  33.6971970  19.5659110  56.7689120  34.4551330  19.6787990  56.1953150
  33.2349140  20.4028310  56.7232550  40.2385780  21.6798380  59.7591430
  39.4260290  21.3055270  59.4187310  40.7427420  20.9243460  60.0612620
  44.7410760  18.3440830  60.9974500  45.3440130  18.9161040  61.4723020
  44.0003750  18.9080270  60.7748400  47.8845360  18.7462390  56.2714780
  48.0795990  19.6445840  56.5382210  47.0975230  18.5149470  56.7647730
  34.6806650  34.4275560  56.7107400  34.1554270  34.8083590  56.0069360
  34.6051230  35.0526330  57.4317110  36.0697120  20.0923160  55.3091090
  36.5989880  19.3052960  55.1799040  36.7025440  20.7714350  55.5426620
  38.2634960  19.8298300  58.3636480  37.6337700  19.1285610  58.5306610
  37.7240100  20.5902430  58.1469640  49.4371970  35.9863100  58.0321340
  49.6124160  35.3000840  57.3882260  48.7393540  36.5110150  57.6398010
  37.2799620  36.3757940  55.5856650  38.0118440  36.0917220  55.0380540
  37.5393290  36.1371220  56.4756030  36.4414410  32.4922670  55.5902980
  35.8123290  32.9607770  56.1388810  36.5562240  31.6471890  56.0249170
  43.8964130  26.5428330  41.7404180  43.8158180  25.6282940  41.4695890
  43.4828550  27.0395400  41.0343890  42.0282170  28.3207350  43.6213450
  41.2524270  27.8407790  43.9112020  42.6795100  27.6413000  43.4469610
  46.0489600  32.7267540  42.4012580  45.5871130  31.9554780  42.7299750
  46.8615150  32.7533610  42.9065030  34.4539950  23.5929050  38.2831600
  33.5656650  23.9345020  38.1811480  34.7381140  23.3929370  37.3912430
  42.2752910  35.0125550  42.0216570  41.6564350  35.4683050  41.4511010
  43.1304690  35.1677010  41.6206270  41.4691160  30.9964540  43.6283610
  41.3999440  30.0554480  43.4672740  42.2311020  31.0865950  44.2006180
  33.6597830  21.6019060  45.9540230  33.4800670  20.7044810  46.2342990
  33.2577910  22.1490930  46.6287180  42.4996330  23.8034920  43.8552540
  42.8761150  22.9306800  43.7426210  42.4015840  24.1393620  42.9642980
  36.6301340  22.1760550  39.3169980  36.7368090  23.0764280  39.6238740
  35.7193700  22.1278520  39.0264630  46.2820450  21.2985360  40.7880880
  47.1030070  20.8081930  40.8306360  46.3154530  21.8883020  41.5412720
  34.2784500  24.0979560  44.5622570  34.9594610  24.3617930  45.1809970
  33.9632550  23.2580430  44.8960580  50.5720000  23.3152110  47.3524510
  49.8672170  23.7033820  46.8339620  50.8377920  24.0102400  47.9545440
  36.7545170  19.7845480  47.9158580  36.7563610  20.3017870  47.1104480
  35.9249480  19.3075660  47.8928510  43.1416260  29.8964790  39.4148480
  42.5233530  30.3614240  38.8511200  43.6539510  30.5892270  39.8317990
  46.5181930  23.2385740  43.5608420  45.8137500  23.5270630  44.1411530
  46.8794090  24.0485850  43.2007980  36.4360500  21.4955440  45.9229030
  36.7777310  22.3397490  45.6282900  35.4976310  21.6439180  46.0394370
  37.2167120  31.3921460  47.9081260  37.8341120  32.0672540  47.6265710
  36.3560240  31.8009440  47.8168760  49.5868850  22.6840530  43.9517630
  48.6393760  22.7179510  44.0833060  49.9118840  23.4979480  44.3366990
  40.1188390  18.9837710  42.2473620  40.4263370  18.4284600  41.5309120
  39.1889090  19.1182170  42.0646610  45.6703450  34.7005000  44.5381080
  45.6830610  34.2967290  43.6703340  45.1178670  35.4752290  44.4342510
  45.0688890  29.6034840  45.8663690  45.4857680  29.3894950  45.0317150
  45.7928710  29.8607630  46.4372310  42.5069150  27.0486540  38.9833740
  41.5798430  26.9823920  39.2122210  42.6593970  27.9866670  38.8688980
  42.4938230  23.3203540  35.9800900  41.5541900  23.4817500  36.0653360
  42.8121490  24.0389220  35.4336890  49.0150990  28.0022060  45.9579930
  48.1869620  28.0715150  45.4830060  49.6101470  28.5876370  45.4895760
  46.5366440  28.6106840  39.4868990  45.9178860  28.2726390  38.8395290
  46.5190890  27.9666600  40.1948180  45.9793000  24.7891380  46.9034800
  45.5664180  25.6145090  47.1574790  45.2468950  24.2036420  46.7111160
  36.8254410  24.3494490  45.5452510  37.3769000  24.4589830  44.7705760
  37.3397920  24.7232090  46.2607740  46.6693100  34.8350710  47.5915780
  46.1923660  35.6422900  47.3988390  45.9854890  34.1829040  47.7441990
  37.6725920  31.0000530  50.5800480  36.7754450  31.2240500  50.8273880
  37.6978790  31.1235470  49.6311880  44.7131140  27.8493650  36.4941740
  45.1524420  27.0116080  36.3479560  45.4259560  28.4823050  36.5805880
  36.4997140  27.8713850  49.1557850  36.3604910  28.7436650  49.5245250
  35.6178500  27.5286660  49.0105790  42.8226520  32.7889720  40.4622980
  43.2622430  33.5314050  40.0478370  42.7613410  33.0316290  41.3861940
  38.2977490  33.8135550  51.3643000  38.2692920  34.2178500  50.4971430
  38.1342460  32.8845910  51.2014600  48.2948280  19.1036460  34.8082780
  47.9820940  19.1963290  35.7081850  49.0560750  19.6817490  34.7580210
  50.2492310  34.5962650  52.6607170  50.7252030  35.0745540  53.3396250
  50.8699470  34.5280140  51.9352670  43.5142300  35.4903500  48.3901990
  44.0286970  35.4011510  49.1924420  42.6711380  35.8363200  48.6829900
  45.4896700  35.7758840  37.8185990  45.3297840  35.4861780  38.7167820
  45.3243410  34.9998970  37.2831220  45.1922830  33.2846400  36.3783990
  44.4987990  33.2823690  35.7186270  45.9345690  32.8605720  35.9478160
  44.7572760  34.9109110  40.4532480  45.2129710  34.1298490  40.7671100
  45.0965280  35.6215930  40.9973660  49.5049570  23.8407960  50.7856920
  48.8893840  24.3487630  50.2572380  49.1845990  22.9406290  50.7282860
  37.2794080  19.8131330  42.6483790  36.8362230  20.5940870  42.3168310
  37.8379070  20.1361220  43.3554730  41.5663890  22.6799850  48.2519110
  41.1043260  22.8882870  49.0639050  41.1642000  21.8659200  47.9489780
  46.5668400  23.9008800  49.3815770  45.7161990  23.6014550  49.7024840
  46.4070190  24.1450810  48.4699590  43.6618110  25.4010550  51.4814560
  43.9871520  24.5674300  51.1416790  44.4498440  25.9239070  51.6292890
  40.3952900  19.4342030  37.5289620  39.7707080  19.4301900  38.2542930
  40.3083020  18.5672990  37.1325590  39.3169980  20.3578660  44.5073390
  39.6142310  21.2641490  44.4265410  39.8655540  19.8697440  43.8932960
  37.0708300  24.9364900  40.3765040  36.8449220  24.7202070  41.2811660
  36.2900830  25.3693360  40.0311010  44.3006060  24.9428270  38.9755690
  43.7014950  25.6664070  38.7919310  44.8485670  24.8805050  38.1932140
  39.5107510  25.8350480  51.0425310  39.4151110  24.8945210  50.8925710
  40.3539490  26.0565550  50.6473380  42.9070930  23.5791810  41.0058970
  43.3000500  23.8964010  40.1927660  43.2687780  22.7003690  41.1203490
  34.6418050  22.2464150  49.1959090  34.2481440  23.0939360  49.4031870
  33.9536450  21.6090520  49.3867730  41.2163100  22.3299120  52.2655830
  40.5261420  22.1371320  52.9001920  41.9595400  22.6133760  52.7980130
  31.9435100  20.1692610  43.2289170  31.6548150  20.7395470  43.9414150
  32.6880860  19.6897060  43.5920400  32.1305330  24.1112730  34.4391890
  32.0480000  25.0543490  34.5806880  31.7788390  23.9687640  33.5604240
  43.4926070  26.1697560  45.1009750  42.7607190  26.6784370  45.4499850
  43.0950410  25.3527540  44.7998530  39.9303460  22.8451760  43.5062240
  39.9339520  22.4041710  42.6566780  40.8254580  23.1669090  43.6134060
  35.7805840  22.7278250  42.4656450  35.4405890  23.2053480  43.2223500
  35.0183160  22.2743370  42.1057550  39.9923610  23.8463840  36.4969000
  40.1136430  23.8050320  37.4454820  39.6072120  24.7087990  36.3415730
  43.9551980  21.6231240  44.5132690  43.9724720  22.0739890  45.3574540
  43.7067560  20.7236880  44.7266130  39.0045110  26.1564980  35.8952300
  38.4362010  25.7083230  35.2688210  39.7134110  26.5157760  35.3617450
  47.3822730  19.0363420  50.3519070  47.7068500  18.3053080  50.8777050
  47.4179240  18.7177060  49.4500060  33.0951920  21.6497230  41.3821120
  32.8098840  21.2852900  42.2199740  33.0330780  20.9177690  40.7684260
  38.0210800  25.9462180  47.5711860  37.7167870  26.8254160  47.7962220
  38.9757260  26.0061970  47.6069300  47.3080570  29.1488530  43.9605100
  48.0279690  29.6443820  43.5701210  47.1062390  28.4706420  43.3158970
  42.7690510  20.5426490  38.1034490  41.9555120  20.0439660  38.0279800
  42.5752460  21.3824740  37.6870840  42.6899370  29.2197590  49.8474100
  42.6236680  28.2993260  49.5931690  42.0604510  29.3173030  50.5618740
  45.4838900  24.9146140  36.3996650  46.3718520  25.2263370  36.2247990
  45.4543990  24.0418390  36.0077230  41.4799490  31.0869830  37.0784820
  41.8215190  31.8312060  36.5828140  40.6512200  31.4000950  37.4409650
  37.2787650  27.2449160  51.6022770  36.9787790  27.3906340  50.7050590
  38.0498890  26.6854450  51.5096160  42.6216100  32.0418160  49.5977900
  42.6360640  31.1099120  49.3796810  41.9141200  32.1277920  50.2367670
  47.7553170  26.2257980  35.8676510  47.6716890  26.6572200  35.0172950
  48.4747360  26.6856330  36.3003330  48.8327310  28.6825500  48.9446480
  48.1075500  29.2754280  48.7475870  49.3602770  28.6749040  48.1459850
  44.3626900  30.4085670  42.4430330  44.7150720  29.8113800  41.7831700
  43.4789230  30.0829900  42.6138580  40.4490180  31.1683360  39.8500740
  41.1361310  31.7152570  40.2308330  39.6622600  31.7124090  39.8850350
  32.5882580  26.7856180  35.3417820  33.4577430  27.0680980  35.6253740
  32.0972900  27.5992050  35.2266630  39.7517390  28.1729390  39.4626100
  40.2080170  28.9834640  39.6886290  39.4005600  27.8552530  40.2944590
  42.0550000  33.6835730  46.6918400  42.6992220  33.8895110  47.3691820
  42.4179440  32.9224130  46.2389250  35.6529170  18.5167040  39.9348620
  35.5243800  18.5084940  40.8833540  34.8291190  18.8550130  39.5839630
  43.3282080  31.6868080  45.4095850  43.9704310  30.9861240  45.5228020
  43.8531430  32.4666520  45.2292740  47.1737800  31.9716700  35.1334990
  46.9475380  31.2547140  35.7259630  46.7834000  31.7229140  34.2956740
  45.1019700  32.4862980  48.6131910  45.4375940  33.0729670  49.2909830
  44.1820040  32.3555690  48.8429700  32.6523100  20.2758160  49.3955320
  31.9381620  20.4755080  50.0007930  33.0718140  19.4997730  49.7670120
  32.9395690  34.2638420  50.3821850  33.0486810  33.3233160  50.2417240
  32.2876250  34.5293170  49.7335580  40.9308280  32.5354310  51.7819970
  40.6105150  31.8163550  52.3265660  40.2566640  33.2109380  51.8556030
  44.1461880  22.7680470  47.1456770  44.5142700  21.9475680  47.4736340
  43.2860080  22.8282360  47.5612420  47.5123910  21.7237410  37.9544330
  46.8837070  21.8283080  37.2402560  47.0175830  21.9434190  38.7438210
  41.9582050  33.4443000  35.3878310  42.0594030  33.2406990  34.4580290
  41.0583790  33.1901280  35.5926090  39.4807940  24.0023360  39.3702210
  38.7724090  24.4709700  39.8115820  39.7652420  23.3445370  40.0047400
  41.1063870  25.4220060  47.3694740  41.6049120  25.8965880  48.0346590
  41.2486820  24.4983580  47.5764770  43.5123370  20.7274020  40.8098000
  43.3891150  20.7460150  39.8607510  44.4607930  20.7752960  40.9296400
  40.6000160  35.9629320  40.0825980  40.8541660  35.9250710  39.1605350
  39.6512640  35.8362650  40.0754230  37.6842960  22.3108440  36.7452920
  38.5333490  22.7478590  36.6793110  37.3174230  22.6228700  37.5724980
  48.3130730  21.6388020  48.2123130  47.8104330  22.3793420  48.5516940
  49.1287390  22.0272020  47.8959920  46.6052740  26.8821200  41.6584490
  45.6642880  26.8971430  41.8332180  46.9196810  26.0957160  42.1044790
  35.2781140  25.9965870  35.9021340  35.3584730  25.0493380  36.0138740
  36.1700890  26.3272750  36.0082000  35.0854130  35.3307330  52.1941460
  35.8866860  35.6519380  52.6076860  34.5705950  34.9702910  52.9161370
  39.1898160  35.3191570  34.8281450  39.9826770  35.6080400  34.3763240
  38.6702510  34.8883740  34.1493930  43.9218760  31.4387200  52.1416870
  43.3156920  31.4618800  51.4012620  43.6172870  30.7070240  52.6784120
  45.3519130  35.1667490  50.7526280  46.3040880  35.0825510  50.7026520
  45.2047350  35.8309200  51.4260070  48.2428330  34.5461700  36.2518190
  47.9569840  34.1326840  35.4372370  48.0447880  35.4749410  36.1318710
  32.8051940  27.8180790  51.1377510  33.3090960  27.2388070  51.7093740
  32.0659360  28.1021020  51.6753880  39.7075560  30.5394980  34.6923800
  39.6026200  29.9247330  35.4185180  39.5399780  30.0160870  33.9086810
  39.8589880  29.2251780  50.6713030  39.0935550  29.7936780  50.5867700
  40.0405840  28.9327990  49.7781260  42.9478290  29.6015010  35.2965790
  42.3988390  30.0484310  35.9408530  43.5697550  29.0964260  35.8203460
  47.0013230  30.9557110  51.2288050  47.7422700  31.2932870  50.7255510
  46.2385910  31.1249170  50.6757820  34.8375020  25.9610380  52.0327580
  34.8780360  25.6624250  52.9412810  35.6920520  26.3617990  51.8735100
  38.6153410  28.5605930  37.1931090  39.0369830  28.3945800  38.0362480
  38.7404250  27.7506160  36.6986230  36.7780830  24.5402480  50.0002070
  36.2477290  24.0493430  49.3725410  37.4468900  24.9686680  49.4660000
  41.1281050  27.5843540  34.4408190  41.6486710  26.8692560  34.0749340
  41.7749450  28.2229410  34.7408700  45.6758890  29.0071940  49.7643260
  46.0899910  29.1617020  50.6133680  44.7409890  29.1327160  49.9269040
  46.1481060  26.3468100  51.7682410  46.7301830  25.5920420  51.6802890
  46.3242830  26.8775540  50.9913890  37.2653130  21.5064850  50.0799360
  37.1710000  20.8885600  49.3550230  36.6850520  22.2331140  49.8529270
  40.0314570  20.0638090  47.1126750  39.5831870  20.0862350  46.2672300
  39.3979770  19.6657110  47.7097050  40.4374120  28.9592420  47.7339190
  40.8562230  29.8025150  47.5615430  39.5182750  29.0964460  47.5045970
  42.7738020  26.6908600  49.1177030  42.8934230  26.0949740  49.8571870
  43.6332020  26.7278290  48.6978330  45.1125920  27.2445790  47.6939540
  44.5861140  27.7688410  47.0904680  45.4557260  27.8773180  48.3249270
  37.5112310  24.6339160  34.1389250  37.3101370  23.7706520  34.5002590
  37.3404360  24.5472520  33.2010850  38.2881540  35.2645430  48.8496920
  37.7502630  35.9891490  48.5305620  38.5415500  34.7875770  48.0594260
  39.5406790  23.2329950  50.3752850  40.1306480  22.9245800  51.0630670
  38.7227030  22.7609700  50.5312750  44.3600220  22.8495760  50.6085870
  43.6715740  22.1877300  50.5435860  45.0806240  22.4034030  51.0534330
  44.9900620  19.4447390  36.6676130  45.2702910  18.6015290  37.0235550
  44.2166350  19.6770500  37.1814880  36.3095110  21.7339780  34.1267130
  36.6121010  21.7407210  33.2186280  37.0489700  21.3837640  34.6234790
  41.1443750  36.4996640  49.1083570  41.0702450  37.4031780  49.4155940
  40.2422590  36.1808540  49.0805640  39.5280040  20.6774400  35.1123330
  39.1802040  19.9998390  34.5325780  39.7292810  20.2163910  35.9266720
  41.6929080  35.6655150  36.7309930  42.5879870  36.0040120  36.7528690
  41.7246710  34.9434560  36.1034210  48.6723430  34.1958820  49.4376130
  48.0725420  34.2551380  48.6940050  48.8017330  33.2563800  49.5672980
  47.3575070  30.9210800  47.5352290  46.5434910  31.3507960  47.7978080
  47.7649270  31.5329210  46.9221340  45.8176120  22.0003340  35.7306190
  46.2361000  21.8134320  34.8902850  45.5112180  21.1482390  36.0409120
  48.7065470  26.0599000  49.0621510  48.4751560  25.8311750  48.1619460
  48.9670020  26.9798550  49.0166400  33.4577610  24.5023710  49.9549460
  32.5633660  24.4690470  50.2943170  33.9975160  24.7010500  50.7200710
  47.1453540  21.2855430  51.8401210  48.0223720  21.2938830  52.2235210
  47.1574380  20.5486270  51.2293560  32.0823760  24.4160980  37.4513030
  31.1787840  24.6791180  37.2764690  32.5664380  24.6872150  36.6712990
  48.5916810  25.1384970  42.7289230  49.1154290  24.6447620  42.0979400
  49.1776230  25.2735330  43.4736800  48.7706530  25.2224840  46.2508780
  47.8209240  25.1888380  46.3653770  48.9519540  26.1324950  46.0158550
  34.6250970  23.4726520  35.3607410  35.3342670  23.0509740  34.8754690
  33.9090910  23.5401750  34.7290760  34.2725130  19.5265850  34.4010060
  34.9953260  20.0674790  34.7191280  34.5449650  19.2529270  33.5251600
  33.9617320  18.7772040  44.3032680  34.6093510  18.2269420  43.8627840
  34.3819160  19.0315190  45.1248490  49.5103940  23.0319270  41.2019320
  49.4003220  22.8775310  42.1401590  50.2711530  22.5040210  40.9594730
  47.8569660  18.9713400  47.6602320  48.4941880  19.5847540  48.0261510
  48.0044550  19.0074060  46.7151550  50.3994210  20.8627190  34.4425460
  51.3243520  20.7308370  34.2343750  50.3770000  20.9420010  35.3961910
  33.7149320  18.9327710  47.0458000  33.3664140  19.3891530  47.8116180
  33.3837020  18.0384840  47.1280430  35.3213690  32.1047310  51.2111190
  35.2783320  31.7340220  52.0925650  35.4524700  33.0424880  51.3513010
  39.0219720  33.6606900  46.8120910  38.7811080  33.9281460  45.9251430
  39.9622360  33.8312630  46.8671770  41.2274140  20.1239590  50.5677420
  41.1663030  20.7161420  51.3172830  42.1674520  20.0165550  50.4227680
  43.8648700  19.7809650  50.2069710  44.4789110  20.0988940  49.5450790
  44.4098260  19.2958240  50.8265570  34.3869960  18.4603910  50.3208770
  34.9352950  18.2791960  49.5574880  34.4525270  17.6698020  50.8565080
  35.1601720  35.0509560  48.3308970  34.5662040  34.9194260  49.0699010
  35.1525560  34.2147700  47.8651070  44.6056740  18.3441790  46.5339000
  43.7316580  18.6776900  46.3311930  44.4967490  17.8714970  47.3590870
  45.5128720  20.5512660  47.9180720  45.1842080  19.7364420  47.5382450
  46.4611020  20.5082470  47.7946410  38.3959050  34.6312940  44.0666420
  38.9124070  34.0200300  43.5414680  39.0456430  35.1341720  44.5577430
  41.1354550  35.5221430  44.8935400  41.4232360  35.2675730  44.0168410
  41.6477770  34.9698790  45.4840970  42.3531560  19.2611630  45.4731910
  41.5703350  19.7357130  45.7528670  42.0594490  18.3566460  45.3645090
  46.9052630  19.9634730  43.5181000  47.3460720  19.9079830  42.6702600
  46.6360220  20.8792740  43.5891180  48.7691200  19.5949970  41.5289820
  48.7079600  18.6511190  41.3820840  49.5483230  19.7030060  42.0743280
  33.6971970  19.5659110  37.9945630  34.4551330  19.6787990  37.4209660
  33.2349140  20.4028310  37.9489060  40.2385780  21.6798380  40.9847940
  39.4260290  21.3055270  40.6443820  40.7427420  20.9243460  41.2869130
  44.7410760  18.3440830  42.2231010  45.3440130  18.9161040  42.6979530
  44.0003750  18.9080270  42.0004910  47.8845360  18.7462390  37.4971290
  48.0795990  19.6445840  37.7638720  47.0975230  18.5149470  37.9904240
  36.0697120  20.0923160  36.5347600  36.5989880  19.3052960  36.4055550
  36.7025440  20.7714350  36.7683130  38.2634960  19.8298300  39.5892990
  37.6337700  19.1285610  39.7563120  37.7240100  20.5902430  39.3726150
  41.2026910  36.4437530  52.2603600  42.1294220  36.2081800  52.3039560
  41.1877340  37.2709530  51.7789630  38.3890520  19.1082280  52.0245480
  38.1074790  19.6115880  51.2606300  38.7710220  18.3104030  51.6587610
  44.9905980  18.5235860  52.6025950  44.8771430  18.8430470  53.4977470
  45.8075720  18.9248370  52.3063230  47.7704470  35.6707390  52.0844640
  48.5629790  35.1756620  51.8770600  48.0637620  36.3497530  52.6920250
  43.8964130  26.5428330  22.9660690  43.8158180  25.6282940  22.6952400
  43.4828550  27.0395400  22.2600400  42.0282170  28.3207350  24.8469960
  41.2524270  27.8407790  25.1368530  42.6795100  27.6413000  24.6726120
  36.0448000  28.6327160  25.7245720  35.2132880  28.3775870  26.1242230
  36.6528980  28.7037930  26.4603640  46.0489600  32.7267540  23.6269090
  45.5871130  31.9554780  23.9556260  46.8615150  32.7533610  24.1321540
  36.0249260  32.6667250  25.9203740  36.3277300  31.7764990  25.7413960
  36.7692850  33.2237470  25.6925990  34.4539950  23.5929050  19.5088110
  33.5656650  23.9345020  19.4067990  34.7381140  23.3929370  18.6168940
  32.4172960  26.1934700  25.3927810  32.9889070  25.4256900  25.3931450
  32.4174500  26.4923460  24.4834420  42.2752910  35.0125550  23.2473080
  41.6564350  35.4683050  22.6767520  43.1304690  35.1677010  22.8462780
  41.4691160  30.9964540  24.8540120  41.3999440  30.0554480  24.6929250
  42.2311020  31.0865950  25.4262690  33.6597830  21.6019060  27.1796740
  33.4800670  20.7044810  27.4599500  33.2577910  22.1490930  27.8543690
  42.4996330  23.8034920  25.0809050  42.8761150  22.9306800  24.9682720
  42.4015840  24.1393620  24.1899490  36.6301340  22.1760550  20.5426490
  36.7368090  23.0764280  20.8495250  35.7193700  22.1278520  20.2521140
  46.2820450  21.2985360  22.0137390  47.1030070  20.8081930  22.0562870
  46.3154530  21.8883020  22.7669230  34.2784500  24.0979560  25.7879080
  34.9594610  24.3617930  26.4066480  33.9632550  23.2580430  26.1217090
  38.4709070  25.1446920  24.8751670  38.9787290  25.6427890  25.5156690
  39.0022310  24.3682120  24.6991030  50.5720000  23.3152110  28.5781020
  49.8672170  23.7033820  28.0596130  50.8377920  24.0102400  29.1801950
  36.7545170  19.7845480  29.1415090  36.7563610  20.3017870  28.3360990
  35.9249480  19.3075660  29.1185020  43.1416260  29.8964790  20.6404990
  42.5233530  30.3614240  20.0767710  43.6539510  30.5892270  21.0574500
  38.0048020  29.4240660  27.3188590  37.6717400  30.0509580  27.9609660
  38.1814700  29.9502540  26.5390260  46.5181930  23.2385740  24.7864930
  45.8137500  23.5270630  25.3668040  46.8794090  24.0485850  24.4264490
  36.4360500  21.4955440  27.1485540  36.7777310  22.3397490  26.8539410
  35.4976310  21.6439180  27.2650880  37.2167120  31.3921460  29.1337770
  37.8341120  32.0672540  28.8522220  36.3560240  31.8009440  29.0425270
  32.5099460  30.5821320  18.0144620  32.1327440  31.0708420  17.2829520
  32.7672530  31.2546600  18.6451150  48.1344710  32.8560870  27.0492410
  47.4508230  33.5259980  27.0409080  48.6739000  33.0541520  26.2837270
  49.5868850  22.6840530  25.1774140  48.6393760  22.7179510  25.3089570
  49.9118840  23.4979480  25.5623500  40.1188390  18.9837710  23.4730130
  40.4263370  18.4284600  22.7565630  39.1889090  19.1182170  23.2903120
  45.6703450  34.7005000  25.7637590  45.6830610  34.2967290  24.8959850
  45.1178670  35.4752290  25.6599020  46.9648870  31.4221220  20.8527760
  46.8545200  30.4795550  20.9777180  46.9617120  31.7836860  21.7390520
  45.0688890  29.6034840  27.0920200  45.4857680  29.3894950  26.2573660
  45.7928710  29.8607630  27.6628820  42.5069150  27.0486540  20.2090250
  41.5798430  26.9823920  20.4378720  42.6593970  27.9866670  20.0945490
  42.4938230  23.3203540  17.2057410  41.5541900  23.4817500  17.2909870
  42.8121490  24.0389220  16.6593400  49.0150990  28.0022060  27.1836440
  48.1869620  28.0715150  26.7086570  49.6101470  28.5876370  26.7152270
  46.5366440  28.6106840  20.7125500  45.9178860  28.2726390  20.0651800
  46.5190890  27.9666600  21.4204690  45.9793000  24.7891380  28.1291310
  45.5664180  25.6145090  28.3831300  45.2468950  24.2036420  27.9367670
  38.1125790  27.5751280  22.9909980  37.7082790  26.8628530  22.4955880
  38.1988910  27.2304520  23.8798020  38.5807490  31.2618840  25.1549190
  38.2835780  30.6564310  24.4756970  39.5307310  31.2996150  25.0438550
  36.8254410  24.3494490  26.7709020  37.3769000  24.4589830  25.9962270
  37.3397920  24.7232090  27.4864250  37.6725920  31.0000530  31.8056990
  36.7754450  31.2240500  32.0530390  37.6978790  31.1235470  30.8568390
  44.7131140  27.8493650  17.7198250  45.1524420  27.0116080  17.5736070
  45.4259560  28.4823050  17.8062390  36.4997140  27.8713850  30.3814360
  36.3604910  28.7436650  30.7501760  35.6178500  27.5286660  30.2362300
  42.8226520  32.7889720  21.6879490  43.2622430  33.5314050  21.2734880
  42.7613410  33.0316290  22.6118450  38.2977490  33.8135550  32.5899510
  38.2692920  34.2178500  31.7227940  38.1342460  32.8845910  32.4271110
  48.2948280  19.1036460  16.0339290  47.9820940  19.1963290  16.9338360
  49.0560750  19.6817490  15.9836720  34.8130420  26.4696260  20.4916630
  34.6928020  27.1958350  19.8797900  34.5031310  25.6999170  20.0144540
  32.4515790  29.6411400  26.2985270  32.5296210  29.7760170  25.3540990
  33.0657470  28.9327290  26.4913390  33.6963420  31.3411590  22.7091450
  33.2891500  31.4826180  21.8545050  34.5876430  31.0571750  22.5062660
  43.5142300  35.4903500  29.6158500  44.0286970  35.4011510  30.4180930
  42.6711380  35.8363200  29.9086410  45.4896700  35.7758840  19.0442500
  45.3297840  35.4861780  19.9424330  45.3243410  34.9998970  18.5087730
  37.9685080  35.5557370  20.8214120  37.7927560  34.6392910  20.6081920
  37.1140820  35.9144660  21.0611920  45.1922830  33.2846400  17.6040500
  44.4987990  33.2823690  16.9442780  45.9345690  32.8605720  17.1734670
  44.7572760  34.9109110  21.6788990  45.2129710  34.1298490  21.9927610
  45.0965280  35.6215930  22.2230170  49.5049570  23.8407960  32.0113430
  48.8893840  24.3487630  31.4828890  49.1845990  22.9406290  31.9539370
  32.5075310  30.6825570  28.8379730  32.6706350  30.2130930  28.0199100
  32.9727760  30.1749130  29.5028570  37.2794080  19.8131330  23.8740300
  36.8362230  20.5940870  23.5424820  37.8379070  20.1361220  24.5811240
  41.5663890  22.6799850  29.4775620  41.1043260  22.8882870  30.2895560
  41.1642000  21.8659200  29.1746290  46.5668400  23.9008800  30.6072280
  45.7161990  23.6014550  30.9281350  46.4070190  24.1450810  29.6956100
  43.6618110  25.4010550  32.7071070  43.9871520  24.5674300  32.3673300
  44.4498440  25.9239070  32.8549400  40.3952900  19.4342030  18.7546130
  39.7707080  19.4301900  19.4799440  40.3083020  18.5672990  18.3582100
  39.3169980  20.3578660  25.7329900  39.6142310  21.2641490  25.6521920
  39.8655540  19.8697440  25.1189470  37.0708300  24.9364900  21.6021550
  36.8449220  24.7202070  22.5068170  36.2900830  25.3693360  21.2567520
  44.3006060  24.9428270  20.2012200  43.7014950  25.6664070  20.0175820
  44.8485670  24.8805050  19.4188650  39.5107510  25.8350480  32.2681820
  39.4151110  24.8945210  32.1182220  40.3539490  26.0565550  31.8729890
  42.9070930  23.5791810  22.2315480  43.3000500  23.8964010  21.4184170
  43.2687780  22.7003690  22.3460000  34.6418050  22.2464150  30.4215600
  34.2481440  23.0939360  30.6288380  33.9536450  21.6090520  30.6124240
  41.2163100  22.3299120  33.4912340  40.5261420  22.1371320  34.1258430
  41.9595400  22.6133760  34.0236640  31.9435100  20.1692610  24.4545680
  31.6548150  20.7395470  25.1670660  32.6880860  19.6897060  24.8176910
  32.1305330  24.1112730  15.6648400  32.0480000  25.0543490  15.8063390
  31.7788390  23.9687640  14.7860750  43.4926070  26.1697560  26.3266260
  42.7607190  26.6784370  26.6756360  43.0950410  25.3527540  26.0255040
  39.9303460  22.8451760  24.7318750  39.9339520  22.4041710  23.8823290
  40.8254580  23.1669090  24.8390570  35.7805840  22.7278250  23.6912960
  35.4405890  23.2053480  24.4480010  35.0183160  22.2743370  23.3314060
  39.9923610  23.8463840  17.7225510  40.1136430  23.8050320  18.6711330
  39.6072120  24.7087990  17.5672240  43.9551980  21.6231240  25.7389200
  43.9724720  22.0739890  26.5831050  43.7067560  20.7236880  25.9522640
  39.0045110  26.1564980  17.1208810  38.4362010  25.7083230  16.4944720
  39.7134110  26.5157760  16.5873960  47.3822730  19.0363420  31.5775580
  47.7068500  18.3053080  32.1033560  47.4179240  18.7177060  30.6756570
  34.0814290  30.0577000  30.9975540  33.6969080  29.4170670  31.5958500
  34.3926480  30.7613120  31.5670270  40.2311430  26.9053540  26.4784160
  40.5981560  26.4312110  27.2245500  40.0416490  27.7795110  26.8192500
  33.0951920  21.6497230  22.6077630  32.8098840  21.2852900  23.4456250
  33.0330780  20.9177690  21.9940770  38.0210800  25.9462180  28.7968370
  37.7167870  26.8254160  29.0218730  38.9757260  26.0061970  28.8325810
  36.5492590  30.1523170  19.3935220  35.7754850  29.6120790  19.2333940
  37.2787220  29.6329780  19.0552980  47.3080570  29.1488530  25.1861610
  48.0279690  29.6443820  24.7957720  47.1062390  28.4706420  24.5415480
  42.7690510  20.5426490  19.3291000  41.9555120  20.0439660  19.2536310
  42.5752460  21.3824740  18.9127350  42.6899370  29.2197590  31.0730610
  42.6236680  28.2993260  30.8188200  42.0604510  29.3173030  31.7875250
  45.4838900  24.9146140  17.6253160  46.3718520  25.2263370  17.4504500
  45.4543990  24.0418390  17.2333740  36.5929990  29.8203550  23.0314030
  37.1108660  29.0171810  22.9770920  36.1414010  29.7582690  23.8730860
  41.4799490  31.0869830  18.3041330  41.8215190  31.8312060  17.8084650
  40.6512200  31.4000950  18.6666160  34.0774530  26.7864920  29.9439730
  33.7189470  27.4518770  30.5313070  33.7829090  25.9548470  30.3152350
  37.2787650  27.2449160  32.8279280  36.9787790  27.3906340  31.9307100
  38.0498890  26.6854450  32.7352670  42.6216100  32.0418160  30.8234410
  42.6360640  31.1099120  30.6053320  41.9141200  32.1277920  31.4624180
  47.7553170  26.2257980  17.0933020  47.6716890  26.6572200  16.2429460
  48.4747360  26.6856330  17.5259840  48.8327310  28.6825500  30.1702990
  48.1075500  29.2754280  29.9732380  49.3602770  28.6749040  29.3716360
  48.7840420  33.0800240  19.8215150  48.1416580  32.4255860  20.0958870
  48.3971080  33.4855330  19.0455820  44.3626900  30.4085670  23.6686840
  44.7150720  29.8113800  23.0088210  43.4789230  30.0829900  23.8395090
  40.4490180  31.1683360  21.0757250  41.1361310  31.7152570  21.4564840
  39.6622600  31.7124090  21.1106860  32.5882580  26.7856180  16.5674330
  33.4577430  27.0680980  16.8510250  32.0972900  27.5992050  16.4523140
  39.7517390  28.1729390  20.6882610  40.2080170  28.9834640  20.9142800
  39.4005600  27.8552530  21.5201100  42.0550000  33.6835730  27.9174910
  42.6992220  33.8895110  28.5948330  42.4179440  32.9224130  27.4645760
  35.6529170  18.5167040  21.1605130  35.5243800  18.5084940  22.1090050
  34.8291190  18.8550130  20.8096140  43.3282080  31.6868080  26.6352360
  43.9704310  30.9861240  26.7484530  43.8531430  32.4666520  26.4549250
  47.1737800  31.9716700  16.3591500  46.9475380  31.2547140  16.9516140
  46.7834000  31.7229140  15.5213250  45.1019700  32.4862980  29.8388420
  45.4375940  33.0729670  30.5166340  44.1820040  32.3555690  30.0686210
  32.9553830  35.9983560  17.1335960  33.3151470  36.5972900  16.4793230
  32.8146170  36.5443450  17.9070990  32.6523100  20.2758160  30.6211830
  31.9381620  20.4755080  31.2264440  33.0718140  19.4997730  30.9926630
  46.7554050  29.8888640  18.0205660  46.4675750  30.3501330  18.8083540
  47.5506220  29.4286410  18.2889880  40.9308280  32.5354310  33.0076480
  40.6105150  31.8163550  33.5522170  40.2566640  33.2109380  33.0812540
  38.9722450  33.3814760  17.9509630  38.9632550  34.1144450  17.3354140
  38.0520810  33.1346340  18.0436590  34.5729090  28.6029650  18.6956390
  33.9657040  29.3428550  18.7051690  35.0478440  28.6929010  17.8694590
  44.1461880  22.7680470  28.3713280  44.5142700  21.9475680  28.6992850
  43.2860080  22.8282360  28.7868930  47.5123910  21.7237410  19.1800840
  46.8837070  21.8283080  18.4659070  47.0175830  21.9434190  19.9694720
  41.9582050  33.4443000  16.6134820  42.0594030  33.2406990  15.6836800
  41.0583790  33.1901280  16.8182600  39.4807940  24.0023360  20.5958720
  38.7724090  24.4709700  21.0372330  39.7652420  23.3445370  21.2303910
  41.1063870  25.4220060  28.5951250  41.6049120  25.8965880  29.2603100
  41.2486820  24.4983580  28.8021280  43.5123370  20.7274020  22.0354510
  43.3891150  20.7460150  21.0864020  44.4607930  20.7752960  22.1552910
  40.6000160  35.9629320  21.3082490  40.8541660  35.9250710  20.3861860
  39.6512640  35.8362650  21.3010740  37.6842960  22.3108440  17.9709430
  38.5333490  22.7478590  17.9049620  37.3174230  22.6228700  18.7981490
  48.3130730  21.6388020  29.4379640  47.8104330  22.3793420  29.7773450
  49.1287390  22.0272020  29.1216430  46.6052740  26.8821200  22.8841000
  45.6642880  26.8971430  23.0588690  46.9196810  26.0957160  23.3301300
  36.5834380  28.5640800  16.4444960  37.3497650  28.4522160  17.0070390
  36.6609070  27.8678770  15.7921730  35.2781140  25.9965870  17.1277850
  35.3584730  25.0493380  17.2395250  36.1700890  26.3272750  17.2338510
  48.6078320  34.0530050  24.5595260  48.7325740  34.8761220  25.0319070
  49.4743880  33.8420780  24.2119410  36.0795850  36.1461260  24.2312390
  36.8158330  35.5976720  24.5020960  36.4636770  37.0117270  24.0918380
  32.9641330  32.2134830  20.1053900  32.0381110  32.4555970  20.0959310
  33.4297760  33.0409090  19.9838650  39.1898160  35.3191570  16.0537960
  39.9826770  35.6080400  15.6019750  38.6702510  34.8883740  15.3750440
  43.9218760  31.4387200  33.3673380  43.3156920  31.4618800  32.6269130
  43.6172870  30.7070240  33.9040630  45.3519130  35.1667490  31.9782790
  46.3040880  35.0825510  31.9283030  45.2047350  35.8309200  32.6516580
  48.2428330  34.5461700  17.4774700  47.9569840  34.1326840  16.6628880
  48.0447880  35.4749410  17.3575220  32.8051940  27.8180790  32.3634020
  33.3090960  27.2388070  32.9350250  32.0659360  28.1021020  32.9010390
  39.7075560  30.5394980  15.9180310  39.6026200  29.9247330  16.6441690
  39.5399780  30.0160870  15.1343320  39.8589880  29.2251780  31.8969540
  39.0935550  29.7936780  31.8124210  40.0405840  28.9327990  31.0037770
  42.9478290  29.6015010  16.5222300  42.3988390  30.0484310  17.1665040
  43.5697550  29.0964260  17.0459970  47.0013230  30.9557110  32.4544560
  47.7422700  31.2932870  31.9512020  46.2385910  31.1249170  31.9014330
  34.8375020  25.9610380  33.2584090  34.8780360  25.6624250  34.1669320
  35.6920520  26.3617990  33.0991610  38.6153410  28.5605930  18.4187600
  39.0369830  28.3945800  19.2618990  38.7404250  27.7506160  17.9242740
  36.7780830  24.5402480  31.2258580  36.2477290  24.0493430  30.5981920
  37.4468900  24.9686680  30.6916510  41.1281050  27.5843540  15.6664700
  41.6486710  26.8692560  15.3005850  41.7749450  28.2229410  15.9665210
  45.6758890  29.0071940  30.9899770  46.0899910  29.1617020  31.8390190
  44.7409890  29.1327160  31.1525550  46.1481060  26.3468100  32.9938920
  46.7301830  25.5920420  32.9059400  46.3242830  26.8775540  32.2170400
  37.2653130  21.5064850  31.3055870  37.1710000  20.8885600  30.5806740
  36.6850520  22.2331140  31.0785780  40.0314570  20.0638090  28.3383260
  39.5831870  20.0862350  27.4928810  39.3979770  19.6657110  28.9353560
  40.4374120  28.9592420  28.9595700  40.8562230  29.8025150  28.7871940
  39.5182750  29.0964460  28.7302480  42.7738020  26.6908600  30.3433540
  42.8934230  26.0949740  31.0828380  43.6332020  26.7278290  29.9234840
  45.1125920  27.2445790  28.9196050  44.5861140  27.7688410  28.3161190
  45.4557260  27.8773180  29.5505780  37.5112310  24.6339160  15.3645760
  37.3101370  23.7706520  15.7259100  37.3404360  24.5472520  14.4267360
  38.2881540  35.2645430  30.0753430  37.7502630  35.9891490  29.7562130
  38.5415500  34.7875770  29.2850770  39.5406790  23.2329950  31.6009360
  40.1306480  22.9245800  32.2887180  38.7227030  22.7609700  31.7569260
  44.3600220  22.8495760  31.8342380  43.6715740  22.1877300  31.7692370
  45.0806240  22.4034030  32.2790840  44.9900620  19.4447390  17.8932640
  45.2702910  18.6015290  18.2492060  44.2166350  19.6770500  18.4071390
  36.3095110  21.7339780  15.3523640  36.6121010  21.7407210  14.4442790
  37.0489700  21.3837640  15.8491300  41.1443750  36.4996640  30.3340080
  41.0702450  37.4031780  30.6412450  40.2422590  36.1808540  30.3062150
  39.5280040  20.6774400  16.3379840  39.1802040  19.9998390  15.7582290
  39.7292810  20.2163910  17.1523230  41.6929080  35.6655150  17.9566440
  42.5879870  36.0040120  17.9785200  41.7246710  34.9434560  17.3290720
  35.3325240  31.0382200  16.1853440  35.7700110  31.5811870  16.8411020
  35.8172970  30.2129150  16.1949780  32.5471040  33.8271230  23.6373700
  32.8774050  32.9592290  23.4052340  32.9762040  34.0329750  24.4678660
  37.1432960  32.1580240  21.2975670  36.8428500  32.0345210  22.1979580
  37.0370450  31.2988830  20.8891400  33.0361250  34.6941820  26.3755330
  32.5992240  34.8742620  27.2079480  33.6038930  35.4516440  26.2337050
  49.9124880  31.9376640  16.0002350  49.0817840  32.0053290  16.4709580
  50.0896710  32.8280760  15.6969210  49.3681340  28.6824120  18.5036550
  50.1300250  29.2520770  18.6096240  49.3835710  28.1151320  19.2744860
  32.8685680  27.2062050  22.7344210  32.2134520  26.9373690  22.0903910
  33.7063630  27.0966530  22.2846190  50.3741310  29.5374220  23.3478480
  50.7450140  28.7541540  22.9414450  51.0143240  30.2263320  23.1695780
  47.3575070  30.9210800  28.7608800  46.5434910  31.3507960  29.0234590
  47.7649270  31.5329210  28.1477850  49.4200510  28.9758490  15.6609070
  49.6949350  29.8837370  15.5328290  49.2311250  28.9121020  16.5971060
  45.8176120  22.0003340  16.9562700  46.2361000  21.8134320  16.1159360
  45.5112180  21.1482390  17.2665630  49.3165850  26.9127480  20.6538500
  48.9409450  26.1455410  20.2219790  48.5868970  27.2950180  21.1413430
  33.9061610  27.5914620  27.2747550  34.2734650  27.5042020  28.1543570
  33.3372430  26.8281170  27.1754410  48.7065470  26.0599000  30.2878020
  48.4751560  25.8311750  29.3875970  48.9670020  26.9798550  30.2422910
  33.4577610  24.5023710  31.1805970  32.5633660  24.4690470  31.5199680
  33.9975160  24.7010500  31.9457220  47.1453540  21.2855430  33.0657720
  48.0223720  21.2938830  33.4491720  47.1574380  20.5486270  32.4550070
  32.0823760  24.4160980  18.6769540  31.1787840  24.6791180  18.5021200
  32.5664380  24.6872150  17.8969500  48.5916810  25.1384970  23.9545740
  49.1154290  24.6447620  23.3235910  49.1776230  25.2735330  24.6993310
  48.7706530  25.2224840  27.4765290  47.8209240  25.1888380  27.5910280
  48.9519540  26.1324950  27.2415060  34.6250970  23.4726520  16.5863920
  35.3342670  23.0509740  16.1011200  33.9090910  23.5401750  15.9547270
  34.2725130  19.5265850  15.6266570  34.9953260  20.0674790  15.9447790
  34.5449650  19.2529270  14.7508110  48.0816780  24.3958320  19.8938150
  48.5775900  24.1629190  20.6787030  47.8832850  23.5570160  19.4775790
  33.9617320  18.7772040  25.5289190  34.6093510  18.2269420  25.0884350
  34.3819160  19.0315190  26.3505000  49.5103940  23.0319270  22.4275830
  49.4003220  22.8775310  23.3658100  50.2711530  22.5040210  22.1851240
  47.8569660  18.9713400  28.8858830  48.4941880  19.5847540  29.2518020
  48.0044550  19.0074060  27.9408060  50.3994210  20.8627190  15.6681970
  51.3243520  20.7308370  15.4600260  50.3770000  20.9420010  16.6218420
  50.4732700  21.6337850  18.2938680  49.6784200  21.5682970  18.8231590
  50.6775980  22.5688490  18.2824030  47.4151120  35.6729400  22.2877070
  48.0110190  35.3513970  21.6111490  47.6729270  35.2001220  23.0790340
  33.7149320  18.9327710  28.2714510  33.3664140  19.3891530  29.0372690
  33.3837020  18.0384840  28.3536940  39.0219720  33.6606900  28.0377420
  38.7811080  33.9281460  27.1507940  39.9622360  33.8312630  28.0928280
  41.2274140  20.1239590  31.7933930  41.1663030  20.7161420  32.5429340
  42.1674520  20.0165550  31.6484190  43.8648700  19.7809650  31.4326220
  44.4789110  20.0988940  30.7707300  44.4098260  19.2958240  32.0522080
  34.3869960  18.4603910  31.5465280  34.9352950  18.2791960  30.7831390
  34.4525270  17.6698020  32.0821590  35.1601720  35.0509560  29.5565480
  34.5662040  34.9194260  30.2955520  35.1525560  34.2147700  29.0907580
  44.6056740  18.3441790  27.7595510  43.7316580  18.6776900  27.5568440
  44.4967490  17.8714970  28.5847380  45.5128720  20.5512660  29.1437230
  45.1842080  19.7364420  28.7638960  46.4611020  20.5082470  29.0202920
  47.9663330  36.3224700  26.1174800  47.5066300  37.0740510  25.7432820
  47.3375790  35.6031170  26.0589600  34.7913950  32.4167940  28.5073520
  34.0648010  31.7973230  28.4399470  34.8523100  32.8108550  27.6371600
  38.3959050  34.6312940  25.2922930  38.9124070  34.0200300  24.7671190
  39.0456430  35.1341720  25.7833940  41.1354550  35.5221430  26.1191910
  41.4232360  35.2675730  25.2424920  41.6477770  34.9698790  26.7097480
  42.3531560  19.2611630  26.6988420  41.5703350  19.7357130  26.9785180
  42.0594490  18.3566460  26.5901600  46.9052630  19.9634730  24.7437510
  47.3460720  19.9079830  23.8959110  46.6360220  20.8792740  24.8147690
  48.7691200  19.5949970  22.7546330  48.7079600  18.6511190  22.6077350
  49.5483230  19.7030060  23.2999790  33.0743950  35.7342330  21.7170280
  32.9065990  35.1013010  22.4152170  32.2078460  35.9401730  21.3664470
  33.6971970  19.5659110  19.2202140  34.4551330  19.6787990  18.6466170
  33.2349140  20.4028310  19.1745570  40.2385780  21.6798380  22.2104450
  39.4260290  21.3055270  21.8700330  40.7427420  20.9243460  22.5125640
  44.7410760  18.3440830  23.4487520  45.3440130  18.9161040  23.9236040
  44.0003750  18.9080270  23.2261420  47.8845360  18.7462390  18.7227800
  48.0795990  19.6445840  18.9895230  47.0975230  18.5149470  19.2160750
  34.6806650  34.4275560  19.1620420  34.1554270  34.8083590  18.4582380
  34.6051230  35.0526330  19.8830130  36.0697120  20.0923160  17.7604110
  36.5989880  19.3052960  17.6312060  36.7025440  20.7714350  17.9939640
  38.2634960  19.8298300  20.8149500  37.6337700  19.1285610  20.9819630
  37.7240100  20.5902430  20.5982660  41.2026910  36.4437530  33.4860110
  42.1294220  36.2081800  33.5296070  41.1877340  37.2709530  33.0046140
  49.4371970  35.9863100  20.4834360  49.6124160  35.3000840  19.8395280
  48.7393540  36.5110150  20.0911030  38.3890520  19.1082280  33.2501990
  38.1074790  19.6115880  32.4862810  38.7710220  18.3104030  32.8844120
  37.2799620  36.3757940  18.0369670  38.0118440  36.0917220  17.4893560
  37.5393290  36.1371220  18.9269050  36.4414410  32.4922670  18.0416000
  35.8123290  32.9607770  18.5901830  36.5562240  31.6471890  18.4762190
  44.9905980  18.5235860  33.8282460  44.8771430  18.8430470  34.7233980
  45.8075720  18.9248370  33.5319740  43.8964130  26.5428330   4.1917200
  43.8158180  25.6282940   3.9208910  43.4828550  27.0395400   3.4856910
  42.0282170  28.3207350   6.0726470  41.2524270  27.8407790   6.3625040
  42.6795100  27.6413000   5.8982630  36.0448000  28.6327160   6.9502230
  35.2132880  28.3775870   7.3498740  36.6528980  28.7037930   7.6860150
  46.0489600  32.7267540   4.8525600  45.5871130  31.9554780   5.1812770
  46.8615150  32.7533610   5.3578050  36.0249260  32.6667250   7.1460250
  36.3277300  31.7764990   6.9670470  36.7692850  33.2237470   6.9182500
  32.4172960  26.1934700   6.6184320  32.9889070  25.4256900   6.6187960
  32.4174500  26.4923460   5.7090930  42.2752910  35.0125550   4.4729590
  41.6564350  35.4683050   3.9024030  43.1304690  35.1677010   4.0719290
  41.4691160  30.9964540   6.0796630  41.3999440  30.0554480   5.9185760
  42.2311020  31.0865950   6.6519200  33.6597830  21.6019060   8.4053250
  33.4800670  20.7044810   8.6856010  33.2577910  22.1490930   9.0800200
  42.4996330  23.8034920   6.3065560  42.8761150  22.9306800   6.1939230
  42.4015840  24.1393620   5.4156000  36.6301340  22.1760550   1.7683000
  36.7368090  23.0764280   2.0751760  35.7193700  22.1278520   1.4777650
  46.2820450  21.2985360   3.2393900  47.1030070  20.8081930   3.2819380
  46.3154530  21.8883020   3.9925740  34.2784500  24.0979560   7.0135590
  34.9594610  24.3617930   7.6322990  33.9632550  23.2580430   7.3473600
  38.4709070  25.1446920   6.1008180  38.9787290  25.6427890   6.7413200
  39.0022310  24.3682120   5.9247540  50.5720000  23.3152110   9.8037530
  49.8672170  23.7033820   9.2852640  50.8377920  24.0102400  10.4058460
  36.7545170  19.7845480  10.3671600  36.7563610  20.3017870   9.5617500
  35.9249480  19.3075660  10.3441530  38.0048020  29.4240660   8.5445100
  37.6717400  30.0509580   9.1866170  38.1814700  29.9502540   7.7646770
  46.5181930  23.2385740   6.0121440  45.8137500  23.5270630   6.5924550
  46.8794090  24.0485850   5.6521000  36.4360500  21.4955440   8.3742050
  36.7777310  22.3397490   8.0795920  35.4976310  21.6439180   8.4907390
  37.2167120  31.3921460  10.3594280  37.8341120  32.0672540  10.0778730
  36.3560240  31.8009440  10.2681780  48.1344710  32.8560870   8.2748920
  47.4508230  33.5259980   8.2665590  48.6739000  33.0541520   7.5093780
  49.5868850  22.6840530   6.4030650  48.6393760  22.7179510   6.5346080
  49.9118840  23.4979480   6.7880010  40.1188390  18.9837710   4.6986640
  40.4263370  18.4284600   3.9822140  39.1889090  19.1182170   4.5159630
  45.6703450  34.7005000   6.9894100  45.6830610  34.2967290   6.1216360
  45.1178670  35.4752290   6.8855530  46.9648870  31.4221220   2.0784270
  46.8545200  30.4795550   2.2033690  46.9617120  31.7836860   2.9647030
  45.0688890  29.6034840   8.3176710  45.4857680  29.3894950   7.4830170
  45.7928710  29.8607630   8.8885330  49.0150990  28.0022060   8.4092950
  48.1869620  28.0715150   7.9343080  49.6101470  28.5876370   7.9408780
  45.9793000  24.7891380   9.3547820  45.5664180  25.6145090   9.6087810
  45.2468950  24.2036420   9.1624180  38.1125790  27.5751280   4.2166490
  37.7082790  26.8628530   3.7212390  38.1988910  27.2304520   5.1054530
  38.5807490  31.2618840   6.3805700  38.2835780  30.6564310   5.7013480
  39.5307310  31.2996150   6.2695060  36.8254410  24.3494490   7.9965530
  37.3769000  24.4589830   7.2218780  37.3397920  24.7232090   8.7120760
  46.6693100  34.8350710  10.0428800  46.1923660  35.6422900   9.8501410
  45.9854890  34.1829040  10.1955010  37.6725920  31.0000530  13.0313500
  36.7754450  31.2240500  13.2786900  37.6978790  31.1235470  12.0824900
  36.4997140  27.8713850  11.6070870  36.3604910  28.7436650  11.9758270
  35.6178500  27.5286660  11.4618810  42.8226520  32.7889720   2.9136000
  43.2622430  33.5314050   2.4991390  42.7613410  33.0316290   3.8374960
  38.2977490  33.8135550  13.8156020  38.2692920  34.2178500  12.9484450
  38.1342460  32.8845910  13.6527620  50.2492310  34.5962650  15.1120190
  50.7252030  35.0745540  15.7909270  50.8699470  34.5280140  14.3865690
  32.4515790  29.6411400   7.5241780  32.5296210  29.7760170   6.5797500
  33.0657470  28.9327290   7.7169900  33.6963420  31.3411590   3.9347960
  33.2891500  31.4826180   3.0801560  34.5876430  31.0571750   3.7319170
  49.6525560  31.7875500  12.2720200  49.7788620  31.5487380  11.3537380
  49.6946940  30.9560040  12.7442280  43.5142300  35.4903500  10.8415010
  44.0286970  35.4011510  11.6437440  42.6711380  35.8363200  11.1342920
  37.9685080  35.5557370   2.0470630  37.7927560  34.6392910   1.8338430
  37.1140820  35.9144660   2.2868430  44.7572760  34.9109110   2.9045500
  45.2129710  34.1298490   3.2184120  45.0965280  35.6215930   3.4486680
  49.5049570  23.8407960  13.2369940  48.8893840  24.3487630  12.7085400
  49.1845990  22.9406290  13.1795880  32.5075310  30.6825570  10.0636240
  32.6706350  30.2130930   9.2455610  32.9727760  30.1749130  10.7285080
  37.2794080  19.8131330   5.0996810  36.8362230  20.5940870   4.7681330
  37.8379070  20.1361220   5.8067750  41.5663890  22.6799850  10.7032130
  41.1043260  22.8882870  11.5152070  41.1642000  21.8659200  10.4002800
  46.5668400  23.9008800  11.8328790  45.7161990  23.6014550  12.1537860
  46.4070190  24.1450810  10.9212610  43.6618110  25.4010550  13.9327580
  43.9871520  24.5674300  13.5929810  44.4498440  25.9239070  14.0805910
  39.3169980  20.3578660   6.9586410  39.6142310  21.2641490   6.8778430
  39.8655540  19.8697440   6.3445980  37.0708300  24.9364900   2.8278060
  36.8449220  24.7202070   3.7324680  36.2900830  25.3693360   2.4824030
  39.5107510  25.8350480  13.4938330  39.4151110  24.8945210  13.3438730
  40.3539490  26.0565550  13.0986400  42.9070930  23.5791810   3.4571990
  43.3000500  23.8964010   2.6440680  43.2687780  22.7003690   3.5716510
  34.6418050  22.2464150  11.6472110  34.2481440  23.0939360  11.8544890
  33.9536450  21.6090520  11.8380750  41.2163100  22.3299120  14.7168850
  40.5261420  22.1371320  15.3514940  41.9595400  22.6133760  15.2493150
  31.9435100  20.1692610   5.6802190  31.6548150  20.7395470   6.3927170
  32.6880860  19.6897060   6.0433420  43.4926070  26.1697560   7.5522770
  42.7607190  26.6784370   7.9012870  43.0950410  25.3527540   7.2511550
  39.9303460  22.8451760   5.9575260  39.9339520  22.4041710   5.1079800
  40.8254580  23.1669090   6.0647080  35.7805840  22.7278250   4.9169470
  35.4405890  23.2053480   5.6736520  35.0183160  22.2743370   4.5570570
  43.9551980  21.6231240   6.9645710  43.9724720  22.0739890   7.8087560
  43.7067560  20.7236880   7.1779150  47.3822730  19.0363420  12.8032090
  47.7068500  18.3053080  13.3290070  47.4179240  18.7177060  11.9013080
  34.0814290  30.0577000  12.2232050  33.6969080  29.4170670  12.8215010
  34.3926480  30.7613120  12.7926780  40.2311430  26.9053540   7.7040670
  40.5981560  26.4312110   8.4502010  40.0416490  27.7795110   8.0449010
  33.0951920  21.6497230   3.8334140  32.8098840  21.2852900   4.6712760
  33.0330780  20.9177690   3.2197280  38.0210800  25.9462180  10.0224880
  37.7167870  26.8254160  10.2475240  38.9757260  26.0061970  10.0582320
  47.3080570  29.1488530   6.4118120  48.0279690  29.6443820   6.0214230
  47.1062390  28.4706420   5.7671990  42.6899370  29.2197590  12.2987120
  42.6236680  28.2993260  12.0444710  42.0604510  29.3173030  13.0131760
  36.5929990  29.8203550   4.2570540  37.1108660  29.0171810   4.2027430
  36.1414010  29.7582690   5.0987370  34.0774530  26.7864920  11.1696240
  33.7189470  27.4518770  11.7569580  33.7829090  25.9548470  11.5408860
  37.2787650  27.2449160  14.0535790  36.9787790  27.3906340  13.1563610
  38.0498890  26.6854450  13.9609180  42.6216100  32.0418160  12.0490920
  42.6360640  31.1099120  11.8309830  41.9141200  32.1277920  12.6880690
  48.8327310  28.6825500  11.3959500  48.1075500  29.2754280  11.1988890
  49.3602770  28.6749040  10.5972870  44.3626900  30.4085670   4.8943350
  44.7150720  29.8113800   4.2344720  43.4789230  30.0829900   5.0651600
  40.4490180  31.1683360   2.3013760  41.1361310  31.7152570   2.6821350
  39.6622600  31.7124090   2.3363370  39.7517390  28.1729390   1.9139120
  40.2080170  28.9834640   2.1399310  39.4005600  27.8552530   2.7457610
  42.0550000  33.6835730   9.1431420  42.6992220  33.8895110   9.8204840
  42.4179440  32.9224130   8.6902270  35.6529170  18.5167040   2.3861640
  35.5243800  18.5084940   3.3346560  34.8291190  18.8550130   2.0352650
  43.3282080  31.6868080   7.8608870  43.9704310  30.9861240   7.9741040
  43.8531430  32.4666520   7.6805760  45.1019700  32.4862980  11.0644930
  45.4375940  33.0729670  11.7422850  44.1820040  32.3555690  11.2942720
  32.6523100  20.2758160  11.8468340  31.9381620  20.4755080  12.4520950
  33.0718140  19.4997730  12.2183140  32.9395690  34.2638420  12.8334870
  33.0486810  33.3233160  12.6930260  32.2876250  34.5293170  12.1848600
  40.9308280  32.5354310  14.2332990  40.6105150  31.8163550  14.7778680
  40.2566640  33.2109380  14.3069050  44.1461880  22.7680470   9.5969790
  44.5142700  21.9475680   9.9249360  43.2860080  22.8282360  10.0125440
  39.4807940  24.0023360   1.8215230  38.7724090  24.4709700   2.2628840
  39.7652420  23.3445370   2.4560420  41.1063870  25.4220060   9.8207760
  41.6049120  25.8965880  10.4859610  41.2486820  24.4983580  10.0277790
  43.5123370  20.7274020   3.2611020  43.3891150  20.7460150   2.3120530
  44.4607930  20.7752960   3.3809420  40.6000160  35.9629320   2.5339000
  40.8541660  35.9250710   1.6118370  39.6512640  35.8362650   2.5267250
  48.3130730  21.6388020  10.6636150  47.8104330  22.3793420  11.0029960
  49.1287390  22.0272020  10.3472940  46.6052740  26.8821200   4.1097510
  45.6642880  26.8971430   4.2845200  46.9196810  26.0957160   4.5557810
  48.6078320  34.0530050   5.7851770  48.7325740  34.8761220   6.2575580
  49.4743880  33.8420780   5.4375920  36.0795850  36.1461260   5.4568900
  36.8158330  35.5976720   5.7277470  36.4636770  37.0117270   5.3174890
  35.0854130  35.3307330  14.6454480  35.8866860  35.6519380  15.0589880
  34.5705950  34.9702910  15.3674390  43.9218760  31.4387200  14.5929890
  43.3156920  31.4618800  13.8525640  43.6172870  30.7070240  15.1297140
  45.3519130  35.1667490  13.2039300  46.3040880  35.0825510  13.1539540
  45.2047350  35.8309200  13.8773090  32.8051940  27.8180790  13.5890530
  33.3090960  27.2388070  14.1606760  32.0659360  28.1021020  14.1266900
  39.8589880  29.2251780  13.1226050  39.0935550  29.7936780  13.0380720
  40.0405840  28.9327990  12.2294280  47.0013230  30.9557110  13.6801070
  47.7422700  31.2932870  13.1768530  46.2385910  31.1249170  13.1270840
  34.8375020  25.9610380  14.4840600  34.8780360  25.6624250  15.3925830
  35.6920520  26.3617990  14.3248120  36.7780830  24.5402480  12.4515090
  36.2477290  24.0493430  11.8238430  37.4468900  24.9686680  11.9173020
  45.6758890  29.0071940  12.2156280  46.0899910  29.1617020  13.0646700
  44.7409890  29.1327160  12.3782060  46.1481060  26.3468100  14.2195430
  46.7301830  25.5920420  14.1315910  46.3242830  26.8775540  13.4426910
  37.2653130  21.5064850  12.5312380  37.1710000  20.8885600  11.8063250
  36.6850520  22.2331140  12.3042290  40.0314570  20.0638090   9.5639770
  39.5831870  20.0862350   8.7185320  39.3979770  19.6657110  10.1610070
  40.4374120  28.9592420  10.1852210  40.8562230  29.8025150  10.0128450
  39.5182750  29.0964460   9.9558990  42.7738020  26.6908600  11.5690050
  42.8934230  26.0949740  12.3084890  43.6332020  26.7278290  11.1491350
  45.1125920  27.2445790  10.1452560  44.5861140  27.7688410   9.5417700
  45.4557260  27.8773180  10.7762290  38.2881540  35.2645430  11.3009940
  37.7502630  35.9891490  10.9818640  38.5415500  34.7875770  10.5107280
  39.5406790  23.2329950  12.8265870  40.1306480  22.9245800  13.5143690
  38.7227030  22.7609700  12.9825770  44.3600220  22.8495760  13.0598890
  43.6715740  22.1877300  12.9948880  45.0806240  22.4034030  13.5047350
  41.1443750  36.4996640  11.5596590  41.0702450  37.4031780  11.8668960
  40.2422590  36.1808540  11.5318660  32.5471040  33.8271230   4.8630210
  32.8774050  32.9592290   4.6308850  32.9762040  34.0329750   5.6935170
  37.1432960  32.1580240   2.5232180  36.8428500  32.0345210   3.4236090
  37.0370450  31.2988830   2.1147910  33.0361250  34.6941820   7.6011840
  32.5992240  34.8742620   8.4335990  33.6038930  35.4516440   7.4593560
  48.6723430  34.1958820  11.8889150  48.0725420  34.2551380  11.1453070
  48.8017330  33.2563800  12.0186000  32.8685680  27.2062050   3.9600720
  32.2134520  26.9373690   3.3160420  33.7063630  27.0966530   3.5102700
  50.3741310  29.5374220   4.5734990  50.7450140  28.7541540   4.1670960
  51.0143240  30.2263320   4.3952290  47.3575070  30.9210800   9.9865310
  46.5434910  31.3507960  10.2491100  47.7649270  31.5329210   9.3734360
  49.3165850  26.9127480   1.8795010  48.9409450  26.1455410   1.4476300
  48.5868970  27.2950180   2.3669940  33.9061610  27.5914620   8.5004060
  34.2734650  27.5042020   9.3800080  33.3372430  26.8281170   8.4010920
  48.7065470  26.0599000  11.5134530  48.4751560  25.8311750  10.6132480
  48.9670020  26.9798550  11.4679420  33.4577610  24.5023710  12.4062480
  32.5633660  24.4690470  12.7456190  33.9975160  24.7010500  13.1713730
  47.1453540  21.2855430  14.2914230  48.0223720  21.2938830  14.6748230
  47.1574380  20.5486270  13.6806580  48.5916810  25.1384970   5.1802250
  49.1154290  24.6447620   4.5492420  49.1776230  25.2735330   5.9249820
  48.7706530  25.2224840   8.7021800  47.8209240  25.1888380   8.8166790
  48.9519540  26.1324950   8.4671570  33.9617320  18.7772040   6.7545700
  34.6093510  18.2269420   6.3140860  34.3819160  19.0315190   7.5761510
  49.5103940  23.0319270   3.6532340  49.4003220  22.8775310   4.5914610
  50.2711530  22.5040210   3.4107750  47.8569660  18.9713400  10.1115340
  48.4941880  19.5847540  10.4774530  48.0044550  19.0074060   9.1664570
  47.4151120  35.6729400   3.5133580  48.0110190  35.3513970   2.8368000
  47.6729270  35.2001220   4.3046850  33.7149320  18.9327710   9.4971020
  33.3664140  19.3891530  10.2629200  33.3837020  18.0384840   9.5793450
  35.3213690  32.1047310  13.6624210  35.2783320  31.7340220  14.5438670
  35.4524700  33.0424880  13.8026030  39.0219720  33.6606900   9.2633930
  38.7811080  33.9281460   8.3764450  39.9622360  33.8312630   9.3184790
  41.2274140  20.1239590  13.0190440  41.1663030  20.7161420  13.7685850
  42.1674520  20.0165550  12.8740700  43.8648700  19.7809650  12.6582730
  44.4789110  20.0988940  11.9963810  44.4098260  19.2958240  13.2778590
  50.2823880  35.6801280  10.0644570  49.7882160  36.0770150   9.3471700
  49.6737170  35.0550490  10.4581850  34.3869960  18.4603910  12.7721790
  34.9352950  18.2791960  12.0087900  34.4525270  17.6698020  13.3078100
  35.1601720  35.0509560  10.7821990  34.5662040  34.9194260  11.5212030
  35.1525560  34.2147700  10.3164090  44.6056740  18.3441790   8.9852020
  43.7316580  18.6776900   8.7824950  44.4967490  17.8714970   9.8103890
  45.5128720  20.5512660  10.3693740  45.1842080  19.7364420   9.9895470
  46.4611020  20.5082470  10.2459430  47.9663330  36.3224700   7.3431310
  47.5066300  37.0740510   6.9689330  47.3375790  35.6031170   7.2846110
  34.7913950  32.4167940   9.7330030  34.0648010  31.7973230   9.6655980
  34.8523100  32.8108550   8.8628110  38.3959050  34.6312940   6.5179440
  38.9124070  34.0200300   5.9927700  39.0456430  35.1341720   7.0090450
  41.1354550  35.5221430   7.3448420  41.4232360  35.2675730   6.4681430
  41.6477770  34.9698790   7.9353990  42.3531560  19.2611630   7.9244930
  41.5703350  19.7357130   8.2041690  42.0594490  18.3566460   7.8158110
  46.9052630  19.9634730   5.9694020  47.3460720  19.9079830   5.1215620
  46.6360220  20.8792740   6.0404200  48.7691200  19.5949970   3.9802840
  48.7079600  18.6511190   3.8333860  49.5483230  19.7030060   4.5256300
  33.0743950  35.7342330   2.9426790  32.9065990  35.1013010   3.6408680
  32.2078460  35.9401730   2.5920980  40.2385780  21.6798380   3.4360960
  39.4260290  21.3055270   3.0956840  40.7427420  20.9243460   3.7382150
  44.7410760  18.3440830   4.6744030  45.3440130  18.9161040   5.1492550
  44.0003750  18.9080270   4.4517930  38.2634960  19.8298300   2.0406010
  37.6337700  19.1285610   2.2076140  37.7240100  20.5902430   1.8239170
  41.2026910  36.4437530  14.7116620  42.1294220  36.2081800  14.7552580
  41.1877340  37.2709530  14.2302650  38.3890520  19.1082280  14.4758500
  38.1074790  19.6115880  13.7119320  38.7710220  18.3104030  14.1100630
  44.9905980  18.5235860  15.0538970  44.8771430  18.8430470  15.9490490
  45.8075720  18.9248370  14.7576250  47.7704470  35.6707390  14.5357660
  48.5629790  35.1756620  14.3283620  48.0637620  36.3497530  15.1433270
  43.8964130   7.7684840  60.5147670  43.8158180   6.8539450  60.2439380
  43.4828550   8.2651910  59.8087380  42.0282170   9.5463860  62.3956940
  41.2524270   9.0664300  62.6855510  42.6795100   8.8669510  62.2213100
  36.0448000   9.8583670  63.2732700  35.2132880   9.6032380  63.6729210
  36.6528980   9.9294440  64.0090620  46.0489600  13.9524050  61.1756070
  45.5871130  13.1811290  61.5043240  46.8615150  13.9790120  61.6808520
  36.0249260  13.8923760  63.4690720  36.3277300  13.0021500  63.2900940
  36.7692850  14.4493980  63.2412970  34.4539950   4.8185560  57.0575090
  33.5656650   5.1601530  56.9554970  34.7381140   4.6185880  56.1655920
  32.4172960   7.4191210  62.9414790  32.9889070   6.6513410  62.9418430
  32.4174500   7.7179970  62.0321400  42.2752910  16.2382060  60.7960060
  41.6564350  16.6939560  60.2254500  43.1304690  16.3933520  60.3949760
  41.4691160  12.2221050  62.4027100  41.3999440  11.2810990  62.2416230
  42.2311020  12.3122460  62.9749670  33.6597830   2.8275570  64.7283720
  33.4800670   1.9301320  65.0086480  33.2577910   3.3747440  65.4030670
  42.4996330   5.0291430  62.6296030  42.8761150   4.1563310  62.5169700
  42.4015840   5.3650130  61.7386470  36.6301340   3.4017060  58.0913470
  36.7368090   4.3020790  58.3982230  35.7193700   3.3535030  57.8008120
  46.2820450   2.5241870  59.5624370  47.1030070   2.0338440  59.6049850
  46.3154530   3.1139530  60.3156210  34.2784500   5.3236070  63.3366060
  34.9594610   5.5874440  63.9553460  33.9632550   4.4836940  63.6704070
  38.4709070   6.3703430  62.4238650  38.9787290   6.8684400  63.0643670
  39.0022310   5.5938630  62.2478010  43.1416260  11.1221300  58.1891970
  42.5233530  11.5870750  57.6254690  43.6539510  11.8148780  58.6061480
  38.0048020  10.6497170  64.8675570  37.6717400  11.2766090  65.5096640
  38.1814700  11.1759050  64.0877240  46.5181930   4.4642250  62.3351910
  45.8137500   4.7527140  62.9155020  46.8794090   5.2742360  61.9751470
  36.4360500   2.7211950  64.6972520  36.7777310   3.5654000  64.4026390
  35.4976310   2.8695690  64.8137860  32.5099460  11.8077830  55.5631600
  32.1327440  12.2964930  54.8316500  32.7672530  12.4803110  56.1938130
  48.1344710  14.0817380  64.5979390  47.4508230  14.7516490  64.5896060
  48.6739000  14.2798030  63.8324250  49.5868850   3.9097040  62.7261120
  48.6393760   3.9436020  62.8576550  49.9118840   4.7235990  63.1110480
  45.6703450  15.9261510  63.3124570  45.6830610  15.5223800  62.4446830
  45.1178670  16.7008800  63.2086000  46.9648870  12.6477730  58.4014740
  46.8545200  11.7052060  58.5264160  46.9617120  13.0093370  59.2877500
  45.0688890  10.8291350  64.6407180  45.4857680  10.6151460  63.8060640
  45.7928710  11.0864140  65.2115800  42.5069150   8.2743050  57.7577230
  41.5798430   8.2080430  57.9865700  42.6593970   9.2123180  57.6432470
  42.4938230   4.5460050  54.7544390  41.5541900   4.7074010  54.8396850
  42.8121490   5.2645730  54.2080380  49.0150990   9.2278570  64.7323420
  48.1869620   9.2971660  64.2573550  49.6101470   9.8132880  64.2639250
  46.5366440   9.8363350  58.2612480  45.9178860   9.4982900  57.6138780
  46.5190890   9.1923110  58.9691670  45.9793000   6.0147890  65.6778290
  45.5664180   6.8401600  65.9318280  45.2468950   5.4292930  65.4854650
  38.1125790   8.8007790  60.5396960  37.7082790   8.0885040  60.0442860
  38.1988910   8.4561030  61.4285000  38.5807490  12.4875350  62.7036170
  38.2835780  11.8820820  62.0243950  39.5307310  12.5252660  62.5925530
  36.8254410   5.5751000  64.3196000  37.3769000   5.6846340  63.5449250
  37.3397920   5.9488600  65.0351230  46.6693100  16.0607220  66.3659270
  46.1923660  16.8679410  66.1731880  45.9854890  15.4085550  66.5185480
  44.7131140   9.0750160  55.2685230  45.1524420   8.2372590  55.1223050
  45.4259560   9.7079560  55.3549370  42.8226520  14.0146230  59.2366470
  43.2622430  14.7570560  58.8221860  42.7613410  14.2572800  60.1605430
  34.8130420   7.6952770  58.0403610  34.6928020   8.4214860  57.4284880
  34.5031310   6.9255680  57.5631520  32.4515790  10.8667910  63.8472250
  32.5296210  11.0016680  62.9027970  33.0657470  10.1583800  64.0400370
  33.6963420  12.5668100  60.2578430  33.2891500  12.7082690  59.4032030
  34.5876430  12.2828260  60.0549640  45.4896700  17.0015350  56.5929480
  45.3297840  16.7118290  57.4911310  45.3243410  16.2255480  56.0574710
  37.9685080  16.7813880  58.3701100  37.7927560  15.8649420  58.1568900
  37.1140820  17.1401170  58.6098900  45.1922830  14.5102910  55.1527480
  44.4987990  14.5080200  54.4929760  45.9345690  14.0862230  54.7221650
  44.7572760  16.1365620  59.2275970  45.2129710  15.3555000  59.5414590
  45.0965280  16.8472440  59.7717150  37.0708300   6.1621410  59.1508530
  36.8449220   5.9458580  60.0555150  36.2900830   6.5949870  58.8054500
  44.3006060   6.1684780  57.7499180  43.7014950   6.8920580  57.5662800
  44.8485670   6.1061560  56.9675630  42.9070930   4.8048320  59.7802460
  43.3000500   5.1220520  58.9671150  43.2687780   3.9260200  59.8946980
  32.1305330   5.3369240  53.2135380  32.0480000   6.2800000  53.3550370
  31.7788390   5.1944150  52.3347730  43.4926070   7.3954070  63.8753240
  42.7607190   7.9040880  64.2243340  43.0950410   6.5784050  63.5742020
  39.9303460   4.0708270  62.2805730  39.9339520   3.6298220  61.4310270
  40.8254580   4.3925600  62.3877550  35.7805840   3.9534760  61.2399940
  35.4405890   4.4309990  61.9966990  35.0183160   3.4999880  60.8801040
  39.9923610   5.0720350  55.2712490  40.1136430   5.0306830  56.2198310
  39.6072120   5.9344500  55.1159220  43.9551980   2.8487750  63.2876180
  43.9724720   3.2996400  64.1318030  43.7067560   1.9493390  63.5009620
  39.0045110   7.3821490  54.6695790  38.4362010   6.9339740  54.0431700
  39.7134110   7.7414270  54.1360940  40.2311430   8.1310050  64.0271140
  40.5981560   7.6568620  64.7732480  40.0416490   9.0051620  64.3679480
  33.0951920   2.8753740  60.1564610  32.8098840   2.5109410  60.9943230
  33.0330780   2.1434200  59.5427750  36.5492590  11.3779680  56.9422200
  35.7754850  10.8377300  56.7820920  37.2787220  10.8586290  56.6039960
  47.3080570  10.3745040  62.7348590  48.0279690  10.8700330  62.3444700
  47.1062390   9.6962930  62.0902460  42.7690510   1.7683000  56.8777980
  41.9555120   1.2696170  56.8023290  42.5752460   2.6081250  56.4614330
  45.4838900   6.1402650  55.1740140  46.3718520   6.4519880  54.9991480
  45.4543990   5.2674900  54.7820720  36.5929990  11.0460060  60.5801010
  37.1108660  10.2428320  60.5257900  36.1414010  10.9839200  61.4217840
  41.4799490  12.3126340  55.8528310  41.8215190  13.0568570  55.3571630
  40.6512200  12.6257460  56.2153140  47.7553170   7.4514490  54.6420000
  47.6716890   7.8828710  53.7916440  48.4747360   7.9112840  55.0746820
  48.7840420  14.3056750  57.3702130  48.1416580  13.6512370  57.6445850
  48.3971080  14.7111840  56.5942800  44.3626900  11.6342180  61.2173820
  44.7150720  11.0370310  60.5575190  43.4789230  11.3086410  61.3882070
  40.4490180  12.3939870  58.6244230  41.1361310  12.9409080  59.0051820
  39.6622600  12.9380600  58.6593840  32.5882580   8.0112690  54.1161310
  33.4577430   8.2937490  54.3997230  32.0972900   8.8248560  54.0010120
  39.7517390   9.3985900  58.2369590  40.2080170  10.2091150  58.4629780
  39.4005600   9.0809040  59.0688080  42.0550000  14.9092240  65.4661890
  42.6992220  15.1151620  66.1435310  42.4179440  14.1480640  65.0132740
  43.3282080  12.9124590  64.1839340  43.9704310  12.2117750  64.2971510
  43.8531430  13.6923030  64.0036230  47.1737800  13.1973210  53.9078480
  46.9475380  12.4803650  54.5003120  46.7834000  12.9485650  53.0700230
  32.9553830  17.2240070  54.6822940  33.3151470  17.8229410  54.0280210
  32.8146170  17.7699960  55.4557970  46.7554050  11.1145150  55.5692640
  46.4675750  11.5757840  56.3570520  47.5506220  10.6542920  55.8376860
  38.9722450  14.6071270  55.4996610  38.9632550  15.3400960  54.8841120
  38.0520810  14.3602850  55.5923570  34.5729090   9.8286160  56.2443370
  33.9657040  10.5685060  56.2538670  35.0478440   9.9185520  55.4181570
  44.1461880   3.9936980  65.9200260  44.5142700   3.1732190  66.2479830
  43.2860080   4.0538870  66.3355910  47.5123910   2.9493920  56.7287820
  46.8837070   3.0539590  56.0146050  47.0175830   3.1690700  57.5181700
  41.9582050  14.6699510  54.1621800  42.0594030  14.4663500  53.2323780
  41.0583790  14.4157790  54.3669580  39.4807940   5.2279870  58.1445700
  38.7724090   5.6966210  58.5859310  39.7652420   4.5701880  58.7790890
  43.5123370   1.9530530  59.5841490  43.3891150   1.9716660  58.6351000
  44.4607930   2.0009470  59.7039890  40.6000160  17.1885830  58.8569470
  40.8541660  17.1507220  57.9348840  39.6512640  17.0619160  58.8497720
  37.6842960   3.5364950  55.5196410  38.5333490   3.9735100  55.4536600
  37.3174230   3.8485210  56.3468470  46.6052740   8.1077710  60.4327980
  45.6642880   8.1227940  60.6075670  46.9196810   7.3213670  60.8788280
  36.5834380   9.7897310  53.9931940  37.3497650   9.6778670  54.5557370
  36.6609070   9.0935280  53.3408710  35.2781140   7.2222380  54.6764830
  35.3584730   6.2749890  54.7882230  36.1700890   7.5529260  54.7825490
  48.6078320  15.2786560  62.1082240  48.7325740  16.1017730  62.5806050
  49.4743880  15.0677290  61.7606390  36.0795850  17.3717770  61.7799370
  36.8158330  16.8233230  62.0507940  36.4636770  18.2373780  61.6405360
  32.9641330  13.4391340  57.6540880  32.0381110  13.6812480  57.6446290
  33.4297760  14.2665600  57.5325630  39.1898160  16.5448080  53.6024940
  39.9826770  16.8336910  53.1506730  38.6702510  16.1140250  52.9237420
  48.2428330  15.7718210  55.0261680  47.9569840  15.3583350  54.2115860
  48.0447880  16.7005920  54.9062200  39.7075560  11.7651490  53.4667290
  39.6026200  11.1503840  54.1928670  39.5399780  11.2417380  52.6830300
  42.9478290  10.8271520  54.0709280  42.3988390  11.2740820  54.7152020
  43.5697550  10.3220770  54.5946950  38.6153410   9.7862440  55.9674580
  39.0369830   9.6202310  56.8105970  38.7404250   8.9762670  55.4729720
  41.1281050   8.8100050  53.2151680  41.6486710   8.0949070  52.8492830
  41.7749450   9.4485920  53.5152190  40.4374120  10.1848930  66.5082680
  40.8562230  11.0281660  66.3358920  39.5182750  10.3220970  66.2789460
  37.5112310   5.8595670  52.9132740  37.3101370   4.9963030  53.2746080
  37.3404360   5.7729030  51.9754340  36.3095110   2.9596290  52.9010620
  36.6121010   2.9663720  51.9929770  37.0489700   2.6094150  53.3978280
  41.6929080  16.8911660  55.5053420  42.5879870  17.2296630  55.5272180
  41.7246710  16.1691070  54.8777700  35.3325240  12.2638710  53.7340420
  35.7700110  12.8068380  54.3898000  35.8172970  11.4385660  53.7436760
  32.5471040  15.0527740  61.1860680  32.8774050  14.1848800  60.9539320
  32.9762040  15.2586260  62.0165640  37.1432960  13.3836750  58.8462650
  36.8428500  13.2601720  59.7466560  37.0370450  12.5245340  58.4378380
  33.0361250  15.9198330  63.9242310  32.5992240  16.0999130  64.7566460
  33.6038930  16.6772950  63.7824030  49.9124880  13.1633150  53.5489330
  49.0817840  13.2309800  54.0196560  50.0896710  14.0537270  53.2456190
  49.3681340   9.9080630  56.0523530  50.1300250  10.4777280  56.1583220
  49.3835710   9.3407830  56.8231840  32.8685680   8.4318560  60.2831190
  32.2134520   8.1630200  59.6390890  33.7063630   8.3223040  59.8333170
  50.3741310  10.7630730  60.8965460  50.7450140   9.9798050  60.4901430
  51.0143240  11.4519830  60.7182760  49.4200510  10.2015000  53.2096050
  49.6949350  11.1093880  53.0815270  49.2311250  10.1377530  54.1458040
  45.8176120   3.2259850  54.5049680  46.2361000   3.0390830  53.6646340
  45.5112180   2.3738900  54.8152610  49.3165850   8.1383990  58.2025480
  48.9409450   7.3711920  57.7706770  48.5868970   8.5206690  58.6900410
  33.9061610   8.8171130  64.8234530  34.2734650   8.7298530  65.7030550
  33.3372430   8.0537680  64.7241390  32.0823760   5.6417490  56.2256520
  31.1787840   5.9047690  56.0508180  32.5664380   5.9128660  55.4456480
  48.5916810   6.3641480  61.5032720  49.1154290   5.8704130  60.8722890
  49.1776230   6.4991840  62.2480290  48.7706530   6.4481350  65.0252270
  47.8209240   6.4144890  65.1397260  48.9519540   7.3581460  64.7902040
  34.6250970   4.6983030  54.1350900  35.3342670   4.2766250  53.6498180
  33.9090910   4.7658260  53.5034250  48.0816780   5.6214830  57.4425130
  48.5775900   5.3885700  58.2274010  47.8832850   4.7826670  57.0262770
  49.5103940   4.2575780  59.9762810  49.4003220   4.1031820  60.9145080
  50.2711530   3.7296720  59.7338220  50.3994210   2.0883700  53.2168950
  51.3243520   1.9564880  53.0087240  50.3770000   2.1676520  54.1705400
  50.4732700   2.8594360  55.8425660  49.6784200   2.7939480  56.3718570
  50.6775980   3.7945000  55.8311010  47.4151120  16.8985910  59.8364050
  48.0110190  16.5770480  59.1598470  47.6729270  16.4257730  60.6277320
  39.0219720  14.8863410  65.5864400  38.7811080  15.1537970  64.6994920
  39.9622360  15.0569140  65.6415260  47.9663330  17.5481210  63.6661780
  47.5066300  18.2997020  63.2919800  47.3375790  16.8287680  63.6076580
  34.7913950  13.6424450  66.0560500  34.0648010  13.0229740  65.9886450
  34.8523100  14.0365060  65.1858580  38.3959050  15.8569450  62.8409910
  38.9124070  15.2456810  62.3158170  39.0456430  16.3598230  63.3320920
  41.1354550  16.7477940  63.6678890  41.4232360  16.4932240  62.7911900
  41.6477770  16.1955300  64.2584460  33.0743950  16.9598840  59.2657260
  32.9065990  16.3269520  59.9639150  32.2078460  17.1658240  58.9151450
  40.2385780   2.9054890  59.7591430  39.4260290   2.5311780  59.4187310
  40.7427420   2.1499970  60.0612620  34.6806650  15.6532070  56.7107400
  34.1554270  16.0340100  56.0069360  34.6051230  16.2782840  57.4317110
  49.4371970  17.2119610  58.0321340  49.6124160  16.5257350  57.3882260
  48.7393540  17.7366660  57.6398010  37.2799620  17.6014450  55.5856650
  38.0118440  17.3173730  55.0380540  37.5393290  17.3627730  56.4756030
  36.4414410  13.7179180  55.5902980  35.8123290  14.1864280  56.1388810
  36.5562240  12.8728400  56.0249170  43.8964130   7.7684840  41.7404180
  43.8158180   6.8539450  41.4695890  43.4828550   8.2651910  41.0343890
  42.0282170   9.5463860  43.6213450  41.2524270   9.0664300  43.9112020
  42.6795100   8.8669510  43.4469610  36.0448000   9.8583670  44.4989210
  35.2132880   9.6032380  44.8985720  36.6528980   9.9294440  45.2347130
  46.0489600  13.9524050  42.4012580  45.5871130  13.1811290  42.7299750
  46.8615150  13.9790120  42.9065030  36.0249260  13.8923760  44.6947230
  36.3277300  13.0021500  44.5157450  36.7692850  14.4493980  44.4669480
  34.4539950   4.8185560  38.2831600  33.5656650   5.1601530  38.1811480
  34.7381140   4.6185880  37.3912430  32.4172960   7.4191210  44.1671300
  32.9889070   6.6513410  44.1674940  32.4174500   7.7179970  43.2577910
  42.2752910  16.2382060  42.0216570  41.6564350  16.6939560  41.4511010
  43.1304690  16.3933520  41.6206270  41.4691160  12.2221050  43.6283610
  41.3999440  11.2810990  43.4672740  42.2311020  12.3122460  44.2006180
  33.6597830   2.8275570  45.9540230  33.4800670   1.9301320  46.2342990
  33.2577910   3.3747440  46.6287180  42.4996330   5.0291430  43.8552540
  42.8761150   4.1563310  43.7426210  42.4015840   5.3650130  42.9642980
  36.6301340   3.4017060  39.3169980  36.7368090   4.3020790  39.6238740
  35.7193700   3.3535030  39.0264630  46.2820450   2.5241870  40.7880880
  47.1030070   2.0338440  40.8306360  46.3154530   3.1139530  41.5412720
  34.2784500   5.3236070  44.5622570  34.9594610   5.5874440  45.1809970
  33.9632550   4.4836940  44.8960580  38.4709070   6.3703430  43.6495160
  38.9787290   6.8684400  44.2900180  39.0022310   5.5938630  43.4734520
  50.5720000   4.5408620  47.3524510  49.8672170   4.9290330  46.8339620
  50.8377920   5.2358910  47.9545440  43.1416260  11.1221300  39.4148480
  42.5233530  11.5870750  38.8511200  43.6539510  11.8148780  39.8317990
  38.0048020  10.6497170  46.0932080  37.6717400  11.2766090  46.7353150
  38.1814700  11.1759050  45.3133750  46.5181930   4.4642250  43.5608420
  45.8137500   4.7527140  44.1411530  46.8794090   5.2742360  43.2007980
  36.4360500   2.7211950  45.9229030  36.7777310   3.5654000  45.6282900
  35.4976310   2.8695690  46.0394370  37.2167120  12.6177970  47.9081260
  37.8341120  13.2929050  47.6265710  36.3560240  13.0265950  47.8168760
  32.5099460  11.8077830  36.7888110  32.1327440  12.2964930  36.0573010
  32.7672530  12.4803110  37.4194640  48.1344710  14.0817380  45.8235900
  47.4508230  14.7516490  45.8152570  48.6739000  14.2798030  45.0580760
  49.5868850   3.9097040  43.9517630  48.6393760   3.9436020  44.0833060
  49.9118840   4.7235990  44.3366990  45.6703450  15.9261510  44.5381080
  45.6830610  15.5223800  43.6703340  45.1178670  16.7008800  44.4342510
  46.9648870  12.6477730  39.6271250  46.8545200  11.7052060  39.7520670
  46.9617120  13.0093370  40.5134010  45.0688890  10.8291350  45.8663690
  45.4857680  10.6151460  45.0317150  45.7928710  11.0864140  46.4372310
  42.5069150   8.2743050  38.9833740  41.5798430   8.2080430  39.2122210
  42.6593970   9.2123180  38.8688980  42.4938230   4.5460050  35.9800900
  41.5541900   4.7074010  36.0653360  42.8121490   5.2645730  35.4336890
  49.0150990   9.2278570  45.9579930  48.1869620   9.2971660  45.4830060
  49.6101470   9.8132880  45.4895760  46.5366440   9.8363350  39.4868990
  45.9178860   9.4982900  38.8395290  46.5190890   9.1923110  40.1948180
  45.9793000   6.0147890  46.9034800  45.5664180   6.8401600  47.1574790
  45.2468950   5.4292930  46.7111160  38.1125790   8.8007790  41.7653470
  37.7082790   8.0885040  41.2699370  38.1988910   8.4561030  42.6541510
  38.5807490  12.4875350  43.9292680  38.2835780  11.8820820  43.2500460
  39.5307310  12.5252660  43.8182040  36.8254410   5.5751000  45.5452510
  37.3769000   5.6846340  44.7705760  37.3397920   5.9488600  46.2607740
  46.6693100  16.0607220  47.5915780  46.1923660  16.8679410  47.3988390
  45.9854890  15.4085550  47.7441990  37.6725920  12.2257040  50.5800480
  36.7754450  12.4497010  50.8273880  37.6978790  12.3491980  49.6311880
  44.7131140   9.0750160  36.4941740  45.1524420   8.2372590  36.3479560
  45.4259560   9.7079560  36.5805880  36.4997140   9.0970360  49.1557850
  36.3604910   9.9693160  49.5245250  35.6178500   8.7543170  49.0105790
  42.8226520  14.0146230  40.4622980  43.2622430  14.7570560  40.0478370
  42.7613410  14.2572800  41.3861940  38.2977490  15.0392060  51.3643000
  38.2692920  15.4435010  50.4971430  38.1342460  14.1102420  51.2014600
  34.8130420   7.6952770  39.2660120  34.6928020   8.4214860  38.6541390
  34.5031310   6.9255680  38.7888030  50.2492310  15.8219160  52.6607170
  50.7252030  16.3002050  53.3396250  50.8699470  15.7536650  51.9352670
  32.4515790  10.8667910  45.0728760  32.5296210  11.0016680  44.1284480
  33.0657470  10.1583800  45.2656880  33.6963420  12.5668100  41.4834940
  33.2891500  12.7082690  40.6288540  34.5876430  12.2828260  41.2806150
  49.6525560  13.0132010  49.8207180  49.7788620  12.7743890  48.9024360
  49.6946940  12.1816550  50.2929260  43.5142300  16.7160010  48.3901990
  44.0286970  16.6268020  49.1924420  42.6711380  17.0619710  48.6829900
  45.4896700  17.0015350  37.8185990  45.3297840  16.7118290  38.7167820
  45.3243410  16.2255480  37.2831220  37.9685080  16.7813880  39.5957610
  37.7927560  15.8649420  39.3825410  37.1140820  17.1401170  39.8355410
  45.1922830  14.5102910  36.3783990  44.4987990  14.5080200  35.7186270
  45.9345690  14.0862230  35.9478160  44.7572760  16.1365620  40.4532480
  45.2129710  15.3555000  40.7671100  45.0965280  16.8472440  40.9973660
  49.5049570   5.0664470  50.7856920  48.8893840   5.5744140  50.2572380
  49.1845990   4.1662800  50.7282860  32.5075310  11.9082080  47.6123220
  32.6706350  11.4387440  46.7942590  32.9727760  11.4005640  48.2772060
  41.5663890   3.9056360  48.2519110  41.1043260   4.1139380  49.0639050
  41.1642000   3.0915710  47.9489780  46.5668400   5.1265310  49.3815770
  45.7161990   4.8271060  49.7024840  46.4070190   5.3707320  48.4699590
  43.6618110   6.6267060  51.4814560  43.9871520   5.7930810  51.1416790
  44.4498440   7.1495580  51.6292890  37.0708300   6.1621410  40.3765040
  36.8449220   5.9458580  41.2811660  36.2900830   6.5949870  40.0311010
  44.3006060   6.1684780  38.9755690  43.7014950   6.8920580  38.7919310
  44.8485670   6.1061560  38.1932140  39.5107510   7.0606990  51.0425310
  39.4151110   6.1201720  50.8925710  40.3539490   7.2822060  50.6473380
  42.9070930   4.8048320  41.0058970  43.3000500   5.1220520  40.1927660
  43.2687780   3.9260200  41.1203490  34.6418050   3.4720660  49.1959090
  34.2481440   4.3195870  49.4031870  33.9536450   2.8347030  49.3867730
  41.2163100   3.5555630  52.2655830  40.5261420   3.3627830  52.9001920
  41.9595400   3.8390270  52.7980130  32.1305330   5.3369240  34.4391890
  32.0480000   6.2800000  34.5806880  31.7788390   5.1944150  33.5604240
  43.4926070   7.3954070  45.1009750  42.7607190   7.9040880  45.4499850
  43.0950410   6.5784050  44.7998530  39.9303460   4.0708270  43.5062240
  39.9339520   3.6298220  42.6566780  40.8254580   4.3925600  43.6134060
  35.7805840   3.9534760  42.4656450  35.4405890   4.4309990  43.2223500
  35.0183160   3.4999880  42.1057550  39.9923610   5.0720350  36.4969000
  40.1136430   5.0306830  37.4454820  39.6072120   5.9344500  36.3415730
  43.9551980   2.8487750  44.5132690  43.9724720   3.2996400  45.3574540
  43.7067560   1.9493390  44.7266130  39.0045110   7.3821490  35.8952300
  38.4362010   6.9339740  35.2688210  39.7134110   7.7414270  35.3617450
  34.0814290  11.2833510  49.7719030  33.6969080  10.6427180  50.3701990
  34.3926480  11.9869630  50.3413760  40.2311430   8.1310050  45.2527650
  40.5981560   7.6568620  45.9988990  40.0416490   9.0051620  45.5935990
  33.0951920   2.8753740  41.3821120  32.8098840   2.5109410  42.2199740
  33.0330780   2.1434200  40.7684260  38.0210800   7.1718690  47.5711860
  37.7167870   8.0510670  47.7962220  38.9757260   7.2318480  47.6069300
  36.5492590  11.3779680  38.1678710  35.7754850  10.8377300  38.0077430
  37.2787220  10.8586290  37.8296470  47.3080570  10.3745040  43.9605100
  48.0279690  10.8700330  43.5701210  47.1062390   9.6962930  43.3158970
  42.7690510   1.7683000  38.1034490  41.9555120   1.2696170  38.0279800
  42.5752460   2.6081250  37.6870840  42.6899370  10.4454100  49.8474100
  42.6236680   9.5249770  49.5931690  42.0604510  10.5429540  50.5618740
  45.4838900   6.1402650  36.3996650  46.3718520   6.4519880  36.2247990
  45.4543990   5.2674900  36.0077230  36.5929990  11.0460060  41.8057520
  37.1108660  10.2428320  41.7514410  36.1414010  10.9839200  42.6474350
  41.4799490  12.3126340  37.0784820  41.8215190  13.0568570  36.5828140
  40.6512200  12.6257460  37.4409650  34.0774530   8.0121430  48.7183220
  33.7189470   8.6775280  49.3056560  33.7829090   7.1804980  49.0895840
  37.2787650   8.4705670  51.6022770  36.9787790   8.6162850  50.7050590
  38.0498890   7.9110960  51.5096160  42.6216100  13.2674670  49.5977900
  42.6360640  12.3355630  49.3796810  41.9141200  13.3534430  50.2367670
  47.7553170   7.4514490  35.8676510  47.6716890   7.8828710  35.0172950
  48.4747360   7.9112840  36.3003330  48.8327310   9.9082010  48.9446480
  48.1075500  10.5010790  48.7475870  49.3602770   9.9005550  48.1459850
  48.7840420  14.3056750  38.5958640  48.1416580  13.6512370  38.8702360
  48.3971080  14.7111840  37.8199310  44.3626900  11.6342180  42.4430330
  44.7150720  11.0370310  41.7831700  43.4789230  11.3086410  42.6138580
  40.4490180  12.3939870  39.8500740  41.1361310  12.9409080  40.2308330
  39.6622600  12.9380600  39.8850350  32.5882580   8.0112690  35.3417820
  33.4577430   8.2937490  35.6253740  32.0972900   8.8248560  35.2266630
  39.7517390   9.3985900  39.4626100  40.2080170  10.2091150  39.6886290
  39.4005600   9.0809040  40.2944590  42.0550000  14.9092240  46.6918400
  42.6992220  15.1151620  47.3691820  42.4179440  14.1480640  46.2389250
  43.3282080  12.9124590  45.4095850  43.9704310  12.2117750  45.5228020
  43.8531430  13.6923030  45.2292740  47.1737800  13.1973210  35.1334990
  46.9475380  12.4803650  35.7259630  46.7834000  12.9485650  34.2956740
  45.1019700  13.7119490  48.6131910  45.4375940  14.2986180  49.2909830
  44.1820040  13.5812200  48.8429700  32.9553830  17.2240070  35.9079450
  33.3151470  17.8229410  35.2536720  32.8146170  17.7699960  36.6814480
  46.7554050  11.1145150  36.7949150  46.4675750  11.5757840  37.5827030
  47.5506220  10.6542920  37.0633370  32.9395690  15.4894930  50.3821850
  33.0486810  14.5489670  50.2417240  32.2876250  15.7549680  49.7335580
  40.9308280  13.7610820  51.7819970  40.6105150  13.0420060  52.3265660
  40.2566640  14.4365890  51.8556030  38.9722450  14.6071270  36.7253120
  38.9632550  15.3400960  36.1097630  38.0520810  14.3602850  36.8180080
  34.5729090   9.8286160  37.4699880  33.9657040  10.5685060  37.4795180
  35.0478440   9.9185520  36.6438080  44.1461880   3.9936980  47.1456770
  44.5142700   3.1732190  47.4736340  43.2860080   4.0538870  47.5612420
  47.5123910   2.9493920  37.9544330  46.8837070   3.0539590  37.2402560
  47.0175830   3.1690700  38.7438210  41.9582050  14.6699510  35.3878310
  42.0594030  14.4663500  34.4580290  41.0583790  14.4157790  35.5926090
  39.4807940   5.2279870  39.3702210  38.7724090   5.6966210  39.8115820
  39.7652420   4.5701880  40.0047400  41.1063870   6.6476570  47.3694740
  41.6049120   7.1222390  48.0346590  41.2486820   5.7240090  47.5764770
  43.5123370   1.9530530  40.8098000  43.3891150   1.9716660  39.8607510
  44.4607930   2.0009470  40.9296400  40.6000160  17.1885830  40.0825980
  40.8541660  17.1507220  39.1605350  39.6512640  17.0619160  40.0754230
  37.6842960   3.5364950  36.7452920  38.5333490   3.9735100  36.6793110
  37.3174230   3.8485210  37.5724980  48.3130730   2.8644530  48.2123130
  47.8104330   3.6049930  48.5516940  49.1287390   3.2528530  47.8959920
  46.6052740   8.1077710  41.6584490  45.6642880   8.1227940  41.8332180
  46.9196810   7.3213670  42.1044790  36.5834380   9.7897310  35.2188450
  37.3497650   9.6778670  35.7813880  36.6609070   9.0935280  34.5665220
  35.2781140   7.2222380  35.9021340  35.3584730   6.2749890  36.0138740
  36.1700890   7.5529260  36.0082000  48.6078320  15.2786560  43.3338750
  48.7325740  16.1017730  43.8062560  49.4743880  15.0677290  42.9862900
  36.0795850  17.3717770  43.0055880  36.8158330  16.8233230  43.2764450
  36.4636770  18.2373780  42.8661870  32.9641330  13.4391340  38.8797390
  32.0381110  13.6812480  38.8702800  33.4297760  14.2665600  38.7582140
  35.0854130  16.5563840  52.1941460  35.8866860  16.8775890  52.6076860
  34.5705950  16.1959420  52.9161370  39.1898160  16.5448080  34.8281450
  39.9826770  16.8336910  34.3763240  38.6702510  16.1140250  34.1493930
  43.9218760  12.6643710  52.1416870  43.3156920  12.6875310  51.4012620
  43.6172870  11.9326750  52.6784120  45.3519130  16.3924000  50.7526280
  46.3040880  16.3082020  50.7026520  45.2047350  17.0565710  51.4260070
  48.2428330  15.7718210  36.2518190  47.9569840  15.3583350  35.4372370
  48.0447880  16.7005920  36.1318710  32.8051940   9.0437300  51.1377510
  33.3090960   8.4644580  51.7093740  32.0659360   9.3277530  51.6753880
  39.7075560  11.7651490  34.6923800  39.6026200  11.1503840  35.4185180
  39.5399780  11.2417380  33.9086810  39.8589880  10.4508290  50.6713030
  39.0935550  11.0193290  50.5867700  40.0405840  10.1584500  49.7781260
  42.9478290  10.8271520  35.2965790  42.3988390  11.2740820  35.9408530
  43.5697550  10.3220770  35.8203460  47.0013230  12.1813620  51.2288050
  47.7422700  12.5189380  50.7255510  46.2385910  12.3505680  50.6757820
  34.8375020   7.1866890  52.0327580  34.8780360   6.8880760  52.9412810
  35.6920520   7.5874500  51.8735100  38.6153410   9.7862440  37.1931090
  39.0369830   9.6202310  38.0362480  38.7404250   8.9762670  36.6986230
  36.7780830   5.7658990  50.0002070  36.2477290   5.2749940  49.3725410
  37.4468900   6.1943190  49.4660000  41.1281050   8.8100050  34.4408190
  41.6486710   8.0949070  34.0749340  41.7749450   9.4485920  34.7408700
  45.6758890  10.2328450  49.7643260  46.0899910  10.3873530  50.6133680
  44.7409890  10.3583670  49.9269040  46.1481060   7.5724610  51.7682410
  46.7301830   6.8176930  51.6802890  46.3242830   8.1032050  50.9913890
  37.2653130   2.7321360  50.0799360  37.1710000   2.1142110  49.3550230
  36.6850520   3.4587650  49.8529270  40.4374120  10.1848930  47.7339190
  40.8562230  11.0281660  47.5615430  39.5182750  10.3220970  47.5045970
  42.7738020   7.9165110  49.1177030  42.8934230   7.3206250  49.8571870
  43.6332020   7.9534800  48.6978330  45.1125920   8.4702300  47.6939540
  44.5861140   8.9944920  47.0904680  45.4557260   9.1029690  48.3249270
  37.5112310   5.8595670  34.1389250  37.3101370   4.9963030  34.5002590
  37.3404360   5.7729030  33.2010850  38.2881540  16.4901940  48.8496920
  37.7502630  17.2148000  48.5305620  38.5415500  16.0132280  48.0594260
  39.5406790   4.4586460  50.3752850  40.1306480   4.1502310  51.0630670
  38.7227030   3.9866210  50.5312750  44.3600220   4.0752270  50.6085870
  43.6715740   3.4133810  50.5435860  45.0806240   3.6290540  51.0534330
  36.3095110   2.9596290  34.1267130  36.6121010   2.9663720  33.2186280
  37.0489700   2.6094150  34.6234790  41.1443750  17.7253150  49.1083570
  41.0702450  18.6288290  49.4155940  40.2422590  17.4065050  49.0805640
  41.6929080  16.8911660  36.7309930  42.5879870  17.2296630  36.7528690
  41.7246710  16.1691070  36.1034210  35.3325240  12.2638710  34.9596930
  35.7700110  12.8068380  35.6154510  35.8172970  11.4385660  34.9693270
  32.5471040  15.0527740  42.4117190  32.8774050  14.1848800  42.1795830
  32.9762040  15.2586260  43.2422150  37.1432960  13.3836750  40.0719160
  36.8428500  13.2601720  40.9723070  37.0370450  12.5245340  39.6634890
  33.0361250  15.9198330  45.1498820  32.5992240  16.0999130  45.9822970
  33.6038930  16.6772950  45.0080540  48.6723430  15.4215330  49.4376130
  48.0725420  15.4807890  48.6940050  48.8017330  14.4820310  49.5672980
  49.9124880  13.1633150  34.7745840  49.0817840  13.2309800  35.2453070
  50.0896710  14.0537270  34.4712700  49.3681340   9.9080630  37.2780040
  50.1300250  10.4777280  37.3839730  49.3835710   9.3407830  38.0488350
  32.8685680   8.4318560  41.5087700  32.2134520   8.1630200  40.8647400
  33.7063630   8.3223040  41.0589680  50.3741310  10.7630730  42.1221970
  50.7450140   9.9798050  41.7157940  51.0143240  11.4519830  41.9439270
  47.3575070  12.1467310  47.5352290  46.5434910  12.5764470  47.7978080
  47.7649270  12.7585720  46.9221340  49.4200510  10.2015000  34.4352560
  49.6949350  11.1093880  34.3071780  49.2311250  10.1377530  35.3714550
  45.8176120   3.2259850  35.7306190  46.2361000   3.0390830  34.8902850
  45.5112180   2.3738900  36.0409120  49.3165850   8.1383990  39.4281990
  48.9409450   7.3711920  38.9963280  48.5868970   8.5206690  39.9156920
  33.9061610   8.8171130  46.0491040  34.2734650   8.7298530  46.9287060
  33.3372430   8.0537680  45.9497900  48.7065470   7.2855510  49.0621510
  48.4751560   7.0568260  48.1619460  48.9670020   8.2055060  49.0166400
  33.4577610   5.7280220  49.9549460  32.5633660   5.6946980  50.2943170
  33.9975160   5.9267010  50.7200710  47.1453540   2.5111940  51.8401210
  48.0223720   2.5195340  52.2235210  47.1574380   1.7742780  51.2293560
  32.0823760   5.6417490  37.4513030  31.1787840   5.9047690  37.2764690
  32.5664380   5.9128660  36.6712990  48.5916810   6.3641480  42.7289230
  49.1154290   5.8704130  42.0979400  49.1776230   6.4991840  43.4736800
  48.7706530   6.4481350  46.2508780  47.8209240   6.4144890  46.3653770
  48.9519540   7.3581460  46.0158550  34.6250970   4.6983030  35.3607410
  35.3342670   4.2766250  34.8754690  33.9090910   4.7658260  34.7290760
  48.0816780   5.6214830  38.6681640  48.5775900   5.3885700  39.4530520
  47.8832850   4.7826670  38.2519280  49.5103940   4.2575780  41.2019320
  49.4003220   4.1031820  42.1401590  50.2711530   3.7296720  40.9594730
  50.3994210   2.0883700  34.4425460  51.3243520   1.9564880  34.2343750
  50.3770000   2.1676520  35.3961910  50.4732700   2.8594360  37.0682170
  49.6784200   2.7939480  37.5975080  50.6775980   3.7945000  37.0567520
  47.4151120  16.8985910  41.0620560  48.0110190  16.5770480  40.3854980
  47.6729270  16.4257730  41.8533830  35.3213690  13.3303820  51.2111190
  35.2783320  12.9596730  52.0925650  35.4524700  14.2681390  51.3513010
  39.0219720  14.8863410  46.8120910  38.7811080  15.1537970  45.9251430
  39.9622360  15.0569140  46.8671770  50.2823880  16.9057790  47.6131550
  49.7882160  17.3026660  46.8958680  49.6737170  16.2807000  48.0068830
  35.1601720  16.2766070  48.3308970  34.5662040  16.1450770  49.0699010
  35.1525560  15.4404210  47.8651070  47.9663330  17.5481210  44.8918290
  47.5066300  18.2997020  44.5176310  47.3375790  16.8287680  44.8333090
  34.7913950  13.6424450  47.2817010  34.0648010  13.0229740  47.2142960
  34.8523100  14.0365060  46.4115090  38.3959050  15.8569450  44.0666420
  38.9124070  15.2456810  43.5414680  39.0456430  16.3598230  44.5577430
  41.1354550  16.7477940  44.8935400  41.4232360  16.4932240  44.0168410
  41.6477770  16.1955300  45.4840970  33.0743950  16.9598840  40.4913770
  32.9065990  16.3269520  41.1895660  32.2078460  17.1658240  40.1407960
  40.2385780   2.9054890  40.9847940  39.4260290   2.5311780  40.6443820
  40.7427420   2.1499970  41.2869130  34.6806650  15.6532070  37.9363910
  34.1554270  16.0340100  37.2325870  34.6051230  16.2782840  38.6573620
  41.2026910  17.6694040  52.2603600  42.1294220  17.4338310  52.3039560
  41.1877340  18.4966040  51.7789630  49.4371970  17.2119610  39.2577850
  49.6124160  16.5257350  38.6138770  48.7393540  17.7366660  38.8654520
  37.2799620  17.6014450  36.8113160  38.0118440  17.3173730  36.2637050
  37.5393290  17.3627730  37.7012540  36.4414410  13.7179180  36.8159490
  35.8123290  14.1864280  37.3645320  36.5562240  12.8728400  37.2505680
  47.7704470  16.8963900  52.0844640  48.5629790  16.4013130  51.8770600
  48.0637620  17.5754040  52.6920250  43.8964130   7.7684840  22.9660690
  43.8158180   6.8539450  22.6952400  43.4828550   8.2651910  22.2600400
  42.0282170   9.5463860  24.8469960  41.2524270   9.0664300  25.1368530
  42.6795100   8.8669510  24.6726120  36.0448000   9.8583670  25.7245720
  35.2132880   9.6032380  26.1242230  36.6528980   9.9294440  26.4603640
  46.0489600  13.9524050  23.6269090  45.5871130  13.1811290  23.9556260
  46.8615150  13.9790120  24.1321540  36.0249260  13.8923760  25.9203740
  36.3277300  13.0021500  25.7413960  36.7692850  14.4493980  25.6925990
  34.4539950   4.8185560  19.5088110  33.5656650   5.1601530  19.4067990
  34.7381140   4.6185880  18.6168940  32.4172960   7.4191210  25.3927810
  32.9889070   6.6513410  25.3931450  32.4174500   7.7179970  24.4834420
  42.2752910  16.2382060  23.2473080  41.6564350  16.6939560  22.6767520
  43.1304690  16.3933520  22.8462780  41.4691160  12.2221050  24.8540120
  41.3999440  11.2810990  24.6929250  42.2311020  12.3122460  25.4262690
  33.6597830   2.8275570  27.1796740  33.4800670   1.9301320  27.4599500
  33.2577910   3.3747440  27.8543690  42.4996330   5.0291430  25.0809050
  42.8761150   4.1563310  24.9682720  42.4015840   5.3650130  24.1899490
  36.6301340   3.4017060  20.5426490  36.7368090   4.3020790  20.8495250
  35.7193700   3.3535030  20.2521140  46.2820450   2.5241870  22.0137390
  47.1030070   2.0338440  22.0562870  46.3154530   3.1139530  22.7669230
  34.2784500   5.3236070  25.7879080  34.9594610   5.5874440  26.4066480
  33.9632550   4.4836940  26.1217090  38.4709070   6.3703430  24.8751670
  38.9787290   6.8684400  25.5156690  39.0022310   5.5938630  24.6991030
  50.5720000   4.5408620  28.5781020  49.8672170   4.9290330  28.0596130
  50.8377920   5.2358910  29.1801950  43.1416260  11.1221300  20.6404990
  42.5233530  11.5870750  20.0767710  43.6539510  11.8148780  21.0574500
  38.0048020  10.6497170  27.3188590  37.6717400  11.2766090  27.9609660
  38.1814700  11.1759050  26.5390260  46.5181930   4.4642250  24.7864930
  45.8137500   4.7527140  25.3668040  46.8794090   5.2742360  24.4264490
  36.4360500   2.7211950  27.1485540  36.7777310   3.5654000  26.8539410
  35.4976310   2.8695690  27.2650880  37.2167120  12.6177970  29.1337770
  37.8341120  13.2929050  28.8522220  36.3560240  13.0265950  29.0425270
  32.5099460  11.8077830  18.0144620  32.1327440  12.2964930  17.2829520
  32.7672530  12.4803110  18.6451150  48.1344710  14.0817380  27.0492410
  47.4508230  14.7516490  27.0409080  48.6739000  14.2798030  26.2837270
  49.5868850   3.9097040  25.1774140  48.6393760   3.9436020  25.3089570
  49.9118840   4.7235990  25.5623500  45.6703450  15.9261510  25.7637590
  45.6830610  15.5223800  24.8959850  45.1178670  16.7008800  25.6599020
  46.9648870  12.6477730  20.8527760  46.8545200  11.7052060  20.9777180
  46.9617120  13.0093370  21.7390520  45.0688890  10.8291350  27.0920200
  45.4857680  10.6151460  26.2573660  45.7928710  11.0864140  27.6628820
  42.5069150   8.2743050  20.2090250  41.5798430   8.2080430  20.4378720
  42.6593970   9.2123180  20.0945490  42.4938230   4.5460050  17.2057410
  41.5541900   4.7074010  17.2909870  42.8121490   5.2645730  16.6593400
  49.0150990   9.2278570  27.1836440  48.1869620   9.2971660  26.7086570
  49.6101470   9.8132880  26.7152270  46.5366440   9.8363350  20.7125500
  45.9178860   9.4982900  20.0651800  46.5190890   9.1923110  21.4204690
  45.9793000   6.0147890  28.1291310  45.5664180   6.8401600  28.3831300
  45.2468950   5.4292930  27.9367670  38.1125790   8.8007790  22.9909980
  37.7082790   8.0885040  22.4955880  38.1988910   8.4561030  23.8798020
  38.5807490  12.4875350  25.1549190  38.2835780  11.8820820  24.4756970
  39.5307310  12.5252660  25.0438550  36.8254410   5.5751000  26.7709020
  37.3769000   5.6846340  25.9962270  37.3397920   5.9488600  27.4864250
  46.6693100  16.0607220  28.8172290  46.1923660  16.8679410  28.6244900
  45.9854890  15.4085550  28.9698500  37.6725920  12.2257040  31.8056990
  36.7754450  12.4497010  32.0530390  37.6978790  12.3491980  30.8568390
  44.7131140   9.0750160  17.7198250  45.1524420   8.2372590  17.5736070
  45.4259560   9.7079560  17.8062390  36.4997140   9.0970360  30.3814360
  36.3604910   9.9693160  30.7501760  35.6178500   8.7543170  30.2362300
  42.8226520  14.0146230  21.6879490  43.2622430  14.7570560  21.2734880
  42.7613410  14.2572800  22.6118450  38.2977490  15.0392060  32.5899510
  38.2692920  15.4435010  31.7227940  38.1342460  14.1102420  32.4271110
  34.8130420   7.6952770  20.4916630  34.6928020   8.4214860  19.8797900
  34.5031310   6.9255680  20.0144540  50.2492310  15.8219160  33.8863680
  50.7252030  16.3002050  34.5652760  50.8699470  15.7536650  33.1609180
  32.4515790  10.8667910  26.2985270  32.5296210  11.0016680  25.3540990
  33.0657470  10.1583800  26.4913390  33.6963420  12.5668100  22.7091450
  33.2891500  12.7082690  21.8545050  34.5876430  12.2828260  22.5062660
  49.6525560  13.0132010  31.0463690  49.7788620  12.7743890  30.1280870
  49.6946940  12.1816550  31.5185770  43.5142300  16.7160010  29.6158500
  44.0286970  16.6268020  30.4180930  42.6711380  17.0619710  29.9086410
  45.4896700  17.0015350  19.0442500  45.3297840  16.7118290  19.9424330
  45.3243410  16.2255480  18.5087730  37.9685080  16.7813880  20.8214120
  37.7927560  15.8649420  20.6081920  37.1140820  17.1401170  21.0611920
  45.1922830  14.5102910  17.6040500  44.4987990  14.5080200  16.9442780
  45.9345690  14.0862230  17.1734670  44.7572760  16.1365620  21.6788990
  45.2129710  15.3555000  21.9927610  45.0965280  16.8472440  22.2230170
  49.5049570   5.0664470  32.0113430  48.8893840   5.5744140  31.4828890
  49.1845990   4.1662800  31.9539370  32.5075310  11.9082080  28.8379730
  32.6706350  11.4387440  28.0199100  32.9727760  11.4005640  29.5028570
  41.5663890   3.9056360  29.4775620  41.1043260   4.1139380  30.2895560
  41.1642000   3.0915710  29.1746290  46.5668400   5.1265310  30.6072280
  45.7161990   4.8271060  30.9281350  46.4070190   5.3707320  29.6956100
  43.6618110   6.6267060  32.7071070  43.9871520   5.7930810  32.3673300
  44.4498440   7.1495580  32.8549400  37.0708300   6.1621410  21.6021550
  36.8449220   5.9458580  22.5068170  36.2900830   6.5949870  21.2567520
  44.3006060   6.1684780  20.2012200  43.7014950   6.8920580  20.0175820
  44.8485670   6.1061560  19.4188650  39.5107510   7.0606990  32.2681820
  39.4151110   6.1201720  32.1182220  40.3539490   7.2822060  31.8729890
  42.9070930   4.8048320  22.2315480  43.3000500   5.1220520  21.4184170
  43.2687780   3.9260200  22.3460000  34.6418050   3.4720660  30.4215600
  34.2481440   4.3195870  30.6288380  33.9536450   2.8347030  30.6124240
  41.2163100   3.5555630  33.4912340  40.5261420   3.3627830  34.1258430
  41.9595400   3.8390270  34.0236640  32.1305330   5.3369240  15.6648400
  32.0480000   6.2800000  15.8063390  31.7788390   5.1944150  14.7860750
  43.4926070   7.3954070  26.3266260  42.7607190   7.9040880  26.6756360
  43.0950410   6.5784050  26.0255040  39.9303460   4.0708270  24.7318750
  39.9339520   3.6298220  23.8823290  40.8254580   4.3925600  24.8390570
  35.7805840   3.9534760  23.6912960  35.4405890   4.4309990  24.4480010
  35.0183160   3.4999880  23.3314060  39.9923610   5.0720350  17.7225510
  40.1136430   5.0306830  18.6711330  39.6072120   5.9344500  17.5672240
  43.9551980   2.8487750  25.7389200  43.9724720   3.2996400  26.5831050
  43.7067560   1.9493390  25.9522640  39.0045110   7.3821490  17.1208810
  38.4362010   6.9339740  16.4944720  39.7134110   7.7414270  16.5873960
  34.0814290  11.2833510  30.9975540  33.6969080  10.6427180  31.5958500
  34.3926480  11.9869630  31.5670270  40.2311430   8.1310050  26.4784160
  40.5981560   7.6568620  27.2245500  40.0416490   9.0051620  26.8192500
  33.0951920   2.8753740  22.6077630  32.8098840   2.5109410  23.4456250
  33.0330780   2.1434200  21.9940770  38.0210800   7.1718690  28.7968370
  37.7167870   8.0510670  29.0218730  38.9757260   7.2318480  28.8325810
  36.5492590  11.3779680  19.3935220  35.7754850  10.8377300  19.2333940
  37.2787220  10.8586290  19.0552980  47.3080570  10.3745040  25.1861610
  48.0279690  10.8700330  24.7957720  47.1062390   9.6962930  24.5415480
  42.7690510   1.7683000  19.3291000  41.9555120   1.2696170  19.2536310
  42.5752460   2.6081250  18.9127350  42.6899370  10.4454100  31.0730610
  42.6236680   9.5249770  30.8188200  42.0604510  10.5429540  31.7875250
  45.4838900   6.1402650  17.6253160  46.3718520   6.4519880  17.4504500
  45.4543990   5.2674900  17.2333740  36.5929990  11.0460060  23.0314030
  37.1108660  10.2428320  22.9770920  36.1414010  10.9839200  23.8730860
  41.4799490  12.3126340  18.3041330  41.8215190  13.0568570  17.8084650
  40.6512200  12.6257460  18.6666160  34.0774530   8.0121430  29.9439730
  33.7189470   8.6775280  30.5313070  33.7829090   7.1804980  30.3152350
  37.2787650   8.4705670  32.8279280  36.9787790   8.6162850  31.9307100
  38.0498890   7.9110960  32.7352670  42.6216100  13.2674670  30.8234410
  42.6360640  12.3355630  30.6053320  41.9141200  13.3534430  31.4624180
  47.7553170   7.4514490  17.0933020  47.6716890   7.8828710  16.2429460
  48.4747360   7.9112840  17.5259840  48.8327310   9.9082010  30.1702990
  48.1075500  10.5010790  29.9732380  49.3602770   9.9005550  29.3716360
  48.7840420  14.3056750  19.8215150  48.1416580  13.6512370  20.0958870
  48.3971080  14.7111840  19.0455820  44.3626900  11.6342180  23.6686840
  44.7150720  11.0370310  23.0088210  43.4789230  11.3086410  23.8395090
  40.4490180  12.3939870  21.0757250  41.1361310  12.9409080  21.4564840
  39.6622600  12.9380600  21.1106860  32.5882580   8.0112690  16.5674330
  33.4577430   8.2937490  16.8510250  32.0972900   8.8248560  16.4523140
  39.7517390   9.3985900  20.6882610  40.2080170  10.2091150  20.9142800
  39.4005600   9.0809040  21.5201100  42.0550000  14.9092240  27.9174910
  42.6992220  15.1151620  28.5948330  42.4179440  14.1480640  27.4645760
  43.3282080  12.9124590  26.6352360  43.9704310  12.2117750  26.7484530
  43.8531430  13.6923030  26.4549250  47.1737800  13.1973210  16.3591500
  46.9475380  12.4803650  16.9516140  46.7834000  12.9485650  15.5213250
  45.1019700  13.7119490  29.8388420  45.4375940  14.2986180  30.5166340
  44.1820040  13.5812200  30.0686210  32.9553830  17.2240070  17.1335960
  33.3151470  17.8229410  16.4793230  32.8146170  17.7699960  17.9070990
  46.7554050  11.1145150  18.0205660  46.4675750  11.5757840  18.8083540
  47.5506220  10.6542920  18.2889880  32.9395690  15.4894930  31.6078360
  33.0486810  14.5489670  31.4673750  32.2876250  15.7549680  30.9592090
  40.9308280  13.7610820  33.0076480  40.6105150  13.0420060  33.5522170
  40.2566640  14.4365890  33.0812540  38.9722450  14.6071270  17.9509630
  38.9632550  15.3400960  17.3354140  38.0520810  14.3602850  18.0436590
  34.5729090   9.8286160  18.6956390  33.9657040  10.5685060  18.7051690
  35.0478440   9.9185520  17.8694590  44.1461880   3.9936980  28.3713280
  44.5142700   3.1732190  28.6992850  43.2860080   4.0538870  28.7868930
  47.5123910   2.9493920  19.1800840  46.8837070   3.0539590  18.4659070
  47.0175830   3.1690700  19.9694720  41.9582050  14.6699510  16.6134820
  42.0594030  14.4663500  15.6836800  41.0583790  14.4157790  16.8182600
  39.4807940   5.2279870  20.5958720  38.7724090   5.6966210  21.0372330
  39.7652420   4.5701880  21.2303910  41.1063870   6.6476570  28.5951250
  41.6049120   7.1222390  29.2603100  41.2486820   5.7240090  28.8021280
  43.5123370   1.9530530  22.0354510  43.3891150   1.9716660  21.0864020
  44.4607930   2.0009470  22.1552910  40.6000160  17.1885830  21.3082490
  40.8541660  17.1507220  20.3861860  39.6512640  17.0619160  21.3010740
  37.6842960   3.5364950  17.9709430  38.5333490   3.9735100  17.9049620
  37.3174230   3.8485210  18.7981490  48.3130730   2.8644530  29.4379640
  47.8104330   3.6049930  29.7773450  49.1287390   3.2528530  29.1216430
  46.6052740   8.1077710  22.8841000  45.6642880   8.1227940  23.0588690
  46.9196810   7.3213670  23.3301300  36.5834380   9.7897310  16.4444960
  37.3497650   9.6778670  17.0070390  36.6609070   9.0935280  15.7921730
  35.2781140   7.2222380  17.1277850  35.3584730   6.2749890  17.2395250
  36.1700890   7.5529260  17.2338510  48.6078320  15.2786560  24.5595260
  48.7325740  16.1017730  25.0319070  49.4743880  15.0677290  24.2119410
  36.0795850  17.3717770  24.2312390  36.8158330  16.8233230  24.5020960
  36.4636770  18.2373780  24.0918380  32.9641330  13.4391340  20.1053900
  32.0381110  13.6812480  20.0959310  33.4297760  14.2665600  19.9838650
  35.0854130  16.5563840  33.4197970  35.8866860  16.8775890  33.8333370
  34.5705950  16.1959420  34.1417880  39.1898160  16.5448080  16.0537960
  39.9826770  16.8336910  15.6019750  38.6702510  16.1140250  15.3750440
  43.9218760  12.6643710  33.3673380  43.3156920  12.6875310  32.6269130
  43.6172870  11.9326750  33.9040630  45.3519130  16.3924000  31.9782790
  46.3040880  16.3082020  31.9283030  45.2047350  17.0565710  32.6516580
  48.2428330  15.7718210  17.4774700  47.9569840  15.3583350  16.6628880
  48.0447880  16.7005920  17.3575220  32.8051940   9.0437300  32.3634020
  33.3090960   8.4644580  32.9350250  32.0659360   9.3277530  32.9010390
  39.7075560  11.7651490  15.9180310  39.6026200  11.1503840  16.6441690
  39.5399780  11.2417380  15.1343320  39.8589880  10.4508290  31.8969540
  39.0935550  11.0193290  31.8124210  40.0405840  10.1584500  31.0037770
  42.9478290  10.8271520  16.5222300  42.3988390  11.2740820  17.1665040
  43.5697550  10.3220770  17.0459970  47.0013230  12.1813620  32.4544560
  47.7422700  12.5189380  31.9512020  46.2385910  12.3505680  31.9014330
  34.8375020   7.1866890  33.2584090  34.8780360   6.8880760  34.1669320
  35.6920520   7.5874500  33.0991610  38.6153410   9.7862440  18.4187600
  39.0369830   9.6202310  19.2618990  38.7404250   8.9762670  17.9242740
  36.7780830   5.7658990  31.2258580  36.2477290   5.2749940  30.5981920
  37.4468900   6.1943190  30.6916510  41.1281050   8.8100050  15.6664700
  41.6486710   8.0949070  15.3005850  41.7749450   9.4485920  15.9665210
  45.6758890  10.2328450  30.9899770  46.0899910  10.3873530  31.8390190
  44.7409890  10.3583670  31.1525550  46.1481060   7.5724610  32.9938920
  46.7301830   6.8176930  32.9059400  46.3242830   8.1032050  32.2170400
  37.2653130   2.7321360  31.3055870  37.1710000   2.1142110  30.5806740
  36.6850520   3.4587650  31.0785780  40.4374120  10.1848930  28.9595700
  40.8562230  11.0281660  28.7871940  39.5182750  10.3220970  28.7302480
  42.7738020   7.9165110  30.3433540  42.8934230   7.3206250  31.0828380
  43.6332020   7.9534800  29.9234840  45.1125920   8.4702300  28.9196050
  44.5861140   8.9944920  28.3161190  45.4557260   9.1029690  29.5505780
  37.5112310   5.8595670  15.3645760  37.3101370   4.9963030  15.7259100
  37.3404360   5.7729030  14.4267360  38.2881540  16.4901940  30.0753430
  37.7502630  17.2148000  29.7562130  38.5415500  16.0132280  29.2850770
  39.5406790   4.4586460  31.6009360  40.1306480   4.1502310  32.2887180
  38.7227030   3.9866210  31.7569260  44.3600220   4.0752270  31.8342380
  43.6715740   3.4133810  31.7692370  45.0806240   3.6290540  32.2790840
  36.3095110   2.9596290  15.3523640  36.6121010   2.9663720  14.4442790
  37.0489700   2.6094150  15.8491300  41.1443750  17.7253150  30.3340080
  41.0702450  18.6288290  30.6412450  40.2422590  17.4065050  30.3062150
  41.6929080  16.8911660  17.9566440  42.5879870  17.2296630  17.9785200
  41.7246710  16.1691070  17.3290720  35.3325240  12.2638710  16.1853440
  35.7700110  12.8068380  16.8411020  35.8172970  11.4385660  16.1949780
  32.5471040  15.0527740  23.6373700  32.8774050  14.1848800  23.4052340
  32.9762040  15.2586260  24.4678660  37.1432960  13.3836750  21.2975670
  36.8428500  13.2601720  22.1979580  37.0370450  12.5245340  20.8891400
  33.0361250  15.9198330  26.3755330  32.5992240  16.0999130  27.2079480
  33.6038930  16.6772950  26.2337050  48.6723430  15.4215330  30.6632640
  48.0725420  15.4807890  29.9196560  48.8017330  14.4820310  30.7929490
  49.9124880  13.1633150  16.0002350  49.0817840  13.2309800  16.4709580
  50.0896710  14.0537270  15.6969210  49.3681340   9.9080630  18.5036550
  50.1300250  10.4777280  18.6096240  49.3835710   9.3407830  19.2744860
  32.8685680   8.4318560  22.7344210  32.2134520   8.1630200  22.0903910
  33.7063630   8.3223040  22.2846190  50.3741310  10.7630730  23.3478480
  50.7450140   9.9798050  22.9414450  51.0143240  11.4519830  23.1695780
  47.3575070  12.1467310  28.7608800  46.5434910  12.5764470  29.0234590
  47.7649270  12.7585720  28.1477850  49.4200510  10.2015000  15.6609070
  49.6949350  11.1093880  15.5328290  49.2311250  10.1377530  16.5971060
  45.8176120   3.2259850  16.9562700  46.2361000   3.0390830  16.1159360
  45.5112180   2.3738900  17.2665630  49.3165850   8.1383990  20.6538500
  48.9409450   7.3711920  20.2219790  48.5868970   8.5206690  21.1413430
  33.9061610   8.8171130  27.2747550  34.2734650   8.7298530  28.1543570
  33.3372430   8.0537680  27.1754410  48.7065470   7.2855510  30.2878020
  48.4751560   7.0568260  29.3875970  48.9670020   8.2055060  30.2422910
  33.4577610   5.7280220  31.1805970  32.5633660   5.6946980  31.5199680
  33.9975160   5.9267010  31.9457220  47.1453540   2.5111940  33.0657720
  48.0223720   2.5195340  33.4491720  47.1574380   1.7742780  32.4550070
  32.0823760   5.6417490  18.6769540  31.1787840   5.9047690  18.5021200
  32.5664380   5.9128660  17.8969500  48.5916810   6.3641480  23.9545740
  49.1154290   5.8704130  23.3235910  49.1776230   6.4991840  24.6993310
  48.7706530   6.4481350  27.4765290  47.8209240   6.4144890  27.5910280
  48.9519540   7.3581460  27.2415060  34.6250970   4.6983030  16.5863920
  35.3342670   4.2766250  16.1011200  33.9090910   4.7658260  15.9547270
  48.0816780   5.6214830  19.8938150  48.5775900   5.3885700  20.6787030
  47.8832850   4.7826670  19.4775790  49.5103940   4.2575780  22.4275830
  49.4003220   4.1031820  23.3658100  50.2711530   3.7296720  22.1851240
  50.3994210   2.0883700  15.6681970  51.3243520   1.9564880  15.4600260
  50.3770000   2.1676520  16.6218420  50.4732700   2.8594360  18.2938680
  49.6784200   2.7939480  18.8231590  50.6775980   3.7945000  18.2824030
  47.4151120  16.8985910  22.2877070  48.0110190  16.5770480  21.6111490
  47.6729270  16.4257730  23.0790340  35.3213690  13.3303820  32.4367700
  35.2783320  12.9596730  33.3182160  35.4524700  14.2681390  32.5769520
  39.0219720  14.8863410  28.0377420  38.7811080  15.1537970  27.1507940
  39.9622360  15.0569140  28.0928280  50.2823880  16.9057790  28.8388060
  49.7882160  17.3026660  28.1215190  49.6737170  16.2807000  29.2325340
  35.1601720  16.2766070  29.5565480  34.5662040  16.1450770  30.2955520
  35.1525560  15.4404210  29.0907580  47.9663330  17.5481210  26.1174800
  47.5066300  18.2997020  25.7432820  47.3375790  16.8287680  26.0589600
  34.7913950  13.6424450  28.5073520  34.0648010  13.0229740  28.4399470
  34.8523100  14.0365060  27.6371600  38.3959050  15.8569450  25.2922930
  38.9124070  15.2456810  24.7671190  39.0456430  16.3598230  25.7833940
  41.1354550  16.7477940  26.1191910  41.4232360  16.4932240  25.2424920
  41.6477770  16.1955300  26.7097480  33.0743950  16.9598840  21.7170280
  32.9065990  16.3269520  22.4152170  32.2078460  17.1658240  21.3664470
  40.2385780   2.9054890  22.2104450  39.4260290   2.5311780  21.8700330
  40.7427420   2.1499970  22.5125640  34.6806650  15.6532070  19.1620420
  34.1554270  16.0340100  18.4582380  34.6051230  16.2782840  19.8830130
  41.2026910  17.6694040  33.4860110  42.1294220  17.4338310  33.5296070
  41.1877340  18.4966040  33.0046140  49.4371970  17.2119610  20.4834360
  49.6124160  16.5257350  19.8395280  48.7393540  17.7366660  20.0911030
  37.2799620  17.6014450  18.0369670  38.0118440  17.3173730  17.4893560
  37.5393290  17.3627730  18.9269050  36.4414410  13.7179180  18.0416000
  35.8123290  14.1864280  18.5901830  36.5562240  12.8728400  18.4762190
  47.7704470  16.8963900  33.3101150  48.5629790  16.4013130  33.1027110
  48.0637620  17.5754040  33.9176760  43.8964130   7.7684840   4.1917200
  43.8158180   6.8539450   3.9208910  43.4828550   8.2651910   3.4856910
  42.0282170   9.5463860   6.0726470  41.2524270   9.0664300   6.3625040
  42.6795100   8.8669510   5.8982630  36.0448000   9.8583670   6.9502230
  35.2132880   9.6032380   7.3498740  36.6528980   9.9294440   7.6860150
  46.0489600  13.9524050   4.8525600  45.5871130  13.1811290   5.1812770
  46.8615150  13.9790120   5.3578050  36.0249260  13.8923760   7.1460250
  36.3277300  13.0021500   6.9670470  36.7692850  14.4493980   6.9182500
  32.4172960   7.4191210   6.6184320  32.9889070   6.6513410   6.6187960
  32.4174500   7.7179970   5.7090930  42.2752910  16.2382060   4.4729590
  41.6564350  16.6939560   3.9024030  43.1304690  16.3933520   4.0719290
  41.4691160  12.2221050   6.0796630  41.3999440  11.2810990   5.9185760
  42.2311020  12.3122460   6.6519200  33.6597830   2.8275570   8.4053250
  33.4800670   1.9301320   8.6856010  33.2577910   3.3747440   9.0800200
  42.4996330   5.0291430   6.3065560  42.8761150   4.1563310   6.1939230
  42.4015840   5.3650130   5.4156000  36.6301340   3.4017060   1.7683000
  36.7368090   4.3020790   2.0751760  35.7193700   3.3535030   1.4777650
  46.2820450   2.5241870   3.2393900  47.1030070   2.0338440   3.2819380
  46.3154530   3.1139530   3.9925740  34.2784500   5.3236070   7.0135590
  34.9594610   5.5874440   7.6322990  33.9632550   4.4836940   7.3473600
  38.4709070   6.3703430   6.1008180  38.9787290   6.8684400   6.7413200
  39.0022310   5.5938630   5.9247540  50.5720000   4.5408620   9.8037530
  49.8672170   4.9290330   9.2852640  50.8377920   5.2358910  10.4058460
  38.0048020  10.6497170   8.5445100  37.6717400  11.2766090   9.1866170
  38.1814700  11.1759050   7.7646770  46.5181930   4.4642250   6.0121440
  45.8137500   4.7527140   6.5924550  46.8794090   5.2742360   5.6521000
  36.4360500   2.7211950   8.3742050  36.7777310   3.5654000   8.0795920
  35.4976310   2.8695690   8.4907390  37.2167120  12.6177970  10.3594280
  37.8341120  13.2929050  10.0778730  36.3560240  13.0265950  10.2681780
  48.1344710  14.0817380   8.2748920  47.4508230  14.7516490   8.2665590
  48.6739000  14.2798030   7.5093780  49.5868850   3.9097040   6.4030650
  48.6393760   3.9436020   6.5346080  49.9118840   4.7235990   6.7880010
  45.6703450  15.9261510   6.9894100  45.6830610  15.5223800   6.1216360
  45.1178670  16.7008800   6.8855530  46.9648870  12.6477730   2.0784270
  46.8545200  11.7052060   2.2033690  46.9617120  13.0093370   2.9647030
  45.0688890  10.8291350   8.3176710  45.4857680  10.6151460   7.4830170
  45.7928710  11.0864140   8.8885330  49.0150990   9.2278570   8.4092950
  48.1869620   9.2971660   7.9343080  49.6101470   9.8132880   7.9408780
  45.9793000   6.0147890   9.3547820  45.5664180   6.8401600   9.6087810
  45.2468950   5.4292930   9.1624180  38.1125790   8.8007790   4.2166490
  37.7082790   8.0885040   3.7212390  38.1988910   8.4561030   5.1054530
  38.5807490  12.4875350   6.3805700  38.2835780  11.8820820   5.7013480
  39.5307310  12.5252660   6.2695060  36.8254410   5.5751000   7.9965530
  37.3769000   5.6846340   7.2218780  37.3397920   5.9488600   8.7120760
  46.6693100  16.0607220  10.0428800  46.1923660  16.8679410   9.8501410
  45.9854890  15.4085550  10.1955010  37.6725920  12.2257040  13.0313500
  36.7754450  12.4497010  13.2786900  37.6978790  12.3491980  12.0824900
  36.4997140   9.0970360  11.6070870  36.3604910   9.9693160  11.9758270
  35.6178500   8.7543170  11.4618810  42.8226520  14.0146230   2.9136000
  43.2622430  14.7570560   2.4991390  42.7613410  14.2572800   3.8374960
  38.2977490  15.0392060  13.8156020  38.2692920  15.4435010  12.9484450
  38.1342460  14.1102420  13.6527620  50.2492310  15.8219160  15.1120190
  50.7252030  16.3002050  15.7909270  50.8699470  15.7536650  14.3865690
  32.4515790  10.8667910   7.5241780  32.5296210  11.0016680   6.5797500
  33.0657470  10.1583800   7.7169900  33.6963420  12.5668100   3.9347960
  33.2891500  12.7082690   3.0801560  34.5876430  12.2828260   3.7319170
  49.6525560  13.0132010  12.2720200  49.7788620  12.7743890  11.3537380
  49.6946940  12.1816550  12.7442280  43.5142300  16.7160010  10.8415010
  44.0286970  16.6268020  11.6437440  42.6711380  17.0619710  11.1342920
  37.9685080  16.7813880   2.0470630  37.7927560  15.8649420   1.8338430
  37.1140820  17.1401170   2.2868430  44.7572760  16.1365620   2.9045500
  45.2129710  15.3555000   3.2184120  45.0965280  16.8472440   3.4486680
  49.5049570   5.0664470  13.2369940  48.8893840   5.5744140  12.7085400
  49.1845990   4.1662800  13.1795880  32.5075310  11.9082080  10.0636240
  32.6706350  11.4387440   9.2455610  32.9727760  11.4005640  10.7285080
  41.5663890   3.9056360  10.7032130  41.1043260   4.1139380  11.5152070
  41.1642000   3.0915710  10.4002800  46.5668400   5.1265310  11.8328790
  45.7161990   4.8271060  12.1537860  46.4070190   5.3707320  10.9212610
  43.6618110   6.6267060  13.9327580  43.9871520   5.7930810  13.5929810
  44.4498440   7.1495580  14.0805910  37.0708300   6.1621410   2.8278060
  36.8449220   5.9458580   3.7324680  36.2900830   6.5949870   2.4824030
  39.5107510   7.0606990  13.4938330  39.4151110   6.1201720  13.3438730
  40.3539490   7.2822060  13.0986400  42.9070930   4.8048320   3.4571990
  43.3000500   5.1220520   2.6440680  43.2687780   3.9260200   3.5716510
  34.6418050   3.4720660  11.6472110  34.2481440   4.3195870  11.8544890
  33.9536450   2.8347030  11.8380750  41.2163100   3.5555630  14.7168850
  40.5261420   3.3627830  15.3514940  41.9595400   3.8390270  15.2493150
  43.4926070   7.3954070   7.5522770  42.7607190   7.9040880   7.9012870
  43.0950410   6.5784050   7.2511550  39.9303460   4.0708270   5.9575260
  39.9339520   3.6298220   5.1079800  40.8254580   4.3925600   6.0647080
  35.7805840   3.9534760   4.9169470  35.4405890   4.4309990   5.6736520
  35.0183160   3.4999880   4.5570570  43.9551980   2.8487750   6.9645710
  43.9724720   3.2996400   7.8087560  43.7067560   1.9493390   7.1779150
  34.0814290  11.2833510  12.2232050  33.6969080  10.6427180  12.8215010
  34.3926480  11.9869630  12.7926780  40.2311430   8.1310050   7.7040670
  40.5981560   7.6568620   8.4502010  40.0416490   9.0051620   8.0449010
  33.0951920   2.8753740   3.8334140  32.8098840   2.5109410   4.6712760
  33.0330780   2.1434200   3.2197280  38.0210800   7.1718690  10.0224880
  37.7167870   8.0510670  10.2475240  38.9757260   7.2318480  10.0582320
  47.3080570  10.3745040   6.4118120  48.0279690  10.8700330   6.0214230
  47.1062390   9.6962930   5.7671990  42.6899370  10.4454100  12.2987120
  42.6236680   9.5249770  12.0444710  42.0604510  10.5429540  13.0131760
  36.5929990  11.0460060   4.2570540  37.1108660  10.2428320   4.2027430
  36.1414010  10.9839200   5.0987370  34.0774530   8.0121430  11.1696240
  33.7189470   8.6775280  11.7569580  33.7829090   7.1804980  11.5408860
  37.2787650   8.4705670  14.0535790  36.9787790   8.6162850  13.1563610
  38.0498890   7.9110960  13.9609180  42.6216100  13.2674670  12.0490920
  42.6360640  12.3355630  11.8309830  41.9141200  13.3534430  12.6880690
  48.8327310   9.9082010  11.3959500  48.1075500  10.5010790  11.1988890
  49.3602770   9.9005550  10.5972870  44.3626900  11.6342180   4.8943350
  44.7150720  11.0370310   4.2344720  43.4789230  11.3086410   5.0651600
  40.4490180  12.3939870   2.3013760  41.1361310  12.9409080   2.6821350
  39.6622600  12.9380600   2.3363370  39.7517390   9.3985900   1.9139120
  40.2080170  10.2091150   2.1399310  39.4005600   9.0809040   2.7457610
  42.0550000  14.9092240   9.1431420  42.6992220  15.1151620   9.8204840
  42.4179440  14.1480640   8.6902270  43.3282080  12.9124590   7.8608870
  43.9704310  12.2117750   7.9741040  43.8531430  13.6923030   7.6805760
  45.1019700  13.7119490  11.0644930  45.4375940  14.2986180  11.7422850
  44.1820040  13.5812200  11.2942720  32.9395690  15.4894930  12.8334870
  33.0486810  14.5489670  12.6930260  32.2876250  15.7549680  12.1848600
  40.9308280  13.7610820  14.2332990  40.6105150  13.0420060  14.7778680
  40.2566640  14.4365890  14.3069050  44.1461880   3.9936980   9.5969790
  44.5142700   3.1732190   9.9249360  43.2860080   4.0538870  10.0125440
  39.4807940   5.2279870   1.8215230  38.7724090   5.6966210   2.2628840
  39.7652420   4.5701880   2.4560420  41.1063870   6.6476570   9.8207760
  41.6049120   7.1222390  10.4859610  41.2486820   5.7240090  10.0277790
  43.5123370   1.9530530   3.2611020  43.3891150   1.9716660   2.3120530
  44.4607930   2.0009470   3.3809420  40.6000160  17.1885830   2.5339000
  40.8541660  17.1507220   1.6118370  39.6512640  17.0619160   2.5267250
  48.3130730   2.8644530  10.6636150  47.8104330   3.6049930  11.0029960
  49.1287390   3.2528530  10.3472940  46.6052740   8.1077710   4.1097510
  45.6642880   8.1227940   4.2845200  46.9196810   7.3213670   4.5557810
  48.6078320  15.2786560   5.7851770  48.7325740  16.1017730   6.2575580
  49.4743880  15.0677290   5.4375920  36.0795850  17.3717770   5.4568900
  36.8158330  16.8233230   5.7277470  36.4636770  18.2373780   5.3174890
  35.0854130  16.5563840  14.6454480  35.8866860  16.8775890  15.0589880
  34.5705950  16.1959420  15.3674390  43.9218760  12.6643710  14.5929890
  43.3156920  12.6875310  13.8525640  43.6172870  11.9326750  15.1297140
  45.3519130  16.3924000  13.2039300  46.3040880  16.3082020  13.1539540
  45.2047350  17.0565710  13.8773090  32.8051940   9.0437300  13.5890530
  33.3090960   8.4644580  14.1606760  32.0659360   9.3277530  14.1266900
  39.8589880  10.4508290  13.1226050  39.0935550  11.0193290  13.0380720
  40.0405840  10.1584500  12.2294280  47.0013230  12.1813620  13.6801070
  47.7422700  12.5189380  13.1768530  46.2385910  12.3505680  13.1270840
  34.8375020   7.1866890  14.4840600  34.8780360   6.8880760  15.3925830
  35.6920520   7.5874500  14.3248120  36.7780830   5.7658990  12.4515090
  36.2477290   5.2749940  11.8238430  37.4468900   6.1943190  11.9173020
  45.6758890  10.2328450  12.2156280  46.0899910  10.3873530  13.0646700
  44.7409890  10.3583670  12.3782060  46.1481060   7.5724610  14.2195430
  46.7301830   6.8176930  14.1315910  46.3242830   8.1032050  13.4426910
  37.2653130   2.7321360  12.5312380  37.1710000   2.1142110  11.8063250
  36.6850520   3.4587650  12.3042290  40.4374120  10.1848930  10.1852210
  40.8562230  11.0281660  10.0128450  39.5182750  10.3220970   9.9558990
  42.7738020   7.9165110  11.5690050  42.8934230   7.3206250  12.3084890
  43.6332020   7.9534800  11.1491350  45.1125920   8.4702300  10.1452560
  44.5861140   8.9944920   9.5417700  45.4557260   9.1029690  10.7762290
  38.2881540  16.4901940  11.3009940  37.7502630  17.2148000  10.9818640
  38.5415500  16.0132280  10.5107280  39.5406790   4.4586460  12.8265870
  40.1306480   4.1502310  13.5143690  38.7227030   3.9866210  12.9825770
  44.3600220   4.0752270  13.0598890  43.6715740   3.4133810  12.9948880
  45.0806240   3.6290540  13.5047350  41.1443750  17.7253150  11.5596590
  41.0702450  18.6288290  11.8668960  40.2422590  17.4065050  11.5318660
  32.5471040  15.0527740   4.8630210  32.8774050  14.1848800   4.6308850
  32.9762040  15.2586260   5.6935170  37.1432960  13.3836750   2.5232180
  36.8428500  13.2601720   3.4236090  37.0370450  12.5245340   2.1147910
  33.0361250  15.9198330   7.6011840  32.5992240  16.0999130   8.4335990
  33.6038930  16.6772950   7.4593560  48.6723430  15.4215330  11.8889150
  48.0725420  15.4807890  11.1453070  48.8017330  14.4820310  12.0186000
  32.8685680   8.4318560   3.9600720  32.2134520   8.1630200   3.3160420
  33.7063630   8.3223040   3.5102700  50.3741310  10.7630730   4.5734990
  50.7450140   9.9798050   4.1670960  51.0143240  11.4519830   4.3952290
  47.3575070  12.1467310   9.9865310  46.5434910  12.5764470  10.2491100
  47.7649270  12.7585720   9.3734360  49.3165850   8.1383990   1.8795010
  48.9409450   7.3711920   1.4476300  48.5868970   8.5206690   2.3669940
  33.9061610   8.8171130   8.5004060  34.2734650   8.7298530   9.3800080
  33.3372430   8.0537680   8.4010920  48.7065470   7.2855510  11.5134530
  48.4751560   7.0568260  10.6132480  48.9670020   8.2055060  11.4679420
  33.4577610   5.7280220  12.4062480  32.5633660   5.6946980  12.7456190
  33.9975160   5.9267010  13.1713730  47.1453540   2.5111940  14.2914230
  48.0223720   2.5195340  14.6748230  47.1574380   1.7742780  13.6806580
  48.5916810   6.3641480   5.1802250  49.1154290   5.8704130   4.5492420
  49.1776230   6.4991840   5.9249820  48.7706530   6.4481350   8.7021800
  47.8209240   6.4144890   8.8166790  48.9519540   7.3581460   8.4671570
  49.5103940   4.2575780   3.6532340  49.4003220   4.1031820   4.5914610
  50.2711530   3.7296720   3.4107750  47.4151120  16.8985910   3.5133580
  48.0110190  16.5770480   2.8368000  47.6729270  16.4257730   4.3046850
  35.3213690  13.3303820  13.6624210  35.2783320  12.9596730  14.5438670
  35.4524700  14.2681390  13.8026030  39.0219720  14.8863410   9.2633930
  38.7811080  15.1537970   8.3764450  39.9622360  15.0569140   9.3184790
  50.2823880  16.9057790  10.0644570  49.7882160  17.3026660   9.3471700
  49.6737170  16.2807000  10.4581850  35.1601720  16.2766070  10.7821990
  34.5662040  16.1450770  11.5212030  35.1525560  15.4404210  10.3164090
  47.9663330  17.5481210   7.3431310  47.5066300  18.2997020   6.9689330
  47.3375790  16.8287680   7.2846110  34.7913950  13.6424450   9.7330030
  34.0648010  13.0229740   9.6655980  34.8523100  14.0365060   8.8628110
  38.3959050  15.8569450   6.5179440  38.9124070  15.2456810   5.9927700
  39.0456430  16.3598230   7.0090450  41.1354550  16.7477940   7.3448420
  41.4232360  16.4932240   6.4681430  41.6477770  16.1955300   7.9353990
  33.0743950  16.9598840   2.9426790  32.9065990  16.3269520   3.6408680
  32.2078460  17.1658240   2.5920980  40.2385780   2.9054890   3.4360960
  39.4260290   2.5311780   3.0956840  40.7427420   2.1499970   3.7382150
  41.2026910  17.6694040  14.7116620  42.1294220  17.4338310  14.7552580
  41.1877340  18.4966040  14.2302650  47.7704470  16.8963900  14.5357660
  48.5629790  16.4013130  14.3283620  48.0637620  17.5754040  15.1433270
  25.1220640  82.8658800  60.5147670  25.0414690  81.9513410  60.2439380
  24.7085060  83.3625870  59.8087380  23.2538680  84.6437820  62.3956940
  22.4780780  84.1638260  62.6855510  23.9051610  83.9643470  62.2213100
  17.2704510  84.9557630  63.2732700  16.4389390  84.7006340  63.6729210
  17.8785490  85.0268400  64.0090620  27.2746110  89.0498010  61.1756070
  26.8127640  88.2785250  61.5043240  28.0871660  89.0764080  61.6808520
  17.2505770  88.9897720  63.4690720  17.5533810  88.0995460  63.2900940
  17.9949360  89.5467940  63.2412970  15.6796460  79.9159520  57.0575090
  14.7913160  80.2575490  56.9554970  15.9637650  79.7159840  56.1655920
  13.6429470  82.5165170  62.9414790  14.2145580  81.7487370  62.9418430
  13.6431010  82.8153930  62.0321400  22.6947670  87.3195010  62.4027100
  22.6255950  86.3784950  62.2416230  23.4567530  87.4096420  62.9749670
  14.8854340  77.9249530  64.7283720  14.7057180  77.0275280  65.0086480
  14.4834420  78.4721400  65.4030670  23.7252840  80.1265390  62.6296030
  24.1017660  79.2537270  62.5169700  23.6272350  80.4624090  61.7386470
  17.8557850  78.4991020  58.0913470  17.9624600  79.3994750  58.3982230
  16.9450210  78.4508990  57.8008120  27.5076960  77.6215830  59.5624370
  28.3286580  77.1312400  59.6049850  27.5411040  78.2113490  60.3156210
  15.5041010  80.4210030  63.3366060  16.1851120  80.6848400  63.9553460
  15.1889060  79.5810900  63.6704070  19.6965580  81.4677390  62.4238650
  20.2043800  81.9658360  63.0643670  20.2278820  80.6912590  62.2478010
  24.3672770  86.2195260  58.1891970  23.7490040  86.6844710  57.6254690
  24.8796020  86.9122740  58.6061480  19.2304530  85.7471130  64.8675570
  18.8973910  86.3740050  65.5096640  19.4071210  86.2733010  64.0877240
  27.7438440  79.5616210  62.3351910  27.0394010  79.8501100  62.9155020
  28.1050600  80.3716320  61.9751470  17.6617010  77.8185910  64.6972520
  18.0033820  78.6627960  64.4026390  16.7232820  77.9669650  64.8137860
  13.7355970  86.9051790  55.5631600  13.3583950  87.3938890  54.8316500
  13.9929040  87.5777070  56.1938130  29.3601220  89.1791340  64.5979390
  28.6764740  89.8490450  64.5896060  29.8995510  89.3771990  63.8324250
  30.8125360  79.0071000  62.7261120  29.8650270  79.0409980  62.8576550
  31.1375350  79.8209950  63.1110480  21.3444900  75.3068180  61.0217110
  21.6519880  74.7515070  60.3052610  20.4145600  75.4412640  60.8390100
  28.1905380  87.7451690  58.4014740  28.0801710  86.8026020  58.5264160
  28.1873630  88.1067330  59.2877500  26.2945400  85.9265310  64.6407180
  26.7114190  85.7125420  63.8060640  27.0185220  86.1838100  65.2115800
  23.7325660  83.3717010  57.7577230  22.8054940  83.3054390  57.9865700
  23.8850480  84.3097140  57.6432470  23.7194740  79.6434010  54.7544390
  22.7798410  79.8047970  54.8396850  24.0378000  80.3619690  54.2080380
  30.2407500  84.3252530  64.7323420  29.4126130  84.3945620  64.2573550
  30.8357980  84.9106840  64.2639250  27.7622950  84.9337310  58.2612480
  27.1435370  84.5956860  57.6138780  27.7447400  84.2897070  58.9691670
  27.2049510  81.1121850  65.6778290  26.7920690  81.9375560  65.9318280
  26.4725460  80.5266890  65.4854650  19.3382300  83.8981750  60.5396960
  18.9339300  83.1859000  60.0442860  19.4245420  83.5534990  61.4285000
  19.8064000  87.5849310  62.7036170  19.5092290  86.9794780  62.0243950
  20.7563820  87.6226620  62.5925530  18.0510920  80.6724960  64.3196000
  18.6025510  80.7820300  63.5449250  18.5654430  81.0462560  65.0351230
  25.9387650  84.1724120  55.2685230  26.3780930  83.3346550  55.1223050
  26.6516070  84.8053520  55.3549370  24.0483030  89.1120190  59.2366470
  24.4878940  89.8544520  58.8221860  23.9869920  89.3546760  60.1605430
  29.5204790  75.4266930  53.5826270  29.2077450  75.5193760  54.4825340
  30.2817260  76.0047960  53.5323700  16.0386930  82.7926730  58.0403610
  15.9184530  83.5188820  57.4284880  15.7287820  82.0229640  57.5631520
  13.6772300  85.9641870  63.8472250  13.7552720  86.0990640  62.9027970
  14.2913980  85.2557760  64.0400370  14.9219930  87.6642060  60.2578430
  14.5148010  87.8056650  59.4032030  15.8132940  87.3802220  60.0549640
  26.4179340  89.6076870  55.1527480  25.7244500  89.6054160  54.4929760
  27.1602200  89.1836190  54.7221650  18.5050590  76.1361800  61.4227280
  18.0618740  76.9171340  61.0911800  19.0635580  76.4591690  62.1298220
  21.6209410  75.7572500  56.3033110  20.9963590  75.7532370  57.0286420
  21.5339530  74.8903460  55.9069080  20.5426490  76.6809130  63.2816880
  20.8398820  77.5871960  63.2008900  21.0912050  76.1927910  62.6676450
  18.2964810  81.2595370  59.1508530  18.0705730  81.0432540  60.0555150
  17.5157340  81.6923830  58.8054500  25.5262570  81.2658740  57.7499180
  24.9271460  81.9894540  57.5662800  26.0742180  81.2035520  56.9675630
  24.1327440  79.9022280  59.7802460  24.5257010  80.2194480  58.9671150
  24.4944290  79.0234160  59.8946980  13.1691610  76.4923080  62.0032660
  12.8804660  77.0625940  62.7157640  13.9137370  76.0127530  62.3663890
  13.3561840  80.4343200  53.2135380  13.2736510  81.3773960  53.3550370
  13.0044900  80.2918110  52.3347730  24.7182580  82.4928030  63.8753240
  23.9863700  83.0014840  64.2243340  24.3206920  81.6758010  63.5742020
  21.1559970  79.1682230  62.2805730  21.1596030  78.7272180  61.4310270
  22.0511090  79.4899560  62.3877550  17.0062350  79.0508720  61.2399940
  16.6662400  79.5283950  61.9966990  16.2439670  78.5973840  60.8801040
  21.2180120  80.1694310  55.2712490  21.3392940  80.1280790  56.2198310
  20.8328630  81.0318460  55.1159220  25.1808490  77.9461710  63.2876180
  25.1981230  78.3970360  64.1318030  24.9324070  77.0467350  63.5009620
  20.2301620  82.4795450  54.6695790  19.6618520  82.0313700  54.0431700
  20.9390620  82.8388230  54.1360940  21.4567940  83.2284010  64.0271140
  21.8238070  82.7542580  64.7732480  21.2673000  84.1025580  64.3679480
  14.3208430  77.9727700  60.1564610  14.0355350  77.6083370  60.9943230
  14.2587290  77.2408160  59.5427750  17.7749100  86.4753640  56.9422200
  17.0011360  85.9351260  56.7820920  18.5043730  85.9560250  56.6039960
  28.5337080  85.4719000  62.7348590  29.2536200  85.9674290  62.3444700
  28.3318900  84.7936890  62.0902460  23.9947020  76.8656960  56.8777980
  23.1811630  76.3670130  56.8023290  23.8008970  77.7055210  56.4614330
  26.7095410  81.2376610  55.1740140  27.5975030  81.5493840  54.9991480
  26.6800500  80.3648860  54.7820720  17.8186500  86.1434020  60.5801010
  18.3365170  85.3402280  60.5257900  17.3670520  86.0813160  61.4217840
  22.7056000  87.4100300  55.8528310  23.0471700  88.1542530  55.3571630
  21.8768710  87.7231420  56.2153140  28.9809680  82.5488450  54.6420000
  28.8973400  82.9802670  53.7916440  29.7003870  83.0086800  55.0746820
  30.0096930  89.4030710  57.3702130  29.3673090  88.7486330  57.6445850
  29.6227590  89.8085800  56.5942800  25.5883410  86.7316140  61.2173820
  25.9407230  86.1344270  60.5575190  24.7045740  86.4060370  61.3882070
  21.6746690  87.4913830  58.6244230  22.3617820  88.0383040  59.0051820
  20.8879110  88.0354560  58.6593840  13.8139090  83.1086650  54.1161310
  14.6833940  83.3911450  54.3997230  13.3229410  83.9222520  54.0010120
  20.9773900  84.4959860  58.2369590  21.4336680  85.3065110  58.4629780
  20.6262110  84.1783000  59.0688080  23.2806510  90.0066200  65.4661890
  23.9248730  90.2125580  66.1435310  23.6435950  89.2454600  65.0132740
  16.8785680  74.8397510  58.7092110  16.7500310  74.8315410  59.6577030
  16.0547700  75.1780600  58.3583120  24.5538590  88.0098550  64.1839340
  25.1960820  87.3091710  64.2971510  25.0787940  88.7896990  64.0036230
  28.3994310  88.2947170  53.9078480  28.1731890  87.5777610  54.5003120
  28.0090510  88.0459610  53.0700230  27.9810560  86.2119110  55.5692640
  27.6932260  86.6731800  56.3570520  28.7762730  85.7516880  55.8376860
  20.1978960  89.7045230  55.4996610  20.1889060  90.4374920  54.8841120
  19.2777320  89.4576810  55.5923570  15.7985600  84.9260120  56.2443370
  15.1913550  85.6659020  56.2538670  16.2734950  85.0159480  55.4181570
  25.3718390  79.0910940  65.9200260  25.7399210  78.2706150  66.2479830
  24.5116590  79.1512830  66.3355910  28.7380420  78.0467880  56.7287820
  28.1093580  78.1513550  56.0146050  28.2432340  78.2664660  57.5181700
  23.1838560  89.7673470  54.1621800  23.2850540  89.5637460  53.2323780
  22.2840300  89.5131750  54.3669580  20.7064450  80.3253830  58.1445700
  19.9980600  80.7940170  58.5859310  20.9908930  79.6675840  58.7790890
  24.7379880  77.0504490  59.5841490  24.6147660  77.0690620  58.6351000
  25.6864440  77.0983430  59.7039890  18.9099470  78.6338910  55.5196410
  19.7590000  79.0709060  55.4536600  18.5430740  78.9459170  56.3468470
  27.8309250  83.2051670  60.4327980  26.8899390  83.2201900  60.6075670
  28.1453320  82.4187630  60.8788280  17.8090890  84.8871270  53.9931940
  18.5754160  84.7752630  54.5557370  17.8865580  84.1909240  53.3408710
  16.5037650  82.3196340  54.6764830  16.5841240  81.3723850  54.7882230
  17.3957400  82.6503220  54.7825490  14.1897840  88.5365300  57.6540880
  13.2637620  88.7786440  57.6446290  14.6554270  89.3639560  57.5325630
  20.9332070  86.8625450  53.4667290  20.8282710  86.2477800  54.1928670
  20.7656290  86.3391340  52.6830300  24.1734800  85.9245480  54.0709280
  23.6244900  86.3714780  54.7152020  24.7954060  85.4194730  54.5946950
  19.8409920  84.8836400  55.9674580  20.2626340  84.7176270  56.8105970
  19.9660760  84.0736630  55.4729720  22.3537560  83.9074010  53.2151680
  22.8743220  83.1923030  52.8492830  23.0005960  84.5459880  53.5152190
  21.2571080  76.3868560  65.8870240  20.8088380  76.4092820  65.0415790
  20.6236280  75.9887580  66.4840540  21.6630630  85.2822890  66.5082680
  22.0818740  86.1255620  66.3358920  20.7439260  85.4194930  66.2789460
  18.7368820  80.9569630  52.9132740  18.5357880  80.0936990  53.2746080
  18.5660870  80.8702990  51.9754340  26.2157130  75.7677860  55.4419620
  26.4959420  74.9245760  55.7979040  25.4422860  76.0000970  55.9558370
  17.5351620  78.0570250  52.9010620  17.8377520  78.0637680  51.9929770
  18.2746210  77.7068110  53.3978280  20.7536550  77.0004870  53.8866820
  20.4058550  76.3228860  53.3069270  20.9549320  76.5394380  54.7010210
  16.5581750  87.3612670  53.7340420  16.9956620  87.9042340  54.3898000
  17.0429480  86.5359620  53.7436760  13.7727550  90.1501700  61.1860680
  14.1030560  89.2822760  60.9539320  14.2018550  90.3560220  62.0165640
  18.3689470  88.4810710  58.8462650  18.0685010  88.3575680  59.7466560
  18.2626960  87.6219300  58.4378380  31.1381390  88.2607110  53.5489330
  30.3074350  88.3283760  54.0196560  31.3153220  89.1511230  53.2456190
  30.5937850  85.0054590  56.0523530  31.3556760  85.5751240  56.1583220
  30.6092220  84.4381790  56.8231840  14.0942190  83.5292520  60.2831190
  13.4391030  83.2604160  59.6390890  14.9320140  83.4197000  59.8333170
  31.5997820  85.8604690  60.8965460  31.9706650  85.0772010  60.4901430
  32.2399750  86.5493790  60.7182760  30.6457020  85.2988960  53.2096050
  30.9205860  86.2067840  53.0815270  30.4567760  85.2351490  54.1458040
  27.0432630  78.3233810  54.5049680  27.4617510  78.1364790  53.6646340
  26.7368690  77.4712860  54.8152610  30.5422360  83.2357950  58.2025480
  30.1665960  82.4685880  57.7706770  29.8125480  83.6180650  58.6900410
  15.1318120  83.9145090  64.8234530  15.4991160  83.8272490  65.7030550
  14.5628940  83.1511640  64.7241390  13.3080270  80.7391450  56.2256520
  12.4044350  81.0021650  56.0508180  13.7920890  81.0102620  55.4456480
  29.8173320  81.4615440  61.5032720  30.3410800  80.9678090  60.8722890
  30.4032740  81.5965800  62.2480290  29.9963040  81.5455310  65.0252270
  29.0465750  81.5118850  65.1397260  30.1776050  82.4555420  64.7902040
  15.8507480  79.7956990  54.1350900  16.5599180  79.3740210  53.6498180
  15.1347420  79.8632220  53.5034250  15.4981640  75.8496320  53.1753550
  16.2209770  76.3905260  53.4934770  15.7706160  75.5759740  52.2995090
  29.3073290  80.7188790  57.4425130  29.8032410  80.4859660  58.2274010
  29.1089360  79.8800630  57.0262770  15.1873830  75.1002510  63.0776170
  15.8350020  74.5499890  62.6371330  15.6075670  75.3545660  63.8991980
  30.7360450  79.3549740  59.9762810  30.6259730  79.2005780  60.9145080
  31.4968040  78.8270680  59.7338220  31.6250720  77.1857660  53.2168950
  32.5500030  77.0538840  53.0087240  31.6026510  77.2650480  54.1705400
  31.6989210  77.9568320  55.8425660  30.9040710  77.8913440  56.3718570
  31.9032490  78.8918960  55.8311010  20.2476230  89.9837370  65.5864400
  20.0067590  90.2511930  64.6994920  21.1878870  90.1543100  65.6415260
  25.8313250  74.6672260  65.3082490  24.9573090  75.0007370  65.1055420
  25.7224000  74.1945440  66.1334360  16.0170460  88.7398410  66.0560500
  15.2904520  88.1203700  65.9886450  16.0779610  89.1339020  65.1858580
  23.5788070  75.5842100  64.2475400  22.7959860  76.0587600  64.5272160
  23.2851000  74.6796930  64.1388580  28.1309140  76.2865200  62.2924490
  28.5717230  76.2310300  61.4446090  27.8616730  77.2023210  62.3634670
  29.9947710  75.9180440  60.3033310  29.9336110  74.9741660  60.1564330
  30.7739740  76.0260530  60.8486770  14.9228480  75.8889580  56.7689120
  15.6807840  76.0018460  56.1953150  14.4605650  76.7258780  56.7232550
  21.4642290  78.0028850  59.7591430  20.6516800  77.6285740  59.4187310
  21.9683930  77.2473930  60.0612620  25.9667270  74.6671300  60.9974500
  26.5696640  75.2391510  61.4723020  25.2260260  75.2310740  60.7748400
  29.1101870  75.0692860  56.2714780  29.3052500  75.9676310  56.5382210
  28.3231740  74.8379940  56.7647730  17.2953630  76.4153630  55.3091090
  17.8246390  75.6283430  55.1799040  17.9281950  77.0944820  55.5426620
  19.4891470  76.1528770  58.3636480  18.8594210  75.4516080  58.5306610
  18.9496610  76.9132900  58.1469640  17.6670920  88.8153140  55.5902980
  17.0379800  89.2838240  56.1388810  17.7818750  87.9702360  56.0249170
  25.1220640  82.8658800  41.7404180  25.0414690  81.9513410  41.4695890
  24.7085060  83.3625870  41.0343890  23.2538680  84.6437820  43.6213450
  22.4780780  84.1638260  43.9112020  23.9051610  83.9643470  43.4469610
  17.2704510  84.9557630  44.4989210  16.4389390  84.7006340  44.8985720
  17.8785490  85.0268400  45.2347130  27.2746110  89.0498010  42.4012580
  26.8127640  88.2785250  42.7299750  28.0871660  89.0764080  42.9065030
  17.2505770  88.9897720  44.6947230  17.5533810  88.0995460  44.5157450
  17.9949360  89.5467940  44.4669480  15.6796460  79.9159520  38.2831600
  14.7913160  80.2575490  38.1811480  15.9637650  79.7159840  37.3912430
  13.6429470  82.5165170  44.1671300  14.2145580  81.7487370  44.1674940
  13.6431010  82.8153930  43.2577910  22.6947670  87.3195010  43.6283610
  22.6255950  86.3784950  43.4672740  23.4567530  87.4096420  44.2006180
  14.8854340  77.9249530  45.9540230  14.7057180  77.0275280  46.2342990
  14.4834420  78.4721400  46.6287180  23.7252840  80.1265390  43.8552540
  24.1017660  79.2537270  43.7426210  23.6272350  80.4624090  42.9642980
  17.8557850  78.4991020  39.3169980  17.9624600  79.3994750  39.6238740
  16.9450210  78.4508990  39.0264630  27.5076960  77.6215830  40.7880880
  28.3286580  77.1312400  40.8306360  27.5411040  78.2113490  41.5412720
  15.5041010  80.4210030  44.5622570  16.1851120  80.6848400  45.1809970
  15.1889060  79.5810900  44.8960580  19.6965580  81.4677390  43.6495160
  20.2043800  81.9658360  44.2900180  20.2278820  80.6912590  43.4734520
  31.7976510  79.6382580  47.3524510  31.0928680  80.0264290  46.8339620
  32.0634430  80.3332870  47.9545440  17.9801680  76.1075950  47.9158580
  17.9820120  76.6248340  47.1104480  17.1505990  75.6306130  47.8928510
  24.3672770  86.2195260  39.4148480  23.7490040  86.6844710  38.8511200
  24.8796020  86.9122740  39.8317990  19.2304530  85.7471130  46.0932080
  18.8973910  86.3740050  46.7353150  19.4071210  86.2733010  45.3133750
  27.7438440  79.5616210  43.5608420  27.0394010  79.8501100  44.1411530
  28.1050600  80.3716320  43.2007980  17.6617010  77.8185910  45.9229030
  18.0033820  78.6627960  45.6282900  16.7232820  77.9669650  46.0394370
  18.4423630  87.7151930  47.9081260  19.0597630  88.3903010  47.6265710
  17.5816750  88.1239910  47.8168760  13.7355970  86.9051790  36.7888110
  13.3583950  87.3938890  36.0573010  13.9929040  87.5777070  37.4194640
  29.3601220  89.1791340  45.8235900  28.6764740  89.8490450  45.8152570
  29.8995510  89.3771990  45.0580760  30.8125360  79.0071000  43.9517630
  29.8650270  79.0409980  44.0833060  31.1375350  79.8209950  44.3366990
  21.3444900  75.3068180  42.2473620  21.6519880  74.7515070  41.5309120
  20.4145600  75.4412640  42.0646610  28.1905380  87.7451690  39.6271250
  28.0801710  86.8026020  39.7520670  28.1873630  88.1067330  40.5134010
  26.2945400  85.9265310  45.8663690  26.7114190  85.7125420  45.0317150
  27.0185220  86.1838100  46.4372310  23.7325660  83.3717010  38.9833740
  22.8054940  83.3054390  39.2122210  23.8850480  84.3097140  38.8688980
  23.7194740  79.6434010  35.9800900  22.7798410  79.8047970  36.0653360
  24.0378000  80.3619690  35.4336890  30.2407500  84.3252530  45.9579930
  29.4126130  84.3945620  45.4830060  30.8357980  84.9106840  45.4895760
  27.7622950  84.9337310  39.4868990  27.1435370  84.5956860  38.8395290
  27.7447400  84.2897070  40.1948180  27.2049510  81.1121850  46.9034800
  26.7920690  81.9375560  47.1574790  26.4725460  80.5266890  46.7111160
  19.3382300  83.8981750  41.7653470  18.9339300  83.1859000  41.2699370
  19.4245420  83.5534990  42.6541510  19.8064000  87.5849310  43.9292680
  19.5092290  86.9794780  43.2500460  20.7563820  87.6226620  43.8182040
  18.0510920  80.6724960  45.5452510  18.6025510  80.7820300  44.7705760
  18.5654430  81.0462560  46.2607740  18.8982430  87.3231000  50.5800480
  18.0010960  87.5470970  50.8273880  18.9235300  87.4465940  49.6311880
  25.9387650  84.1724120  36.4941740  26.3780930  83.3346550  36.3479560
  26.6516070  84.8053520  36.5805880  17.7253650  84.1944320  49.1557850
  17.5861420  85.0667120  49.5245250  16.8435010  83.8517130  49.0105790
  24.0483030  89.1120190  40.4622980  24.4878940  89.8544520  40.0478370
  23.9869920  89.3546760  41.3861940  19.5234000  90.1366020  51.3643000
  19.4949430  90.5408970  50.4971430  19.3598970  89.2076380  51.2014600
  29.5204790  75.4266930  34.8082780  29.2077450  75.5193760  35.7081850
  30.2817260  76.0047960  34.7580210  16.0386930  82.7926730  39.2660120
  15.9184530  83.5188820  38.6541390  15.7287820  82.0229640  38.7888030
  13.6772300  85.9641870  45.0728760  13.7552720  86.0990640  44.1284480
  14.2913980  85.2557760  45.2656880  14.9219930  87.6642060  41.4834940
  14.5148010  87.8056650  40.6288540  15.8132940  87.3802220  41.2806150
  30.8782070  88.1105970  49.8207180  31.0045130  87.8717850  48.9024360
  30.9203450  87.2790510  50.2929260  26.4179340  89.6076870  36.3783990
  25.7244500  89.6054160  35.7186270  27.1602200  89.1836190  35.9478160
  30.7306080  80.1638430  50.7856920  30.1150350  80.6718100  50.2572380
  30.4102500  79.2636760  50.7282860  13.7331820  87.0056040  47.6123220
  13.8962860  86.5361400  46.7942590  14.1984270  86.4979600  48.2772060
  18.5050590  76.1361800  42.6483790  18.0618740  76.9171340  42.3168310
  19.0635580  76.4591690  43.3554730  22.7920400  79.0030320  48.2519110
  22.3299770  79.2113340  49.0639050  22.3898510  78.1889670  47.9489780
  27.7924910  80.2239270  49.3815770  26.9418500  79.9245020  49.7024840
  27.6326700  80.4681280  48.4699590  24.8874620  81.7241020  51.4814560
  25.2128030  80.8904770  51.1416790  25.6754950  82.2469540  51.6292890
  21.6209410  75.7572500  37.5289620  20.9963590  75.7532370  38.2542930
  21.5339530  74.8903460  37.1325590  20.5426490  76.6809130  44.5073390
  20.8398820  77.5871960  44.4265410  21.0912050  76.1927910  43.8932960
  18.2964810  81.2595370  40.3765040  18.0705730  81.0432540  41.2811660
  17.5157340  81.6923830  40.0311010  25.5262570  81.2658740  38.9755690
  24.9271460  81.9894540  38.7919310  26.0742180  81.2035520  38.1932140
  20.7364020  82.1580950  51.0425310  20.6407620  81.2175680  50.8925710
  21.5796000  82.3796020  50.6473380  24.1327440  79.9022280  41.0058970
  24.5257010  80.2194480  40.1927660  24.4944290  79.0234160  41.1203490
  15.8674560  78.5694620  49.1959090  15.4737950  79.4169830  49.4031870
  15.1792960  77.9320990  49.3867730  22.4419610  78.6529590  52.2655830
  21.7517930  78.4601790  52.9001920  23.1851910  78.9364230  52.7980130
  13.1691610  76.4923080  43.2289170  12.8804660  77.0625940  43.9414150
  13.9137370  76.0127530  43.5920400  13.3561840  80.4343200  34.4391890
  13.2736510  81.3773960  34.5806880  13.0044900  80.2918110  33.5604240
  24.7182580  82.4928030  45.1009750  23.9863700  83.0014840  45.4499850
  24.3206920  81.6758010  44.7998530  21.1559970  79.1682230  43.5062240
  21.1596030  78.7272180  42.6566780  22.0511090  79.4899560  43.6134060
  17.0062350  79.0508720  42.4656450  16.6662400  79.5283950  43.2223500
  16.2439670  78.5973840  42.1057550  21.2180120  80.1694310  36.4969000
  21.3392940  80.1280790  37.4454820  20.8328630  81.0318460  36.3415730
  25.1808490  77.9461710  44.5132690  25.1981230  78.3970360  45.3574540
  24.9324070  77.0467350  44.7266130  20.2301620  82.4795450  35.8952300
  19.6618520  82.0313700  35.2688210  20.9390620  82.8388230  35.3617450
  28.6079240  75.3593890  50.3519070  28.9325010  74.6283550  50.8777050
  28.6435750  75.0407530  49.4500060  15.3070800  86.3807470  49.7719030
  14.9225590  85.7401140  50.3701990  15.6182990  87.0843590  50.3413760
  21.4567940  83.2284010  45.2527650  21.8238070  82.7542580  45.9988990
  21.2673000  84.1025580  45.5935990  14.3208430  77.9727700  41.3821120
  14.0355350  77.6083370  42.2199740  14.2587290  77.2408160  40.7684260
  19.2467310  82.2692650  47.5711860  18.9424380  83.1484630  47.7962220
  20.2013770  82.3292440  47.6069300  17.7749100  86.4753640  38.1678710
  17.0011360  85.9351260  38.0077430  18.5043730  85.9560250  37.8296470
  28.5337080  85.4719000  43.9605100  29.2536200  85.9674290  43.5701210
  28.3318900  84.7936890  43.3158970  23.9947020  76.8656960  38.1034490
  23.1811630  76.3670130  38.0279800  23.8008970  77.7055210  37.6870840
  23.9155880  85.5428060  49.8474100  23.8493190  84.6223730  49.5931690
  23.2861020  85.6403500  50.5618740  26.7095410  81.2376610  36.3996650
  27.5975030  81.5493840  36.2247990  26.6800500  80.3648860  36.0077230
  17.8186500  86.1434020  41.8057520  18.3365170  85.3402280  41.7514410
  17.3670520  86.0813160  42.6474350  22.7056000  87.4100300  37.0784820
  23.0471700  88.1542530  36.5828140  21.8768710  87.7231420  37.4409650
  15.3031040  83.1095390  48.7183220  14.9445980  83.7749240  49.3056560
  15.0085600  82.2778940  49.0895840  18.5044160  83.5679630  51.6022770
  18.2044300  83.7136810  50.7050590  19.2755400  83.0084920  51.5096160
  23.8472610  88.3648630  49.5977900  23.8617150  87.4329590  49.3796810
  23.1397710  88.4508390  50.2367670  28.9809680  82.5488450  35.8676510
  28.8973400  82.9802670  35.0172950  29.7003870  83.0086800  36.3003330
  30.0583820  85.0055970  48.9446480  29.3332010  85.5984750  48.7475870
  30.5859280  84.9979510  48.1459850  30.0096930  89.4030710  38.5958640
  29.3673090  88.7486330  38.8702360  29.6227590  89.8085800  37.8199310
  25.5883410  86.7316140  42.4430330  25.9407230  86.1344270  41.7831700
  24.7045740  86.4060370  42.6138580  21.6746690  87.4913830  39.8500740
  22.3617820  88.0383040  40.2308330  20.8879110  88.0354560  39.8850350
  13.8139090  83.1086650  35.3417820  14.6833940  83.3911450  35.6253740
  13.3229410  83.9222520  35.2266630  20.9773900  84.4959860  39.4626100
  21.4336680  85.3065110  39.6886290  20.6262110  84.1783000  40.2944590
  23.2806510  90.0066200  46.6918400  23.9248730  90.2125580  47.3691820
  23.6435950  89.2454600  46.2389250  16.8785680  74.8397510  39.9348620
  16.7500310  74.8315410  40.8833540  16.0547700  75.1780600  39.5839630
  24.5538590  88.0098550  45.4095850  25.1960820  87.3091710  45.5228020
  25.0787940  88.7896990  45.2292740  28.3994310  88.2947170  35.1334990
  28.1731890  87.5777610  35.7259630  28.0090510  88.0459610  34.2956740
  26.3276210  88.8093450  48.6131910  26.6632450  89.3960140  49.2909830
  25.4076550  88.6786160  48.8429700  13.8779610  76.5988630  49.3955320
  13.1638130  76.7985550  50.0007930  14.2974650  75.8228200  49.7670120
  27.9810560  86.2119110  36.7949150  27.6932260  86.6731800  37.5827030
  28.7762730  85.7516880  37.0633370  14.1652200  90.5868890  50.3821850
  14.2743320  89.6463630  50.2417240  13.5132760  90.8523640  49.7335580
  22.1564790  88.8584780  51.7819970  21.8361660  88.1394020  52.3265660
  21.4823150  89.5339850  51.8556030  20.1978960  89.7045230  36.7253120
  20.1889060  90.4374920  36.1097630  19.2777320  89.4576810  36.8180080
  15.7985600  84.9260120  37.4699880  15.1913550  85.6659020  37.4795180
  16.2734950  85.0159480  36.6438080  25.3718390  79.0910940  47.1456770
  25.7399210  78.2706150  47.4736340  24.5116590  79.1512830  47.5612420
  28.7380420  78.0467880  37.9544330  28.1093580  78.1513550  37.2402560
  28.2432340  78.2664660  38.7438210  23.1838560  89.7673470  35.3878310
  23.2850540  89.5637460  34.4580290  22.2840300  89.5131750  35.5926090
  20.7064450  80.3253830  39.3702210  19.9980600  80.7940170  39.8115820
  20.9908930  79.6675840  40.0047400  22.3320380  81.7450530  47.3694740
  22.8305630  82.2196350  48.0346590  22.4743330  80.8214050  47.5764770
  24.7379880  77.0504490  40.8098000  24.6147660  77.0690620  39.8607510
  25.6864440  77.0983430  40.9296400  18.9099470  78.6338910  36.7452920
  19.7590000  79.0709060  36.6793110  18.5430740  78.9459170  37.5724980
  29.5387240  77.9618490  48.2123130  29.0360840  78.7023890  48.5516940
  30.3543900  78.3502490  47.8959920  27.8309250  83.2051670  41.6584490
  26.8899390  83.2201900  41.8332180  28.1453320  82.4187630  42.1044790
  17.8090890  84.8871270  35.2188450  18.5754160  84.7752630  35.7813880
  17.8865580  84.1909240  34.5665220  16.5037650  82.3196340  35.9021340
  16.5841240  81.3723850  36.0138740  17.3957400  82.6503220  36.0082000
  14.1897840  88.5365300  38.8797390  13.2637620  88.7786440  38.8702800
  14.6554270  89.3639560  38.7582140  25.1475270  87.7617670  52.1416870
  24.5413430  87.7849270  51.4012620  24.8429380  87.0300710  52.6784120
  14.0308450  84.1411260  51.1377510  14.5347470  83.5618540  51.7093740
  13.2915870  84.4251490  51.6753880  20.9332070  86.8625450  34.6923800
  20.8282710  86.2477800  35.4185180  20.7656290  86.3391340  33.9086810
  21.0846390  85.5482250  50.6713030  20.3192060  86.1167250  50.5867700
  21.2662350  85.2558460  49.7781260  24.1734800  85.9245480  35.2965790
  23.6244900  86.3714780  35.9408530  24.7954060  85.4194730  35.8203460
  28.2269740  87.2787580  51.2288050  28.9679210  87.6163340  50.7255510
  27.4642420  87.4479640  50.6757820  16.0631530  82.2840850  52.0327580
  16.1036870  81.9854720  52.9412810  16.9177030  82.6848460  51.8735100
  19.8409920  84.8836400  37.1931090  20.2626340  84.7176270  38.0362480
  19.9660760  84.0736630  36.6986230  18.0037340  80.8632950  50.0002070
  17.4733800  80.3723900  49.3725410  18.6725410  81.2917150  49.4660000
  22.3537560  83.9074010  34.4408190  22.8743220  83.1923030  34.0749340
  23.0005960  84.5459880  34.7408700  26.9015400  85.3302410  49.7643260
  27.3156420  85.4847490  50.6133680  25.9666400  85.4557630  49.9269040
  27.3737570  82.6698570  51.7682410  27.9558340  81.9150890  51.6802890
  27.5499340  83.2006010  50.9913890  18.4909640  77.8295320  50.0799360
  18.3966510  77.2116070  49.3550230  17.9107030  78.5561610  49.8529270
  21.2571080  76.3868560  47.1126750  20.8088380  76.4092820  46.2672300
  20.6236280  75.9887580  47.7097050  21.6630630  85.2822890  47.7339190
  22.0818740  86.1255620  47.5615430  20.7439260  85.4194930  47.5045970
  23.9994530  83.0139070  49.1177030  24.1190740  82.4180210  49.8571870
  24.8588530  83.0508760  48.6978330  26.3382430  83.5676260  47.6939540
  25.8117650  84.0918880  47.0904680  26.6813770  84.2003650  48.3249270
  18.7368820  80.9569630  34.1389250  18.5357880  80.0936990  34.5002590
  18.5660870  80.8702990  33.2010850  20.7663300  79.5560420  50.3752850
  21.3562990  79.2476270  51.0630670  19.9483540  79.0840170  50.5312750
  25.5856730  79.1726230  50.6085870  24.8972250  78.5107770  50.5435860
  26.3062750  78.7264500  51.0534330  26.2157130  75.7677860  36.6676130
  26.4959420  74.9245760  37.0235550  25.4422860  76.0000970  37.1814880
  17.5351620  78.0570250  34.1267130  17.8377520  78.0637680  33.2186280
  18.2746210  77.7068110  34.6234790  20.7536550  77.0004870  35.1123330
  20.4058550  76.3228860  34.5325780  20.9549320  76.5394380  35.9266720
  16.5581750  87.3612670  34.9596930  16.9956620  87.9042340  35.6154510
  17.0429480  86.5359620  34.9693270  13.7727550  90.1501700  42.4117190
  14.1030560  89.2822760  42.1795830  14.2018550  90.3560220  43.2422150
  18.3689470  88.4810710  40.0719160  18.0685010  88.3575680  40.9723070
  18.2626960  87.6219300  39.6634890  29.8979940  90.5189290  49.4376130
  29.2981930  90.5781850  48.6940050  30.0273840  89.5794270  49.5672980
  31.1381390  88.2607110  34.7745840  30.3074350  88.3283760  35.2453070
  31.3153220  89.1511230  34.4712700  30.5937850  85.0054590  37.2780040
  31.3556760  85.5751240  37.3839730  30.6092220  84.4381790  38.0488350
  14.0942190  83.5292520  41.5087700  13.4391030  83.2604160  40.8647400
  14.9320140  83.4197000  41.0589680  31.5997820  85.8604690  42.1221970
  31.9706650  85.0772010  41.7157940  32.2399750  86.5493790  41.9439270
  28.5831580  87.2441270  47.5352290  27.7691420  87.6738430  47.7978080
  28.9905780  87.8559680  46.9221340  30.6457020  85.2988960  34.4352560
  30.9205860  86.2067840  34.3071780  30.4567760  85.2351490  35.3714550
  27.0432630  78.3233810  35.7306190  27.4617510  78.1364790  34.8902850
  26.7368690  77.4712860  36.0409120  30.5422360  83.2357950  39.4281990
  30.1665960  82.4685880  38.9963280  29.8125480  83.6180650  39.9156920
  15.1318120  83.9145090  46.0491040  15.4991160  83.8272490  46.9287060
  14.5628940  83.1511640  45.9497900  29.9321980  82.3829470  49.0621510
  29.7008070  82.1542220  48.1619460  30.1926530  83.3029020  49.0166400
  14.6834120  80.8254180  49.9549460  13.7890170  80.7920940  50.2943170
  15.2231670  81.0240970  50.7200710  28.3710050  77.6085900  51.8401210
  29.2480230  77.6169300  52.2235210  28.3830890  76.8716740  51.2293560
  13.3080270  80.7391450  37.4513030  12.4044350  81.0021650  37.2764690
  13.7920890  81.0102620  36.6712990  29.8173320  81.4615440  42.7289230
  30.3410800  80.9678090  42.0979400  30.4032740  81.5965800  43.4736800
  29.9963040  81.5455310  46.2508780  29.0465750  81.5118850  46.3653770
  30.1776050  82.4555420  46.0158550  15.8507480  79.7956990  35.3607410
  16.5599180  79.3740210  34.8754690  15.1347420  79.8632220  34.7290760
  15.4981640  75.8496320  34.4010060  16.2209770  76.3905260  34.7191280
  15.7706160  75.5759740  33.5251600  29.3073290  80.7188790  38.6681640
  29.8032410  80.4859660  39.4530520  29.1089360  79.8800630  38.2519280
  15.1873830  75.1002510  44.3032680  15.8350020  74.5499890  43.8627840
  15.6075670  75.3545660  45.1248490  30.7360450  79.3549740  41.2019320
  30.6259730  79.2005780  42.1401590  31.4968040  78.8270680  40.9594730
  29.0826170  75.2943870  47.6602320  29.7198390  75.9078010  48.0261510
  29.2301060  75.3304530  46.7151550  31.6250720  77.1857660  34.4425460
  32.5500030  77.0538840  34.2343750  31.6026510  77.2650480  35.3961910
  31.6989210  77.9568320  37.0682170  30.9040710  77.8913440  37.5975080
  31.9032490  78.8918960  37.0567520  14.9405830  75.2558180  47.0458000
  14.5920650  75.7122000  47.8116180  14.6093530  74.3615310  47.1280430
  16.5470200  88.4277780  51.2111190  16.5039830  88.0570690  52.0925650
  16.6781210  89.3655350  51.3513010  20.2476230  89.9837370  46.8120910
  20.0067590  90.2511930  45.9251430  21.1878870  90.1543100  46.8671770
  22.4530650  76.4470060  50.5677420  22.3919540  77.0391890  51.3172830
  23.3931030  76.3396020  50.4227680  25.0905210  76.1040120  50.2069710
  25.7045620  76.4219410  49.5450790  25.6354770  75.6188710  50.8265570
  15.6126470  74.7834380  50.3208770  16.1609460  74.6022430  49.5574880
  15.6781780  73.9928490  50.8565080  25.8313250  74.6672260  46.5339000
  24.9573090  75.0007370  46.3311930  25.7224000  74.1945440  47.3590870
  26.7385230  76.8743130  47.9180720  26.4098590  76.0594890  47.5382450
  27.6867530  76.8312940  47.7946410  16.0170460  88.7398410  47.2817010
  15.2904520  88.1203700  47.2142960  16.0779610  89.1339020  46.4115090
  23.5788070  75.5842100  45.4731910  22.7959860  76.0587600  45.7528670
  23.2851000  74.6796930  45.3645090  28.1309140  76.2865200  43.5181000
  28.5717230  76.2310300  42.6702600  27.8616730  77.2023210  43.5891180
  29.9947710  75.9180440  41.5289820  29.9336110  74.9741660  41.3820840
  30.7739740  76.0260530  42.0743280  14.9228480  75.8889580  37.9945630
  15.6807840  76.0018460  37.4209660  14.4605650  76.7258780  37.9489060
  21.4642290  78.0028850  40.9847940  20.6516800  77.6285740  40.6443820
  21.9683930  77.2473930  41.2869130  25.9667270  74.6671300  42.2231010
  26.5696640  75.2391510  42.6979530  25.2260260  75.2310740  42.0004910
  29.1101870  75.0692860  37.4971290  29.3052500  75.9676310  37.7638720
  28.3231740  74.8379940  37.9904240  17.2953630  76.4153630  36.5347600
  17.8246390  75.6283430  36.4055550  17.9281950  77.0944820  36.7683130
  19.4891470  76.1528770  39.5892990  18.8594210  75.4516080  39.7563120
  18.9496610  76.9132900  39.3726150  19.6147030  75.4312750  52.0245480
  19.3331300  75.9346350  51.2606300  19.9966730  74.6334500  51.6587610
  17.6670920  88.8153140  36.8159490  17.0379800  89.2838240  37.3645320
  17.7818750  87.9702360  37.2505680  26.2162490  74.8466330  52.6025950
  26.1027940  75.1660940  53.4977470  27.0332230  75.2478840  52.3063230
  25.1220640  82.8658800  22.9660690  25.0414690  81.9513410  22.6952400
  24.7085060  83.3625870  22.2600400  23.2538680  84.6437820  24.8469960
  22.4780780  84.1638260  25.1368530  23.9051610  83.9643470  24.6726120
  17.2704510  84.9557630  25.7245720  16.4389390  84.7006340  26.1242230
  17.8785490  85.0268400  26.4603640  27.2746110  89.0498010  23.6269090
  26.8127640  88.2785250  23.9556260  28.0871660  89.0764080  24.1321540
  17.2505770  88.9897720  25.9203740  17.5533810  88.0995460  25.7413960
  17.9949360  89.5467940  25.6925990  15.6796460  79.9159520  19.5088110
  14.7913160  80.2575490  19.4067990  15.9637650  79.7159840  18.6168940
  13.6429470  82.5165170  25.3927810  14.2145580  81.7487370  25.3931450
  13.6431010  82.8153930  24.4834420  22.6947670  87.3195010  24.8540120
  22.6255950  86.3784950  24.6929250  23.4567530  87.4096420  25.4262690
  14.8854340  77.9249530  27.1796740  14.7057180  77.0275280  27.4599500
  14.4834420  78.4721400  27.8543690  27.5076960  77.6215830  22.0137390
  28.3286580  77.1312400  22.0562870  27.5411040  78.2113490  22.7669230
  15.5041010  80.4210030  25.7879080  16.1851120  80.6848400  26.4066480
  15.1889060  79.5810900  26.1217090  19.6965580  81.4677390  24.8751670
  20.2043800  81.9658360  25.5156690  20.2278820  80.6912590  24.6991030
  31.7976510  79.6382580  28.5781020  31.0928680  80.0264290  28.0596130
  32.0634430  80.3332870  29.1801950  17.9801680  76.1075950  29.1415090
  17.9820120  76.6248340  28.3360990  17.1505990  75.6306130  29.1185020
  24.3672770  86.2195260  20.6404990  23.7490040  86.6844710  20.0767710
  24.8796020  86.9122740  21.0574500  19.2304530  85.7471130  27.3188590
  18.8973910  86.3740050  27.9609660  19.4071210  86.2733010  26.5390260
  17.6617010  77.8185910  27.1485540  18.0033820  78.6627960  26.8539410
  16.7232820  77.9669650  27.2650880  18.4423630  87.7151930  29.1337770
  19.0597630  88.3903010  28.8522220  17.5816750  88.1239910  29.0425270
  13.7355970  86.9051790  18.0144620  13.3583950  87.3938890  17.2829520
  13.9929040  87.5777070  18.6451150  29.3601220  89.1791340  27.0492410
  28.6764740  89.8490450  27.0409080  29.8995510  89.3771990  26.2837270
  30.8125360  79.0071000  25.1774140  29.8650270  79.0409980  25.3089570
  31.1375350  79.8209950  25.5623500  28.1905380  87.7451690  20.8527760
  28.0801710  86.8026020  20.9777180  28.1873630  88.1067330  21.7390520
  26.2945400  85.9265310  27.0920200  26.7114190  85.7125420  26.2573660
  27.0185220  86.1838100  27.6628820  23.7325660  83.3717010  20.2090250
  22.8054940  83.3054390  20.4378720  23.8850480  84.3097140  20.0945490
  23.7194740  79.6434010  17.2057410  22.7798410  79.8047970  17.2909870
  24.0378000  80.3619690  16.6593400  30.2407500  84.3252530  27.1836440
  29.4126130  84.3945620  26.7086570  30.8357980  84.9106840  26.7152270
  27.7622950  84.9337310  20.7125500  27.1435370  84.5956860  20.0651800
  27.7447400  84.2897070  21.4204690  27.2049510  81.1121850  28.1291310
  26.7920690  81.9375560  28.3831300  26.4725460  80.5266890  27.9367670
  19.3382300  83.8981750  22.9909980  18.9339300  83.1859000  22.4955880
  19.4245420  83.5534990  23.8798020  19.8064000  87.5849310  25.1549190
  19.5092290  86.9794780  24.4756970  20.7563820  87.6226620  25.0438550
  18.0510920  80.6724960  26.7709020  18.6025510  80.7820300  25.9962270
  18.5654430  81.0462560  27.4864250  18.8982430  87.3231000  31.8056990
  18.0010960  87.5470970  32.0530390  18.9235300  87.4465940  30.8568390
  25.9387650  84.1724120  17.7198250  26.3780930  83.3346550  17.5736070
  26.6516070  84.8053520  17.8062390  17.7253650  84.1944320  30.3814360
  17.5861420  85.0667120  30.7501760  16.8435010  83.8517130  30.2362300
  24.0483030  89.1120190  21.6879490  24.4878940  89.8544520  21.2734880
  23.9869920  89.3546760  22.6118450  19.5234000  90.1366020  32.5899510
  19.4949430  90.5408970  31.7227940  19.3598970  89.2076380  32.4271110
  29.5204790  75.4266930  16.0339290  29.2077450  75.5193760  16.9338360
  30.2817260  76.0047960  15.9836720  16.0386930  82.7926730  20.4916630
  15.9184530  83.5188820  19.8797900  15.7287820  82.0229640  20.0144540
  13.6772300  85.9641870  26.2985270  13.7552720  86.0990640  25.3540990
  14.2913980  85.2557760  26.4913390  14.9219930  87.6642060  22.7091450
  14.5148010  87.8056650  21.8545050  15.8132940  87.3802220  22.5062660
  30.8782070  88.1105970  31.0463690  31.0045130  87.8717850  30.1280870
  30.9203450  87.2790510  31.5185770  26.4179340  89.6076870  17.6040500
  25.7244500  89.6054160  16.9442780  27.1602200  89.1836190  17.1734670
  30.7306080  80.1638430  32.0113430  30.1150350  80.6718100  31.4828890
  30.4102500  79.2636760  31.9539370  13.7331820  87.0056040  28.8379730
  13.8962860  86.5361400  28.0199100  14.1984270  86.4979600  29.5028570
  22.7920400  79.0030320  29.4775620  22.3299770  79.2113340  30.2895560
  22.3898510  78.1889670  29.1746290  27.7924910  80.2239270  30.6072280
  26.9418500  79.9245020  30.9281350  27.6326700  80.4681280  29.6956100
  24.8874620  81.7241020  32.7071070  25.2128030  80.8904770  32.3673300
  25.6754950  82.2469540  32.8549400  18.2964810  81.2595370  21.6021550
  18.0705730  81.0432540  22.5068170  17.5157340  81.6923830  21.2567520
  25.5262570  81.2658740  20.2012200  24.9271460  81.9894540  20.0175820
  26.0742180  81.2035520  19.4188650  20.7364020  82.1580950  32.2681820
  20.6407620  81.2175680  32.1182220  21.5796000  82.3796020  31.8729890
  24.1327440  79.9022280  22.2315480  24.5257010  80.2194480  21.4184170
  24.4944290  79.0234160  22.3460000  15.8674560  78.5694620  30.4215600
  15.4737950  79.4169830  30.6288380  15.1792960  77.9320990  30.6124240
  22.4419610  78.6529590  33.4912340  21.7517930  78.4601790  34.1258430
  23.1851910  78.9364230  34.0236640  13.1691610  76.4923080  24.4545680
  12.8804660  77.0625940  25.1670660  13.9137370  76.0127530  24.8176910
  13.3561840  80.4343200  15.6648400  13.2736510  81.3773960  15.8063390
  13.0044900  80.2918110  14.7860750  24.7182580  82.4928030  26.3266260
  23.9863700  83.0014840  26.6756360  24.3206920  81.6758010  26.0255040
  17.0062350  79.0508720  23.6912960  16.6662400  79.5283950  24.4480010
  16.2439670  78.5973840  23.3314060  21.2180120  80.1694310  17.7225510
  21.3392940  80.1280790  18.6711330  20.8328630  81.0318460  17.5672240
  20.2301620  82.4795450  17.1208810  19.6618520  82.0313700  16.4944720
  20.9390620  82.8388230  16.5873960  15.3070800  86.3807470  30.9975540
  14.9225590  85.7401140  31.5958500  15.6182990  87.0843590  31.5670270
  21.4567940  83.2284010  26.4784160  21.8238070  82.7542580  27.2245500
  21.2673000  84.1025580  26.8192500  19.2467310  82.2692650  28.7968370
  18.9424380  83.1484630  29.0218730  20.2013770  82.3292440  28.8325810
  17.7749100  86.4753640  19.3935220  17.0011360  85.9351260  19.2333940
  18.5043730  85.9560250  19.0552980  28.5337080  85.4719000  25.1861610
  29.2536200  85.9674290  24.7957720  28.3318900  84.7936890  24.5415480
  23.9155880  85.5428060  31.0730610  23.8493190  84.6223730  30.8188200
  23.2861020  85.6403500  31.7875250  26.7095410  81.2376610  17.6253160
  27.5975030  81.5493840  17.4504500  26.6800500  80.3648860  17.2333740
  17.8186500  86.1434020  23.0314030  18.3365170  85.3402280  22.9770920
  17.3670520  86.0813160  23.8730860  22.7056000  87.4100300  18.3041330
  23.0471700  88.1542530  17.8084650  21.8768710  87.7231420  18.6666160
  15.3031040  83.1095390  29.9439730  14.9445980  83.7749240  30.5313070
  15.0085600  82.2778940  30.3152350  18.5044160  83.5679630  32.8279280
  18.2044300  83.7136810  31.9307100  19.2755400  83.0084920  32.7352670
  23.8472610  88.3648630  30.8234410  23.8617150  87.4329590  30.6053320
  23.1397710  88.4508390  31.4624180  28.9809680  82.5488450  17.0933020
  28.8973400  82.9802670  16.2429460  29.7003870  83.0086800  17.5259840
  30.0583820  85.0055970  30.1702990  29.3332010  85.5984750  29.9732380
  30.5859280  84.9979510  29.3716360  30.0096930  89.4030710  19.8215150
  29.3673090  88.7486330  20.0958870  29.6227590  89.8085800  19.0455820
  25.5883410  86.7316140  23.6686840  25.9407230  86.1344270  23.0088210
  24.7045740  86.4060370  23.8395090  21.6746690  87.4913830  21.0757250
  22.3617820  88.0383040  21.4564840  20.8879110  88.0354560  21.1106860
  13.8139090  83.1086650  16.5674330  14.6833940  83.3911450  16.8510250
  13.3229410  83.9222520  16.4523140  20.9773900  84.4959860  20.6882610
  21.4336680  85.3065110  20.9142800  20.6262110  84.1783000  21.5201100
  23.2806510  90.0066200  27.9174910  23.9248730  90.2125580  28.5948330
  23.6435950  89.2454600  27.4645760  24.5538590  88.0098550  26.6352360
  25.1960820  87.3091710  26.7484530  25.0787940  88.7896990  26.4549250
  28.3994310  88.2947170  16.3591500  28.1731890  87.5777610  16.9516140
  28.0090510  88.0459610  15.5213250  26.3276210  88.8093450  29.8388420
  26.6632450  89.3960140  30.5166340  25.4076550  88.6786160  30.0686210
  13.8779610  76.5988630  30.6211830  13.1638130  76.7985550  31.2264440
  14.2974650  75.8228200  30.9926630  27.9810560  86.2119110  18.0205660
  27.6932260  86.6731800  18.8083540  28.7762730  85.7516880  18.2889880
  14.1652200  90.5868890  31.6078360  14.2743320  89.6463630  31.4673750
  13.5132760  90.8523640  30.9592090  22.1564790  88.8584780  33.0076480
  21.8361660  88.1394020  33.5522170  21.4823150  89.5339850  33.0812540
  20.1978960  89.7045230  17.9509630  20.1889060  90.4374920  17.3354140
  19.2777320  89.4576810  18.0436590  15.7985600  84.9260120  18.6956390
  15.1913550  85.6659020  18.7051690  16.2734950  85.0159480  17.8694590
  28.7380420  78.0467880  19.1800840  28.1093580  78.1513550  18.4659070
  28.2432340  78.2664660  19.9694720  23.1838560  89.7673470  16.6134820
  23.2850540  89.5637460  15.6836800  22.2840300  89.5131750  16.8182600
  20.7064450  80.3253830  20.5958720  19.9980600  80.7940170  21.0372330
  20.9908930  79.6675840  21.2303910  22.3320380  81.7450530  28.5951250
  22.8305630  82.2196350  29.2603100  22.4743330  80.8214050  28.8021280
  29.5387240  77.9618490  29.4379640  29.0360840  78.7023890  29.7773450
  30.3543900  78.3502490  29.1216430  27.8309250  83.2051670  22.8841000
  26.8899390  83.2201900  23.0588690  28.1453320  82.4187630  23.3301300
  17.8090890  84.8871270  16.4444960  18.5754160  84.7752630  17.0070390
  17.8865580  84.1909240  15.7921730  16.5037650  82.3196340  17.1277850
  16.5841240  81.3723850  17.2395250  17.3957400  82.6503220  17.2338510
  14.1897840  88.5365300  20.1053900  13.2637620  88.7786440  20.0959310
  14.6554270  89.3639560  19.9838650  25.1475270  87.7617670  33.3673380
  24.5413430  87.7849270  32.6269130  24.8429380  87.0300710  33.9040630
  14.0308450  84.1411260  32.3634020  14.5347470  83.5618540  32.9350250
  13.2915870  84.4251490  32.9010390  20.9332070  86.8625450  15.9180310
  20.8282710  86.2477800  16.6441690  20.7656290  86.3391340  15.1343320
  21.0846390  85.5482250  31.8969540  20.3192060  86.1167250  31.8124210
  21.2662350  85.2558460  31.0037770  24.1734800  85.9245480  16.5222300
  23.6244900  86.3714780  17.1665040  24.7954060  85.4194730  17.0459970
  28.2269740  87.2787580  32.4544560  28.9679210  87.6163340  31.9512020
  27.4642420  87.4479640  31.9014330  16.0631530  82.2840850  33.2584090
  16.1036870  81.9854720  34.1669320  16.9177030  82.6848460  33.0991610
  19.8409920  84.8836400  18.4187600  20.2626340  84.7176270  19.2618990
  19.9660760  84.0736630  17.9242740  18.0037340  80.8632950  31.2258580
  17.4733800  80.3723900  30.5981920  18.6725410  81.2917150  30.6916510
  22.3537560  83.9074010  15.6664700  22.8743220  83.1923030  15.3005850
  23.0005960  84.5459880  15.9665210  26.9015400  85.3302410  30.9899770
  27.3156420  85.4847490  31.8390190  25.9666400  85.4557630  31.1525550
  27.3737570  82.6698570  32.9938920  27.9558340  81.9150890  32.9059400
  27.5499340  83.2006010  32.2170400  18.4909640  77.8295320  31.3055870
  18.3966510  77.2116070  30.5806740  17.9107030  78.5561610  31.0785780
  21.2571080  76.3868560  28.3383260  20.8088380  76.4092820  27.4928810
  20.6236280  75.9887580  28.9353560  21.6630630  85.2822890  28.9595700
  22.0818740  86.1255620  28.7871940  20.7439260  85.4194930  28.7302480
  23.9994530  83.0139070  30.3433540  24.1190740  82.4180210  31.0828380
  24.8588530  83.0508760  29.9234840  26.3382430  83.5676260  28.9196050
  25.8117650  84.0918880  28.3161190  26.6813770  84.2003650  29.5505780
  18.7368820  80.9569630  15.3645760  18.5357880  80.0936990  15.7259100
  18.5660870  80.8702990  14.4267360  20.7663300  79.5560420  31.6009360
  21.3562990  79.2476270  32.2887180  19.9483540  79.0840170  31.7569260
  25.5856730  79.1726230  31.8342380  24.8972250  78.5107770  31.7692370
  26.3062750  78.7264500  32.2790840  26.2157130  75.7677860  17.8932640
  26.4959420  74.9245760  18.2492060  25.4422860  76.0000970  18.4071390
  16.5581750  87.3612670  16.1853440  16.9956620  87.9042340  16.8411020
  17.0429480  86.5359620  16.1949780  13.7727550  90.1501700  23.6373700
  14.1030560  89.2822760  23.4052340  14.2018550  90.3560220  24.4678660
  18.3689470  88.4810710  21.2975670  18.0685010  88.3575680  22.1979580
  18.2626960  87.6219300  20.8891400  29.8979940  90.5189290  30.6632640
  29.2981930  90.5781850  29.9196560  30.0273840  89.5794270  30.7929490
  31.1381390  88.2607110  16.0002350  30.3074350  88.3283760  16.4709580
  31.3153220  89.1511230  15.6969210  30.5937850  85.0054590  18.5036550
  31.3556760  85.5751240  18.6096240  30.6092220  84.4381790  19.2744860
  14.0942190  83.5292520  22.7344210  13.4391030  83.2604160  22.0903910
  14.9320140  83.4197000  22.2846190  31.5997820  85.8604690  23.3478480
  31.9706650  85.0772010  22.9414450  32.2399750  86.5493790  23.1695780
  28.5831580  87.2441270  28.7608800  27.7691420  87.6738430  29.0234590
  28.9905780  87.8559680  28.1477850  30.6457020  85.2988960  15.6609070
  30.9205860  86.2067840  15.5328290  30.4567760  85.2351490  16.5971060
  27.0432630  78.3233810  16.9562700  27.4617510  78.1364790  16.1159360
  26.7368690  77.4712860  17.2665630  30.5422360  83.2357950  20.6538500
  30.1665960  82.4685880  20.2219790  29.8125480  83.6180650  21.1413430
  15.1318120  83.9145090  27.2747550  15.4991160  83.8272490  28.1543570
  14.5628940  83.1511640  27.1754410  29.9321980  82.3829470  30.2878020
  29.7008070  82.1542220  29.3875970  30.1926530  83.3029020  30.2422910
  14.6834120  80.8254180  31.1805970  13.7890170  80.7920940  31.5199680
  15.2231670  81.0240970  31.9457220  28.3710050  77.6085900  33.0657720
  29.2480230  77.6169300  33.4491720  28.3830890  76.8716740  32.4550070
  13.3080270  80.7391450  18.6769540  12.4044350  81.0021650  18.5021200
  13.7920890  81.0102620  17.8969500  29.8173320  81.4615440  23.9545740
  30.3410800  80.9678090  23.3235910  30.4032740  81.5965800  24.6993310
  29.9963040  81.5455310  27.4765290  29.0465750  81.5118850  27.5910280
  30.1776050  82.4555420  27.2415060  15.8507480  79.7956990  16.5863920
  16.5599180  79.3740210  16.1011200  15.1347420  79.8632220  15.9547270
  15.4981640  75.8496320  15.6266570  16.2209770  76.3905260  15.9447790
  15.7706160  75.5759740  14.7508110  29.3073290  80.7188790  19.8938150
  29.8032410  80.4859660  20.6787030  29.1089360  79.8800630  19.4775790
  30.7360450  79.3549740  22.4275830  30.6259730  79.2005780  23.3658100
  31.4968040  78.8270680  22.1851240  31.6250720  77.1857660  15.6681970
  32.5500030  77.0538840  15.4600260  31.6026510  77.2650480  16.6218420
  31.6989210  77.9568320  18.2938680  30.9040710  77.8913440  18.8231590
  31.9032490  78.8918960  18.2824030  16.5470200  88.4277780  32.4367700
  16.5039830  88.0570690  33.3182160  16.6781210  89.3655350  32.5769520
  20.2476230  89.9837370  28.0377420  20.0067590  90.2511930  27.1507940
  21.1878870  90.1543100  28.0928280  22.4530650  76.4470060  31.7933930
  22.3919540  77.0391890  32.5429340  23.3931030  76.3396020  31.6484190
  25.0905210  76.1040120  31.4326220  25.7045620  76.4219410  30.7707300
  25.6354770  75.6188710  32.0522080  15.6126470  74.7834380  31.5465280
  16.1609460  74.6022430  30.7831390  15.6781780  73.9928490  32.0821590
  16.0170460  88.7398410  28.5073520  15.2904520  88.1203700  28.4399470
  16.0779610  89.1339020  27.6371600  29.1101870  75.0692860  18.7227800
  29.3052500  75.9676310  18.9895230  28.3231740  74.8379940  19.2160750
  19.6147030  75.4312750  33.2501990  19.3331300  75.9346350  32.4862810
  19.9966730  74.6334500  32.8844120  17.6670920  88.8153140  18.0416000
  17.0379800  89.2838240  18.5901830  17.7818750  87.9702360  18.4762190
  26.2162490  74.8466330  33.8282460  26.1027940  75.1660940  34.7233980
  27.0332230  75.2478840  33.5319740  25.1220640  82.8658800   4.1917200
  25.0414690  81.9513410   3.9208910  24.7085060  83.3625870   3.4856910
  23.2538680  84.6437820   6.0726470  22.4780780  84.1638260   6.3625040
  23.9051610  83.9643470   5.8982630  17.2704510  84.9557630   6.9502230
  16.4389390  84.7006340   7.3498740  17.8785490  85.0268400   7.6860150
  27.2746110  89.0498010   4.8525600  26.8127640  88.2785250   5.1812770
  28.0871660  89.0764080   5.3578050  17.2505770  88.9897720   7.1460250
  17.5533810  88.0995460   6.9670470  17.9949360  89.5467940   6.9182500
  13.6429470  82.5165170   6.6184320  14.2145580  81.7487370   6.6187960
  13.6431010  82.8153930   5.7090930  22.6947670  87.3195010   6.0796630
  22.6255950  86.3784950   5.9185760  23.4567530  87.4096420   6.6519200
  14.8854340  77.9249530   8.4053250  14.7057180  77.0275280   8.6856010
  14.4834420  78.4721400   9.0800200  23.7252840  80.1265390   6.3065560
  24.1017660  79.2537270   6.1939230  23.6272350  80.4624090   5.4156000
  17.8557850  78.4991020   1.7683000  17.9624600  79.3994750   2.0751760
  16.9450210  78.4508990   1.4777650  27.5076960  77.6215830   3.2393900
  28.3286580  77.1312400   3.2819380  27.5411040  78.2113490   3.9925740
  15.5041010  80.4210030   7.0135590  16.1851120  80.6848400   7.6322990
  15.1889060  79.5810900   7.3473600  19.6965580  81.4677390   6.1008180
  20.2043800  81.9658360   6.7413200  20.2278820  80.6912590   5.9247540
  31.7976510  79.6382580   9.8037530  31.0928680  80.0264290   9.2852640
  32.0634430  80.3332870  10.4058460  17.9801680  76.1075950  10.3671600
  17.9820120  76.6248340   9.5617500  17.1505990  75.6306130  10.3441530
  19.2304530  85.7471130   8.5445100  18.8973910  86.3740050   9.1866170
  19.4071210  86.2733010   7.7646770  27.7438440  79.5616210   6.0121440
  27.0394010  79.8501100   6.5924550  28.1050600  80.3716320   5.6521000
  17.6617010  77.8185910   8.3742050  18.0033820  78.6627960   8.0795920
  16.7232820  77.9669650   8.4907390  18.4423630  87.7151930  10.3594280
  19.0597630  88.3903010  10.0778730  17.5816750  88.1239910  10.2681780
  29.3601220  89.1791340   8.2748920  28.6764740  89.8490450   8.2665590
  29.8995510  89.3771990   7.5093780  30.8125360  79.0071000   6.4030650
  29.8650270  79.0409980   6.5346080  31.1375350  79.8209950   6.7880010
  21.3444900  75.3068180   4.6986640  21.6519880  74.7515070   3.9822140
  20.4145600  75.4412640   4.5159630  28.1905380  87.7451690   2.0784270
  28.0801710  86.8026020   2.2033690  28.1873630  88.1067330   2.9647030
  26.2945400  85.9265310   8.3176710  26.7114190  85.7125420   7.4830170
  27.0185220  86.1838100   8.8885330  30.2407500  84.3252530   8.4092950
  29.4126130  84.3945620   7.9343080  30.8357980  84.9106840   7.9408780
  27.2049510  81.1121850   9.3547820  26.7920690  81.9375560   9.6087810
  26.4725460  80.5266890   9.1624180  19.3382300  83.8981750   4.2166490
  18.9339300  83.1859000   3.7212390  19.4245420  83.5534990   5.1054530
  19.8064000  87.5849310   6.3805700  19.5092290  86.9794780   5.7013480
  20.7563820  87.6226620   6.2695060  18.0510920  80.6724960   7.9965530
  18.6025510  80.7820300   7.2218780  18.5654430  81.0462560   8.7120760
  18.8982430  87.3231000  13.0313500  18.0010960  87.5470970  13.2786900
  18.9235300  87.4465940  12.0824900  17.7253650  84.1944320  11.6070870
  17.5861420  85.0667120  11.9758270  16.8435010  83.8517130  11.4618810
  24.0483030  89.1120190   2.9136000  24.4878940  89.8544520   2.4991390
  23.9869920  89.3546760   3.8374960  19.5234000  90.1366020  13.8156020
  19.4949430  90.5408970  12.9484450  19.3598970  89.2076380  13.6527620
  13.6772300  85.9641870   7.5241780  13.7552720  86.0990640   6.5797500
  14.2913980  85.2557760   7.7169900  14.9219930  87.6642060   3.9347960
  14.5148010  87.8056650   3.0801560  15.8132940  87.3802220   3.7319170
  30.8782070  88.1105970  12.2720200  31.0045130  87.8717850  11.3537380
  30.9203450  87.2790510  12.7442280  30.7306080  80.1638430  13.2369940
  30.1150350  80.6718100  12.7085400  30.4102500  79.2636760  13.1795880
  13.7331820  87.0056040  10.0636240  13.8962860  86.5361400   9.2455610
  14.1984270  86.4979600  10.7285080  18.5050590  76.1361800   5.0996810
  18.0618740  76.9171340   4.7681330  19.0635580  76.4591690   5.8067750
  22.7920400  79.0030320  10.7032130  22.3299770  79.2113340  11.5152070
  22.3898510  78.1889670  10.4002800  27.7924910  80.2239270  11.8328790
  26.9418500  79.9245020  12.1537860  27.6326700  80.4681280  10.9212610
  24.8874620  81.7241020  13.9327580  25.2128030  80.8904770  13.5929810
  25.6754950  82.2469540  14.0805910  20.5426490  76.6809130   6.9586410
  20.8398820  77.5871960   6.8778430  21.0912050  76.1927910   6.3445980
  18.2964810  81.2595370   2.8278060  18.0705730  81.0432540   3.7324680
  17.5157340  81.6923830   2.4824030  20.7364020  82.1580950  13.4938330
  20.6407620  81.2175680  13.3438730  21.5796000  82.3796020  13.0986400
  24.1327440  79.9022280   3.4571990  24.5257010  80.2194480   2.6440680
  24.4944290  79.0234160   3.5716510  15.8674560  78.5694620  11.6472110
  15.4737950  79.4169830  11.8544890  15.1792960  77.9320990  11.8380750
  13.1691610  76.4923080   5.6802190  12.8804660  77.0625940   6.3927170
  13.9137370  76.0127530   6.0433420  24.7182580  82.4928030   7.5522770
  23.9863700  83.0014840   7.9012870  24.3206920  81.6758010   7.2511550
  21.1559970  79.1682230   5.9575260  21.1596030  78.7272180   5.1079800
  22.0511090  79.4899560   6.0647080  17.0062350  79.0508720   4.9169470
  16.6662400  79.5283950   5.6736520  16.2439670  78.5973840   4.5570570
  25.1808490  77.9461710   6.9645710  25.1981230  78.3970360   7.8087560
  24.9324070  77.0467350   7.1779150  28.6079240  75.3593890  12.8032090
  28.9325010  74.6283550  13.3290070  28.6435750  75.0407530  11.9013080
  15.3070800  86.3807470  12.2232050  14.9225590  85.7401140  12.8215010
  15.6182990  87.0843590  12.7926780  21.4567940  83.2284010   7.7040670
  21.8238070  82.7542580   8.4502010  21.2673000  84.1025580   8.0449010
  14.3208430  77.9727700   3.8334140  14.0355350  77.6083370   4.6712760
  14.2587290  77.2408160   3.2197280  19.2467310  82.2692650  10.0224880
  18.9424380  83.1484630  10.2475240  20.2013770  82.3292440  10.0582320
  28.5337080  85.4719000   6.4118120  29.2536200  85.9674290   6.0214230
  28.3318900  84.7936890   5.7671990  23.9155880  85.5428060  12.2987120
  23.8493190  84.6223730  12.0444710  23.2861020  85.6403500  13.0131760
  17.8186500  86.1434020   4.2570540  18.3365170  85.3402280   4.2027430
  17.3670520  86.0813160   5.0987370  15.3031040  83.1095390  11.1696240
  14.9445980  83.7749240  11.7569580  15.0085600  82.2778940  11.5408860
  18.5044160  83.5679630  14.0535790  18.2044300  83.7136810  13.1563610
  19.2755400  83.0084920  13.9609180  23.8472610  88.3648630  12.0490920
  23.8617150  87.4329590  11.8309830  23.1397710  88.4508390  12.6880690
  30.0583820  85.0055970  11.3959500  29.3332010  85.5984750  11.1988890
  30.5859280  84.9979510  10.5972870  25.5883410  86.7316140   4.8943350
  25.9407230  86.1344270   4.2344720  24.7045740  86.4060370   5.0651600
  21.6746690  87.4913830   2.3013760  22.3617820  88.0383040   2.6821350
  20.8879110  88.0354560   2.3363370  20.9773900  84.4959860   1.9139120
  21.4336680  85.3065110   2.1399310  20.6262110  84.1783000   2.7457610
  23.2806510  90.0066200   9.1431420  23.9248730  90.2125580   9.8204840
  23.6435950  89.2454600   8.6902270  16.8785680  74.8397510   2.3861640
  16.7500310  74.8315410   3.3346560  16.0547700  75.1780600   2.0352650
  24.5538590  88.0098550   7.8608870  25.1960820  87.3091710   7.9741040
  25.0787940  88.7896990   7.6805760  26.3276210  88.8093450  11.0644930
  26.6632450  89.3960140  11.7422850  25.4076550  88.6786160  11.2942720
  13.8779610  76.5988630  11.8468340  13.1638130  76.7985550  12.4520950
  14.2974650  75.8228200  12.2183140  14.1652200  90.5868890  12.8334870
  14.2743320  89.6463630  12.6930260  13.5132760  90.8523640  12.1848600
  22.1564790  88.8584780  14.2332990  21.8361660  88.1394020  14.7778680
  21.4823150  89.5339850  14.3069050  25.3718390  79.0910940   9.5969790
  25.7399210  78.2706150   9.9249360  24.5116590  79.1512830  10.0125440
  20.7064450  80.3253830   1.8215230  19.9980600  80.7940170   2.2628840
  20.9908930  79.6675840   2.4560420  22.3320380  81.7450530   9.8207760
  22.8305630  82.2196350  10.4859610  22.4743330  80.8214050  10.0277790
  24.7379880  77.0504490   3.2611020  24.6147660  77.0690620   2.3120530
  25.6864440  77.0983430   3.3809420  29.5387240  77.9618490  10.6636150
  29.0360840  78.7023890  11.0029960  30.3543900  78.3502490  10.3472940
  27.8309250  83.2051670   4.1097510  26.8899390  83.2201900   4.2845200
  28.1453320  82.4187630   4.5557810  25.1475270  87.7617670  14.5929890
  24.5413430  87.7849270  13.8525640  24.8429380  87.0300710  15.1297140
  14.0308450  84.1411260  13.5890530  14.5347470  83.5618540  14.1606760
  13.2915870  84.4251490  14.1266900  21.0846390  85.5482250  13.1226050
  20.3192060  86.1167250  13.0380720  21.2662350  85.2558460  12.2294280
  28.2269740  87.2787580  13.6801070  28.9679210  87.6163340  13.1768530
  27.4642420  87.4479640  13.1270840  16.0631530  82.2840850  14.4840600
  16.1036870  81.9854720  15.3925830  16.9177030  82.6848460  14.3248120
  18.0037340  80.8632950  12.4515090  17.4733800  80.3723900  11.8238430
  18.6725410  81.2917150  11.9173020  26.9015400  85.3302410  12.2156280
  27.3156420  85.4847490  13.0646700  25.9666400  85.4557630  12.3782060
  27.3737570  82.6698570  14.2195430  27.9558340  81.9150890  14.1315910
  27.5499340  83.2006010  13.4426910  18.4909640  77.8295320  12.5312380
  18.3966510  77.2116070  11.8063250  17.9107030  78.5561610  12.3042290
  21.2571080  76.3868560   9.5639770  20.8088380  76.4092820   8.7185320
  20.6236280  75.9887580  10.1610070  21.6630630  85.2822890  10.1852210
  22.0818740  86.1255620  10.0128450  20.7439260  85.4194930   9.9558990
  23.9994530  83.0139070  11.5690050  24.1190740  82.4180210  12.3084890
  24.8588530  83.0508760  11.1491350  26.3382430  83.5676260  10.1452560
  25.8117650  84.0918880   9.5417700  26.6813770  84.2003650  10.7762290
  20.7663300  79.5560420  12.8265870  21.3562990  79.2476270  13.5143690
  19.9483540  79.0840170  12.9825770  25.5856730  79.1726230  13.0598890
  24.8972250  78.5107770  12.9948880  26.3062750  78.7264500  13.5047350
  13.7727550  90.1501700   4.8630210  14.1030560  89.2822760   4.6308850
  14.2018550  90.3560220   5.6935170  18.3689470  88.4810710   2.5232180
  18.0685010  88.3575680   3.4236090  18.2626960  87.6219300   2.1147910
  29.8979940  90.5189290  11.8889150  29.2981930  90.5781850  11.1453070
  30.0273840  89.5794270  12.0186000  14.0942190  83.5292520   3.9600720
  13.4391030  83.2604160   3.3160420  14.9320140  83.4197000   3.5102700
  31.5997820  85.8604690   4.5734990  31.9706650  85.0772010   4.1670960
  32.2399750  86.5493790   4.3952290  28.5831580  87.2441270   9.9865310
  27.7691420  87.6738430  10.2491100  28.9905780  87.8559680   9.3734360
  30.5422360  83.2357950   1.8795010  30.1665960  82.4685880   1.4476300
  29.8125480  83.6180650   2.3669940  15.1318120  83.9145090   8.5004060
  15.4991160  83.8272490   9.3800080  14.5628940  83.1511640   8.4010920
  29.9321980  82.3829470  11.5134530  29.7008070  82.1542220  10.6132480
  30.1926530  83.3029020  11.4679420  14.6834120  80.8254180  12.4062480
  13.7890170  80.7920940  12.7456190  15.2231670  81.0240970  13.1713730
  28.3710050  77.6085900  14.2914230  29.2480230  77.6169300  14.6748230
  28.3830890  76.8716740  13.6806580  29.8173320  81.4615440   5.1802250
  30.3410800  80.9678090   4.5492420  30.4032740  81.5965800   5.9249820
  29.9963040  81.5455310   8.7021800  29.0465750  81.5118850   8.8166790
  30.1776050  82.4555420   8.4671570  15.1873830  75.1002510   6.7545700
  15.8350020  74.5499890   6.3140860  15.6075670  75.3545660   7.5761510
  30.7360450  79.3549740   3.6532340  30.6259730  79.2005780   4.5914610
  31.4968040  78.8270680   3.4107750  29.0826170  75.2943870  10.1115340
  29.7198390  75.9078010  10.4774530  29.2301060  75.3304530   9.1664570
  14.9405830  75.2558180   9.4971020  14.5920650  75.7122000  10.2629200
  14.6093530  74.3615310   9.5793450  16.5470200  88.4277780  13.6624210
  16.5039830  88.0570690  14.5438670  16.6781210  89.3655350  13.8026030
  20.2476230  89.9837370   9.2633930  20.0067590  90.2511930   8.3764450
  21.1878870  90.1543100   9.3184790  25.0905210  76.1040120  12.6582730
  25.7045620  76.4219410  11.9963810  25.6354770  75.6188710  13.2778590
  15.6126470  74.7834380  12.7721790  16.1609460  74.6022430  12.0087900
  15.6781780  73.9928490  13.3078100  25.8313250  74.6672260   8.9852020
  24.9573090  75.0007370   8.7824950  25.7224000  74.1945440   9.8103890
  26.7385230  76.8743130  10.3693740  26.4098590  76.0594890   9.9895470
  27.6867530  76.8312940  10.2459430  16.0170460  88.7398410   9.7330030
  15.2904520  88.1203700   9.6655980  16.0779610  89.1339020   8.8628110
  23.5788070  75.5842100   7.9244930  22.7959860  76.0587600   8.2041690
  23.2851000  74.6796930   7.8158110  28.1309140  76.2865200   5.9694020
  28.5717230  76.2310300   5.1215620  27.8616730  77.2023210   6.0404200
  29.9947710  75.9180440   3.9802840  29.9336110  74.9741660   3.8333860
  30.7739740  76.0260530   4.5256300  21.4642290  78.0028850   3.4360960
  20.6516800  77.6285740   3.0956840  21.9683930  77.2473930   3.7382150
  25.9667270  74.6671300   4.6744030  26.5696640  75.2391510   5.1492550
  25.2260260  75.2310740   4.4517930  19.4891470  76.1528770   2.0406010
  18.8594210  75.4516080   2.2076140  18.9496610  76.9132900   1.8239170
  26.2162490  74.8466330  15.0538970  26.1027940  75.1660940  15.9490490
  27.0332230  75.2478840  14.7576250  25.1220640  64.0915310  60.5147670
  25.0414690  63.1769920  60.2439380  24.7085060  64.5882380  59.8087380
  23.2538680  65.8694330  62.3956940  22.4780780  65.3894770  62.6855510
  23.9051610  65.1899980  62.2213100  17.2704510  66.1814140  63.2732700
  16.4389390  65.9262850  63.6729210  17.8785490  66.2524910  64.0090620
  27.2746110  70.2754520  61.1756070  26.8127640  69.5041760  61.5043240
  28.0871660  70.3020590  61.6808520  17.2505770  70.2154230  63.4690720
  17.5533810  69.3251970  63.2900940  17.9949360  70.7724450  63.2412970
  15.6796460  61.1416030  57.0575090  14.7913160  61.4832000  56.9554970
  15.9637650  60.9416350  56.1655920  13.6429470  63.7421680  62.9414790
  14.2145580  62.9743880  62.9418430  13.6431010  64.0410440  62.0321400
  23.5009420  72.5612530  60.7960060  22.8820860  73.0170030  60.2254500
  24.3561200  72.7163990  60.3949760  22.6947670  68.5451520  62.4027100
  22.6255950  67.6041460  62.2416230  23.4567530  68.6352930  62.9749670
  14.8854340  59.1506040  64.7283720  14.7057180  58.2531790  65.0086480
  14.4834420  59.6977910  65.4030670  23.7252840  61.3521900  62.6296030
  24.1017660  60.4793780  62.5169700  23.6272350  61.6880600  61.7386470
  17.8557850  59.7247530  58.0913470  17.9624600  60.6251260  58.3982230
  16.9450210  59.6765500  57.8008120  27.5076960  58.8472340  59.5624370
  28.3286580  58.3568910  59.6049850  27.5411040  59.4370000  60.3156210
  15.5041010  61.6466540  63.3366060  16.1851120  61.9104910  63.9553460
  15.1889060  60.8067410  63.6704070  19.6965580  62.6933900  62.4238650
  20.2043800  63.1914870  63.0643670  20.2278820  61.9169100  62.2478010
  24.3672770  67.4451770  58.1891970  23.7490040  67.9101220  57.6254690
  24.8796020  68.1379250  58.6061480  19.2304530  66.9727640  64.8675570
  18.8973910  67.5996560  65.5096640  19.4071210  67.4989520  64.0877240
  27.7438440  60.7872720  62.3351910  27.0394010  61.0757610  62.9155020
  28.1050600  61.5972830  61.9751470  17.6617010  59.0442420  64.6972520
  18.0033820  59.8884470  64.4026390  16.7232820  59.1926160  64.8137860
  13.7355970  68.1308300  55.5631600  13.3583950  68.6195400  54.8316500
  13.9929040  68.8033580  56.1938130  29.3601220  70.4047850  64.5979390
  28.6764740  71.0746960  64.5896060  29.8995510  70.6028500  63.8324250
  30.8125360  60.2327510  62.7261120  29.8650270  60.2666490  62.8576550
  31.1375350  61.0466460  63.1110480  21.3444900  56.5324690  61.0217110
  21.6519880  55.9771580  60.3052610  20.4145600  56.6669150  60.8390100
  26.8959960  72.2491980  63.3124570  26.9087120  71.8454270  62.4446830
  26.3435180  73.0239270  63.2086000  28.1905380  68.9708200  58.4014740
  28.0801710  68.0282530  58.5264160  28.1873630  69.3323840  59.2877500
  26.2945400  67.1521820  64.6407180  26.7114190  66.9381930  63.8060640
  27.0185220  67.4094610  65.2115800  23.7325660  64.5973520  57.7577230
  22.8054940  64.5310900  57.9865700  23.8850480  65.5353650  57.6432470
  23.7194740  60.8690520  54.7544390  22.7798410  61.0304480  54.8396850
  24.0378000  61.5876200  54.2080380  30.2407500  65.5509040  64.7323420
  29.4126130  65.6202130  64.2573550  30.8357980  66.1363350  64.2639250
  27.7622950  66.1593820  58.2612480  27.1435370  65.8213370  57.6138780
  27.7447400  65.5153580  58.9691670  27.2049510  62.3378360  65.6778290
  26.7920690  63.1632070  65.9318280  26.4725460  61.7523400  65.4854650
  19.3382300  65.1238260  60.5396960  18.9339300  64.4115510  60.0442860
  19.4245420  64.7791500  61.4285000  19.8064000  68.8105820  62.7036170
  19.5092290  68.2051290  62.0243950  20.7563820  68.8483130  62.5925530
  18.0510920  61.8981470  64.3196000  18.6025510  62.0076810  63.5449250
  18.5654430  62.2719070  65.0351230  27.8949610  72.3837690  66.3659270
  27.4180170  73.1909880  66.1731880  27.2111400  71.7316020  66.5185480
  25.9387650  65.3980630  55.2685230  26.3780930  64.5603060  55.1223050
  26.6516070  66.0310030  55.3549370  24.0483030  70.3376700  59.2366470
  24.4878940  71.0801030  58.8221860  23.9869920  70.5803270  60.1605430
  29.5204790  56.6523440  53.5826270  29.2077450  56.7450270  54.4825340
  30.2817260  57.2304470  53.5323700  16.0386930  64.0183240  58.0403610
  15.9184530  64.7445330  57.4284880  15.7287820  63.2486150  57.5631520
  13.6772300  67.1898380  63.8472250  13.7552720  67.3247150  62.9027970
  14.2913980  66.4814270  64.0400370  14.9219930  68.8898570  60.2578430
  14.5148010  69.0313160  59.4032030  15.8132940  68.6058730  60.0549640
  26.7153210  73.3245820  56.5929480  26.5554350  73.0348760  57.4911310
  26.5499920  72.5485950  56.0574710  19.1941590  73.1044350  58.3701100
  19.0184070  72.1879890  58.1568900  18.3397330  73.4631640  58.6098900
  26.4179340  70.8333380  55.1527480  25.7244500  70.8310670  54.4929760
  27.1602200  70.4092700  54.7221650  25.9829270  72.4596090  59.2275970
  26.4386220  71.6785470  59.5414590  26.3221790  73.1702910  59.7717150
  18.5050590  57.3618310  61.4227280  18.0618740  58.1427850  61.0911800
  19.0635580  57.6848200  62.1298220  21.6209410  56.9829010  56.3033110
  20.9963590  56.9788880  57.0286420  21.5339530  56.1159970  55.9069080
  20.5426490  57.9065640  63.2816880  20.8398820  58.8128470  63.2008900
  21.0912050  57.4184420  62.6676450  18.2964810  62.4851880  59.1508530
  18.0705730  62.2689050  60.0555150  17.5157340  62.9180340  58.8054500
  25.5262570  62.4915250  57.7499180  24.9271460  63.2151050  57.5662800
  26.0742180  62.4292030  56.9675630  24.1327440  61.1278790  59.7802460
  24.5257010  61.4450990  58.9671150  24.4944290  60.2490670  59.8946980
  13.1691610  57.7179590  62.0032660  12.8804660  58.2882450  62.7157640
  13.9137370  57.2384040  62.3663890  13.3561840  61.6599710  53.2135380
  13.2736510  62.6030470  53.3550370  13.0044900  61.5174620  52.3347730
  24.7182580  63.7184540  63.8753240  23.9863700  64.2271350  64.2243340
  24.3206920  62.9014520  63.5742020  21.1559970  60.3938740  62.2805730
  21.1596030  59.9528690  61.4310270  22.0511090  60.7156070  62.3877550
  17.0062350  60.2765230  61.2399940  16.6662400  60.7540460  61.9966990
  16.2439670  59.8230350  60.8801040  21.2180120  61.3950820  55.2712490
  21.3392940  61.3537300  56.2198310  20.8328630  62.2574970  55.1159220
  25.1808490  59.1718220  63.2876180  25.1981230  59.6226870  64.1318030
  24.9324070  58.2723860  63.5009620  20.2301620  63.7051960  54.6695790
  19.6618520  63.2570210  54.0431700  20.9390620  64.0644740  54.1360940
  21.4567940  64.4540520  64.0271140  21.8238070  63.9799090  64.7732480
  21.2673000  65.3282090  64.3679480  14.3208430  59.1984210  60.1564610
  14.0355350  58.8339880  60.9943230  14.2587290  58.4664670  59.5427750
  17.7749100  67.7010150  56.9422200  17.0011360  67.1607770  56.7820920
  18.5043730  67.1816760  56.6039960  28.5337080  66.6975510  62.7348590
  29.2536200  67.1930800  62.3444700  28.3318900  66.0193400  62.0902460
  23.9947020  58.0913470  56.8777980  23.1811630  57.5926640  56.8023290
  23.8008970  58.9311720  56.4614330  26.7095410  62.4633120  55.1740140
  27.5975030  62.7750350  54.9991480  26.6800500  61.5905370  54.7820720
  17.8186500  67.3690530  60.5801010  18.3365170  66.5658790  60.5257900
  17.3670520  67.3069670  61.4217840  22.7056000  68.6356810  55.8528310
  23.0471700  69.3799040  55.3571630  21.8768710  68.9487930  56.2153140
  28.9809680  63.7744960  54.6420000  28.8973400  64.2059180  53.7916440
  29.7003870  64.2343310  55.0746820  30.0096930  70.6287220  57.3702130
  29.3673090  69.9742840  57.6445850  29.6227590  71.0342310  56.5942800
  25.5883410  67.9572650  61.2173820  25.9407230  67.3600780  60.5575190
  24.7045740  67.6316880  61.3882070  21.6746690  68.7170340  58.6244230
  22.3617820  69.2639550  59.0051820  20.8879110  69.2611070  58.6593840
  13.8139090  64.3343160  54.1161310  14.6833940  64.6167960  54.3997230
  13.3229410  65.1479030  54.0010120  20.9773900  65.7216370  58.2369590
  21.4336680  66.5321620  58.4629780  20.6262110  65.4039510  59.0688080
  23.2806510  71.2322710  65.4661890  23.9248730  71.4382090  66.1435310
  23.6435950  70.4711110  65.0132740  16.8785680  56.0654020  58.7092110
  16.7500310  56.0571920  59.6577030  16.0547700  56.4037110  58.3583120
  24.5538590  69.2355060  64.1839340  25.1960820  68.5348220  64.2971510
  25.0787940  70.0153500  64.0036230  28.3994310  69.5203680  53.9078480
  28.1731890  68.8034120  54.5003120  28.0090510  69.2716120  53.0700230
  14.1810340  73.5470540  54.6822940  14.5407980  74.1459880  54.0280210
  14.0402680  74.0930430  55.4557970  27.9810560  67.4375620  55.5692640
  27.6932260  67.8988310  56.3570520  28.7762730  66.9773390  55.8376860
  20.1978960  70.9301740  55.4996610  20.1889060  71.6631430  54.8841120
  19.2777320  70.6833320  55.5923570  15.7985600  66.1516630  56.2443370
  15.1913550  66.8915530  56.2538670  16.2734950  66.2415990  55.4181570
  25.3718390  60.3167450  65.9200260  25.7399210  59.4962660  66.2479830
  24.5116590  60.3769340  66.3355910  28.7380420  59.2724390  56.7287820
  28.1093580  59.3770060  56.0146050  28.2432340  59.4921170  57.5181700
  23.1838560  70.9929980  54.1621800  23.2850540  70.7893970  53.2323780
  22.2840300  70.7388260  54.3669580  20.7064450  61.5510340  58.1445700
  19.9980600  62.0196680  58.5859310  20.9908930  60.8932350  58.7790890
  24.7379880  58.2761000  59.5841490  24.6147660  58.2947130  58.6351000
  25.6864440  58.3239940  59.7039890  21.8256670  73.5116300  58.8569470
  22.0798170  73.4737690  57.9348840  20.8769150  73.3849630  58.8497720
  18.9099470  59.8595420  55.5196410  19.7590000  60.2965570  55.4536600
  18.5430740  60.1715680  56.3468470  27.8309250  64.4308180  60.4327980
  26.8899390  64.4458410  60.6075670  28.1453320  63.6444140  60.8788280
  17.8090890  66.1127780  53.9931940  18.5754160  66.0009140  54.5557370
  17.8865580  65.4165750  53.3408710  16.5037650  63.5452850  54.6764830
  16.5841240  62.5980360  54.7882230  17.3957400  63.8759730  54.7825490
  29.8334830  71.6017030  62.1082240  29.9582250  72.4248200  62.5806050
  30.7000390  71.3907760  61.7606390  17.3052360  73.6948240  61.7799370
  18.0414840  73.1463700  62.0507940  17.6893280  74.5604250  61.6405360
  14.1897840  69.7621810  57.6540880  13.2637620  70.0042950  57.6446290
  14.6554270  70.5896070  57.5325630  20.4154670  72.8678550  53.6024940
  21.2083280  73.1567380  53.1506730  19.8959020  72.4370720  52.9237420
  29.4684840  72.0948680  55.0261680  29.1826350  71.6813820  54.2115860
  29.2704390  73.0236390  54.9062200  20.9332070  68.0881960  53.4667290
  20.8282710  67.4734310  54.1928670  20.7656290  67.5647850  52.6830300
  24.1734800  67.1501990  54.0709280  23.6244900  67.5971290  54.7152020
  24.7954060  66.6451240  54.5946950  19.8409920  66.1092910  55.9674580
  20.2626340  65.9432780  56.8105970  19.9660760  65.2993140  55.4729720
  22.3537560  65.1330520  53.2151680  22.8743220  64.4179540  52.8492830
  23.0005960  65.7716390  53.5152190  21.2571080  57.6125070  65.8870240
  20.8088380  57.6349330  65.0415790  20.6236280  57.2144090  66.4840540
  21.6630630  66.5079400  66.5082680  22.0818740  67.3512130  66.3358920
  20.7439260  66.6451440  66.2789460  18.7368820  62.1826140  52.9132740
  18.5357880  61.3193500  53.2746080  18.5660870  62.0959500  51.9754340
  26.2157130  56.9934370  55.4419620  26.4959420  56.1502270  55.7979040
  25.4422860  57.2257480  55.9558370  17.5351620  59.2826760  52.9010620
  17.8377520  59.2894190  51.9929770  18.2746210  58.9324620  53.3978280
  20.7536550  58.2261380  53.8866820  20.4058550  57.5485370  53.3069270
  20.9549320  57.7650890  54.7010210  22.9185590  73.2142130  55.5053420
  23.8136380  73.5527100  55.5272180  22.9503220  72.4921540  54.8777700
  16.5581750  68.5869180  53.7340420  16.9956620  69.1298850  54.3898000
  17.0429480  67.7616130  53.7436760  13.7727550  71.3758210  61.1860680
  14.1030560  70.5079270  60.9539320  14.2018550  71.5816730  62.0165640
  18.3689470  69.7067220  58.8462650  18.0685010  69.5832190  59.7466560
  18.2626960  68.8475810  58.4378380  14.2617760  72.2428800  63.9242310
  13.8248750  72.4229600  64.7566460  14.8295440  73.0003420  63.7824030
  31.1381390  69.4863620  53.5489330  30.3074350  69.5540270  54.0196560
  31.3153220  70.3767740  53.2456190  30.5937850  66.2311100  56.0523530
  31.3556760  66.8007750  56.1583220  30.6092220  65.6638300  56.8231840
  14.0942190  64.7549030  60.2831190  13.4391030  64.4860670  59.6390890
  14.9320140  64.6453510  59.8333170  31.5997820  67.0861200  60.8965460
  31.9706650  66.3028520  60.4901430  32.2399750  67.7750300  60.7182760
  30.6457020  66.5245470  53.2096050  30.9205860  67.4324350  53.0815270
  30.4567760  66.4608000  54.1458040  27.0432630  59.5490320  54.5049680
  27.4617510  59.3621300  53.6646340  26.7368690  58.6969370  54.8152610
  30.5422360  64.4614460  58.2025480  30.1665960  63.6942390  57.7706770
  29.8125480  64.8437160  58.6900410  15.1318120  65.1401600  64.8234530
  15.4991160  65.0529000  65.7030550  14.5628940  64.3768150  64.7241390
  13.3080270  61.9647960  56.2256520  12.4044350  62.2278160  56.0508180
  13.7920890  62.2359130  55.4456480  29.8173320  62.6871950  61.5032720
  30.3410800  62.1934600  60.8722890  30.4032740  62.8222310  62.2480290
  29.9963040  62.7711820  65.0252270  29.0465750  62.7375360  65.1397260
  30.1776050  63.6811930  64.7902040  15.8507480  61.0213500  54.1350900
  16.5599180  60.5996720  53.6498180  15.1347420  61.0888730  53.5034250
  15.4981640  57.0752830  53.1753550  16.2209770  57.6161770  53.4934770
  15.7706160  56.8016250  52.2995090  29.3073290  61.9445300  57.4425130
  29.8032410  61.7116170  58.2274010  29.1089360  61.1057140  57.0262770
  15.1873830  56.3259020  63.0776170  15.8350020  55.7756400  62.6371330
  15.6075670  56.5802170  63.8991980  30.7360450  60.5806250  59.9762810
  30.6259730  60.4262290  60.9145080  31.4968040  60.0527190  59.7338220
  31.6250720  58.4114170  53.2168950  32.5500030  58.2795350  53.0087240
  31.6026510  58.4906990  54.1705400  31.6989210  59.1824830  55.8425660
  30.9040710  59.1169950  56.3718570  31.9032490  60.1175470  55.8311010
  28.6407630  73.2216380  59.8364050  29.2366700  72.9000950  59.1598470
  28.8985780  72.7488200  60.6277320  20.2476230  71.2093880  65.5864400
  20.0067590  71.4768440  64.6994920  21.1878870  71.3799610  65.6415260
  25.8313250  55.8928770  65.3082490  24.9573090  56.2263880  65.1055420
  25.7224000  55.4201950  66.1334360  29.1919840  73.8711680  63.6661780
  28.7322810  74.6227490  63.2919800  28.5632300  73.1518150  63.6076580
  16.0170460  69.9654920  66.0560500  15.2904520  69.3460210  65.9886450
  16.0779610  70.3595530  65.1858580  19.6215560  72.1799920  62.8409910
  20.1380580  71.5687280  62.3158170  20.2712940  72.6828700  63.3320920
  22.3611060  73.0708410  63.6678890  22.6488870  72.8162710  62.7911900
  22.8734280  72.5185770  64.2584460  23.5788070  56.8098610  64.2475400
  22.7959860  57.2844110  64.5272160  23.2851000  55.9053440  64.1388580
  28.1309140  57.5121710  62.2924490  28.5717230  57.4566810  61.4446090
  27.8616730  58.4279720  62.3634670  29.9947710  57.1436950  60.3033310
  29.9336110  56.1998170  60.1564330  30.7739740  57.2517040  60.8486770
  14.3000460  73.2829310  59.2657260  14.1322500  72.6499990  59.9639150
  13.4334970  73.4888710  58.9151450  14.9228480  57.1146090  56.7689120
  15.6807840  57.2274970  56.1953150  14.4605650  57.9515290  56.7232550
  21.4642290  59.2285360  59.7591430  20.6516800  58.8542250  59.4187310
  21.9683930  58.4730440  60.0612620  25.9667270  55.8927810  60.9974500
  26.5696640  56.4648020  61.4723020  25.2260260  56.4567250  60.7748400
  29.1101870  56.2949370  56.2714780  29.3052500  57.1932820  56.5382210
  28.3231740  56.0636450  56.7647730  15.9063160  71.9762540  56.7107400
  15.3810780  72.3570570  56.0069360  15.8307740  72.6013310  57.4317110
  17.2953630  57.6410140  55.3091090  17.8246390  56.8539940  55.1799040
  17.9281950  58.3201330  55.5426620  19.4891470  57.3785280  58.3636480
  18.8594210  56.6772590  58.5306610  18.9496610  58.1389410  58.1469640
  30.6628480  73.5350080  58.0321340  30.8380670  72.8487820  57.3882260
  29.9650050  74.0597130  57.6398010  18.5056130  73.9244920  55.5856650
  19.2374950  73.6404200  55.0380540  18.7649800  73.6858200  56.4756030
  17.6670920  70.0409650  55.5902980  17.0379800  70.5094750  56.1388810
  17.7818750  69.1958870  56.0249170  25.1220640  64.0915310  41.7404180
  25.0414690  63.1769920  41.4695890  24.7085060  64.5882380  41.0343890
  23.2538680  65.8694330  43.6213450  22.4780780  65.3894770  43.9112020
  23.9051610  65.1899980  43.4469610  17.2704510  66.1814140  44.4989210
  16.4389390  65.9262850  44.8985720  17.8785490  66.2524910  45.2347130
  27.2746110  70.2754520  42.4012580  26.8127640  69.5041760  42.7299750
  28.0871660  70.3020590  42.9065030  17.2505770  70.2154230  44.6947230
  17.5533810  69.3251970  44.5157450  17.9949360  70.7724450  44.4669480
  15.6796460  61.1416030  38.2831600  14.7913160  61.4832000  38.1811480
  15.9637650  60.9416350  37.3912430  13.6429470  63.7421680  44.1671300
  14.2145580  62.9743880  44.1674940  13.6431010  64.0410440  43.2577910
  23.5009420  72.5612530  42.0216570  22.8820860  73.0170030  41.4511010
  24.3561200  72.7163990  41.6206270  22.6947670  68.5451520  43.6283610
  22.6255950  67.6041460  43.4672740  23.4567530  68.6352930  44.2006180
  14.8854340  59.1506040  45.9540230  14.7057180  58.2531790  46.2342990
  14.4834420  59.6977910  46.6287180  23.7252840  61.3521900  43.8552540
  24.1017660  60.4793780  43.7426210  23.6272350  61.6880600  42.9642980
  17.8557850  59.7247530  39.3169980  17.9624600  60.6251260  39.6238740
  16.9450210  59.6765500  39.0264630  15.5041010  61.6466540  44.5622570
  16.1851120  61.9104910  45.1809970  15.1889060  60.8067410  44.8960580
  19.6965580  62.6933900  43.6495160  20.2043800  63.1914870  44.2900180
  20.2278820  61.9169100  43.4734520  31.7976510  60.8639090  47.3524510
  31.0928680  61.2520800  46.8339620  32.0634430  61.5589380  47.9545440
  17.9801680  57.3332460  47.9158580  17.9820120  57.8504850  47.1104480
  17.1505990  56.8562640  47.8928510  24.3672770  67.4451770  39.4148480
  23.7490040  67.9101220  38.8511200  24.8796020  68.1379250  39.8317990
  19.2304530  66.9727640  46.0932080  18.8973910  67.5996560  46.7353150
  19.4071210  67.4989520  45.3133750  27.7438440  60.7872720  43.5608420
  27.0394010  61.0757610  44.1411530  28.1050600  61.5972830  43.2007980
  17.6617010  59.0442420  45.9229030  18.0033820  59.8884470  45.6282900
  16.7232820  59.1926160  46.0394370  18.4423630  68.9408440  47.9081260
  19.0597630  69.6159520  47.6265710  17.5816750  69.3496420  47.8168760
  13.7355970  68.1308300  36.7888110  13.3583950  68.6195400  36.0573010
  13.9929040  68.8033580  37.4194640  29.3601220  70.4047850  45.8235900
  28.6764740  71.0746960  45.8152570  29.8995510  70.6028500  45.0580760
  21.3444900  56.5324690  42.2473620  21.6519880  55.9771580  41.5309120
  20.4145600  56.6669150  42.0646610  26.8959960  72.2491980  44.5381080
  26.9087120  71.8454270  43.6703340  26.3435180  73.0239270  44.4342510
  28.1905380  68.9708200  39.6271250  28.0801710  68.0282530  39.7520670
  28.1873630  69.3323840  40.5134010  26.2945400  67.1521820  45.8663690
  26.7114190  66.9381930  45.0317150  27.0185220  67.4094610  46.4372310
  23.7325660  64.5973520  38.9833740  22.8054940  64.5310900  39.2122210
  23.8850480  65.5353650  38.8688980  30.2407500  65.5509040  45.9579930
  29.4126130  65.6202130  45.4830060  30.8357980  66.1363350  45.4895760
  27.7622950  66.1593820  39.4868990  27.1435370  65.8213370  38.8395290
  27.7447400  65.5153580  40.1948180  27.2049510  62.3378360  46.9034800
  26.7920690  63.1632070  47.1574790  26.4725460  61.7523400  46.7111160
  19.3382300  65.1238260  41.7653470  18.9339300  64.4115510  41.2699370
  19.4245420  64.7791500  42.6541510  19.8064000  68.8105820  43.9292680
  19.5092290  68.2051290  43.2500460  20.7563820  68.8483130  43.8182040
  18.0510920  61.8981470  45.5452510  18.6025510  62.0076810  44.7705760
  18.5654430  62.2719070  46.2607740  27.8949610  72.3837690  47.5915780
  27.4180170  73.1909880  47.3988390  27.2111400  71.7316020  47.7441990
  18.8982430  68.5487510  50.5800480  18.0010960  68.7727480  50.8273880
  18.9235300  68.6722450  49.6311880  25.9387650  65.3980630  36.4941740
  26.3780930  64.5603060  36.3479560  26.6516070  66.0310030  36.5805880
  17.7253650  65.4200830  49.1557850  17.5861420  66.2923630  49.5245250
  16.8435010  65.0773640  49.0105790  24.0483030  70.3376700  40.4622980
  24.4878940  71.0801030  40.0478370  23.9869920  70.5803270  41.3861940
  19.5234000  71.3622530  51.3643000  19.4949430  71.7665480  50.4971430
  19.3598970  70.4332890  51.2014600  16.0386930  64.0183240  39.2660120
  15.9184530  64.7445330  38.6541390  15.7287820  63.2486150  38.7888030
  31.4748820  72.1449630  52.6607170  31.9508540  72.6232520  53.3396250
  32.0955980  72.0767120  51.9352670  13.6772300  67.1898380  45.0728760
  13.7552720  67.3247150  44.1284480  14.2913980  66.4814270  45.2656880
  14.9219930  68.8898570  41.4834940  14.5148010  69.0313160  40.6288540
  15.8132940  68.6058730  41.2806150  30.8782070  69.3362480  49.8207180
  31.0045130  69.0974360  48.9024360  30.9203450  68.5047020  50.2929260
  24.7398810  73.0390480  48.3901990  25.2543480  72.9498490  49.1924420
  23.8967890  73.3850180  48.6829900  26.7153210  73.3245820  37.8185990
  26.5554350  73.0348760  38.7167820  26.5499920  72.5485950  37.2831220
  19.1941590  73.1044350  39.5957610  19.0184070  72.1879890  39.3825410
  18.3397330  73.4631640  39.8355410  26.4179340  70.8333380  36.3783990
  25.7244500  70.8310670  35.7186270  27.1602200  70.4092700  35.9478160
  25.9829270  72.4596090  40.4532480  26.4386220  71.6785470  40.7671100
  26.3221790  73.1702910  40.9973660  30.7306080  61.3894940  50.7856920
  30.1150350  61.8974610  50.2572380  30.4102500  60.4893270  50.7282860
  13.7331820  68.2312550  47.6123220  13.8962860  67.7617910  46.7942590
  14.1984270  67.7236110  48.2772060  18.5050590  57.3618310  42.6483790
  18.0618740  58.1427850  42.3168310  19.0635580  57.6848200  43.3554730
  22.7920400  60.2286830  48.2519110  22.3299770  60.4369850  49.0639050
  22.3898510  59.4146180  47.9489780  27.7924910  61.4495780  49.3815770
  26.9418500  61.1501530  49.7024840  27.6326700  61.6937790  48.4699590
  24.8874620  62.9497530  51.4814560  25.2128030  62.1161280  51.1416790
  25.6754950  63.4726050  51.6292890  21.6209410  56.9829010  37.5289620
  20.9963590  56.9788880  38.2542930  21.5339530  56.1159970  37.1325590
  20.5426490  57.9065640  44.5073390  20.8398820  58.8128470  44.4265410
  21.0912050  57.4184420  43.8932960  18.2964810  62.4851880  40.3765040
  18.0705730  62.2689050  41.2811660  17.5157340  62.9180340  40.0311010
  20.7364020  63.3837460  51.0425310  20.6407620  62.4432190  50.8925710
  21.5796000  63.6052530  50.6473380  24.1327440  61.1278790  41.0058970
  24.5257010  61.4450990  40.1927660  24.4944290  60.2490670  41.1203490
  15.8674560  59.7951130  49.1959090  15.4737950  60.6426340  49.4031870
  15.1792960  59.1577500  49.3867730  22.4419610  59.8786100  52.2655830
  21.7517930  59.6858300  52.9001920  23.1851910  60.1620740  52.7980130
  13.1691610  57.7179590  43.2289170  12.8804660  58.2882450  43.9414150
  13.9137370  57.2384040  43.5920400  13.3561840  61.6599710  34.4391890
  13.2736510  62.6030470  34.5806880  13.0044900  61.5174620  33.5604240
  24.7182580  63.7184540  45.1009750  23.9863700  64.2271350  45.4499850
  24.3206920  62.9014520  44.7998530  21.1559970  60.3938740  43.5062240
  21.1596030  59.9528690  42.6566780  22.0511090  60.7156070  43.6134060
  17.0062350  60.2765230  42.4656450  16.6662400  60.7540460  43.2223500
  16.2439670  59.8230350  42.1057550  21.2180120  61.3950820  36.4969000
  21.3392940  61.3537300  37.4454820  20.8328630  62.2574970  36.3415730
  25.1808490  59.1718220  44.5132690  25.1981230  59.6226870  45.3574540
  24.9324070  58.2723860  44.7266130  20.2301620  63.7051960  35.8952300
  19.6618520  63.2570210  35.2688210  20.9390620  64.0644740  35.3617450
  28.6079240  56.5850400  50.3519070  28.9325010  55.8540060  50.8777050
  28.6435750  56.2664040  49.4500060  15.3070800  67.6063980  49.7719030
  14.9225590  66.9657650  50.3701990  15.6182990  68.3100100  50.3413760
  21.4567940  64.4540520  45.2527650  21.8238070  63.9799090  45.9988990
  21.2673000  65.3282090  45.5935990  14.3208430  59.1984210  41.3821120
  14.0355350  58.8339880  42.2199740  14.2587290  58.4664670  40.7684260
  19.2467310  63.4949160  47.5711860  18.9424380  64.3741140  47.7962220
  20.2013770  63.5548950  47.6069300  17.7749100  67.7010150  38.1678710
  17.0011360  67.1607770  38.0077430  18.5043730  67.1816760  37.8296470
  28.5337080  66.6975510  43.9605100  29.2536200  67.1930800  43.5701210
  28.3318900  66.0193400  43.3158970  23.9155880  66.7684570  49.8474100
  23.8493190  65.8480240  49.5931690  23.2861020  66.8660010  50.5618740
  17.8186500  67.3690530  41.8057520  18.3365170  66.5658790  41.7514410
  17.3670520  67.3069670  42.6474350  22.7056000  68.6356810  37.0784820
  23.0471700  69.3799040  36.5828140  21.8768710  68.9487930  37.4409650
  15.3031040  64.3351900  48.7183220  14.9445980  65.0005750  49.3056560
  15.0085600  63.5035450  49.0895840  18.5044160  64.7936140  51.6022770
  18.2044300  64.9393320  50.7050590  19.2755400  64.2341430  51.5096160
  23.8472610  69.5905140  49.5977900  23.8617150  68.6586100  49.3796810
  23.1397710  69.6764900  50.2367670  28.9809680  63.7744960  35.8676510
  28.8973400  64.2059180  35.0172950  29.7003870  64.2343310  36.3003330
  30.0583820  66.2312480  48.9446480  29.3332010  66.8241260  48.7475870
  30.5859280  66.2236020  48.1459850  30.0096930  70.6287220  38.5958640
  29.3673090  69.9742840  38.8702360  29.6227590  71.0342310  37.8199310
  25.5883410  67.9572650  42.4430330  25.9407230  67.3600780  41.7831700
  24.7045740  67.6316880  42.6138580  21.6746690  68.7170340  39.8500740
  22.3617820  69.2639550  40.2308330  20.8879110  69.2611070  39.8850350
  13.8139090  64.3343160  35.3417820  14.6833940  64.6167960  35.6253740
  13.3229410  65.1479030  35.2266630  20.9773900  65.7216370  39.4626100
  21.4336680  66.5321620  39.6886290  20.6262110  65.4039510  40.2944590
  23.2806510  71.2322710  46.6918400  23.9248730  71.4382090  47.3691820
  23.6435950  70.4711110  46.2389250  16.8785680  56.0654020  39.9348620
  16.7500310  56.0571920  40.8833540  16.0547700  56.4037110  39.5839630
  24.5538590  69.2355060  45.4095850  25.1960820  68.5348220  45.5228020
  25.0787940  70.0153500  45.2292740  28.3994310  69.5203680  35.1334990
  28.1731890  68.8034120  35.7259630  28.0090510  69.2716120  34.2956740
  26.3276210  70.0349960  48.6131910  26.6632450  70.6216650  49.2909830
  25.4076550  69.9042670  48.8429700  14.1810340  73.5470540  35.9079450
  14.5407980  74.1459880  35.2536720  14.0402680  74.0930430  36.6814480
  13.8779610  57.8245140  49.3955320  13.1638130  58.0242060  50.0007930
  14.2974650  57.0484710  49.7670120  27.9810560  67.4375620  36.7949150
  27.6932260  67.8988310  37.5827030  28.7762730  66.9773390  37.0633370
  14.1652200  71.8125400  50.3821850  14.2743320  70.8720140  50.2417240
  13.5132760  72.0780150  49.7335580  22.1564790  70.0841290  51.7819970
  21.8361660  69.3650530  52.3265660  21.4823150  70.7596360  51.8556030
  20.1978960  70.9301740  36.7253120  20.1889060  71.6631430  36.1097630
  19.2777320  70.6833320  36.8180080  15.7985600  66.1516630  37.4699880
  15.1913550  66.8915530  37.4795180  16.2734950  66.2415990  36.6438080
  25.3718390  60.3167450  47.1456770  25.7399210  59.4962660  47.4736340
  24.5116590  60.3769340  47.5612420  23.1838560  70.9929980  35.3878310
  23.2850540  70.7893970  34.4580290  22.2840300  70.7388260  35.5926090
  20.7064450  61.5510340  39.3702210  19.9980600  62.0196680  39.8115820
  20.9908930  60.8932350  40.0047400  22.3320380  62.9707040  47.3694740
  22.8305630  63.4452860  48.0346590  22.4743330  62.0470560  47.5764770
  24.7379880  58.2761000  40.8098000  24.6147660  58.2947130  39.8607510
  25.6864440  58.3239940  40.9296400  21.8256670  73.5116300  40.0825980
  22.0798170  73.4737690  39.1605350  20.8769150  73.3849630  40.0754230
  18.9099470  59.8595420  36.7452920  19.7590000  60.2965570  36.6793110
  18.5430740  60.1715680  37.5724980  29.5387240  59.1875000  48.2123130
  29.0360840  59.9280400  48.5516940  30.3543900  59.5759000  47.8959920
  27.8309250  64.4308180  41.6584490  26.8899390  64.4458410  41.8332180
  28.1453320  63.6444140  42.1044790  17.8090890  66.1127780  35.2188450
  18.5754160  66.0009140  35.7813880  17.8865580  65.4165750  34.5665220
  16.5037650  63.5452850  35.9021340  16.5841240  62.5980360  36.0138740
  17.3957400  63.8759730  36.0082000  29.8334830  71.6017030  43.3338750
  29.9582250  72.4248200  43.8062560  30.7000390  71.3907760  42.9862900
  17.3052360  73.6948240  43.0055880  18.0414840  73.1463700  43.2764450
  17.6893280  74.5604250  42.8661870  14.1897840  69.7621810  38.8797390
  13.2637620  70.0042950  38.8702800  14.6554270  70.5896070  38.7582140
  16.3110640  72.8794310  52.1941460  17.1123370  73.2006360  52.6076860
  15.7962460  72.5189890  52.9161370  20.4154670  72.8678550  34.8281450
  21.2083280  73.1567380  34.3763240  19.8959020  72.4370720  34.1493930
  25.1475270  68.9874180  52.1416870  24.5413430  69.0105780  51.4012620
  24.8429380  68.2557220  52.6784120  26.5775640  72.7154470  50.7526280
  27.5297390  72.6312490  50.7026520  26.4303860  73.3796180  51.4260070
  29.4684840  72.0948680  36.2518190  29.1826350  71.6813820  35.4372370
  29.2704390  73.0236390  36.1318710  14.0308450  65.3667770  51.1377510
  14.5347470  64.7875050  51.7093740  13.2915870  65.6508000  51.6753880
  20.9332070  68.0881960  34.6923800  20.8282710  67.4734310  35.4185180
  20.7656290  67.5647850  33.9086810  21.0846390  66.7738760  50.6713030
  20.3192060  67.3423760  50.5867700  21.2662350  66.4814970  49.7781260
  24.1734800  67.1501990  35.2965790  23.6244900  67.5971290  35.9408530
  24.7954060  66.6451240  35.8203460  28.2269740  68.5044090  51.2288050
  28.9679210  68.8419850  50.7255510  27.4642420  68.6736150  50.6757820
  16.0631530  63.5097360  52.0327580  16.1036870  63.2111230  52.9412810
  16.9177030  63.9104970  51.8735100  19.8409920  66.1092910  37.1931090
  20.2626340  65.9432780  38.0362480  19.9660760  65.2993140  36.6986230
  18.0037340  62.0889460  50.0002070  17.4733800  61.5980410  49.3725410
  18.6725410  62.5173660  49.4660000  22.3537560  65.1330520  34.4408190
  22.8743220  64.4179540  34.0749340  23.0005960  65.7716390  34.7408700
  26.9015400  66.5558920  49.7643260  27.3156420  66.7104000  50.6133680
  25.9666400  66.6814140  49.9269040  27.3737570  63.8955080  51.7682410
  27.9558340  63.1407400  51.6802890  27.5499340  64.4262520  50.9913890
  18.4909640  59.0551830  50.0799360  18.3966510  58.4372580  49.3550230
  17.9107030  59.7818120  49.8529270  21.2571080  57.6125070  47.1126750
  20.8088380  57.6349330  46.2672300  20.6236280  57.2144090  47.7097050
  21.6630630  66.5079400  47.7339190  22.0818740  67.3512130  47.5615430
  20.7439260  66.6451440  47.5045970  23.9994530  64.2395580  49.1177030
  24.1190740  63.6436720  49.8571870  24.8588530  64.2765270  48.6978330
  26.3382430  64.7932770  47.6939540  25.8117650  65.3175390  47.0904680
  26.6813770  65.4260160  48.3249270  18.7368820  62.1826140  34.1389250
  18.5357880  61.3193500  34.5002590  18.5660870  62.0959500  33.2010850
  19.5138050  72.8132410  48.8496920  18.9759140  73.5378470  48.5305620
  19.7672010  72.3362750  48.0594260  20.7663300  60.7816930  50.3752850
  21.3562990  60.4732780  51.0630670  19.9483540  60.3096680  50.5312750
  25.5856730  60.3982740  50.6085870  24.8972250  59.7364280  50.5435860
  26.3062750  59.9521010  51.0534330  17.5351620  59.2826760  34.1267130
  17.8377520  59.2894190  33.2186280  18.2746210  58.9324620  34.6234790
  22.3700260  74.0483620  49.1083570  22.2958960  74.9518760  49.4155940
  21.4679100  73.7295520  49.0805640  20.7536550  58.2261380  35.1123330
  20.4058550  57.5485370  34.5325780  20.9549320  57.7650890  35.9266720
  22.9185590  73.2142130  36.7309930  23.8136380  73.5527100  36.7528690
  22.9503220  72.4921540  36.1034210  16.5581750  68.5869180  34.9596930
  16.9956620  69.1298850  35.6154510  17.0429480  67.7616130  34.9693270
  13.7727550  71.3758210  42.4117190  14.1030560  70.5079270  42.1795830
  14.2018550  71.5816730  43.2422150  18.3689470  69.7067220  40.0719160
  18.0685010  69.5832190  40.9723070  18.2626960  68.8475810  39.6634890
  14.2617760  72.2428800  45.1498820  13.8248750  72.4229600  45.9822970
  14.8295440  73.0003420  45.0080540  29.8979940  71.7445800  49.4376130
  29.2981930  71.8038360  48.6940050  30.0273840  70.8050780  49.5672980
  31.1381390  69.4863620  34.7745840  30.3074350  69.5540270  35.2453070
  31.3153220  70.3767740  34.4712700  30.5937850  66.2311100  37.2780040
  31.3556760  66.8007750  37.3839730  30.6092220  65.6638300  38.0488350
  14.0942190  64.7549030  41.5087700  13.4391030  64.4860670  40.8647400
  14.9320140  64.6453510  41.0589680  31.5997820  67.0861200  42.1221970
  31.9706650  66.3028520  41.7157940  32.2399750  67.7750300  41.9439270
  28.5831580  68.4697780  47.5352290  27.7691420  68.8994940  47.7978080
  28.9905780  69.0816190  46.9221340  30.6457020  66.5245470  34.4352560
  30.9205860  67.4324350  34.3071780  30.4567760  66.4608000  35.3714550
  15.1318120  65.1401600  46.0491040  15.4991160  65.0529000  46.9287060
  14.5628940  64.3768150  45.9497900  29.9321980  63.6085980  49.0621510
  29.7008070  63.3798730  48.1619460  30.1926530  64.5285530  49.0166400
  14.6834120  62.0510690  49.9549460  13.7890170  62.0177450  50.2943170
  15.2231670  62.2497480  50.7200710  28.3710050  58.8342410  51.8401210
  29.2480230  58.8425810  52.2235210  28.3830890  58.0973250  51.2293560
  13.3080270  61.9647960  37.4513030  12.4044350  62.2278160  37.2764690
  13.7920890  62.2359130  36.6712990  29.9963040  62.7711820  46.2508780
  29.0465750  62.7375360  46.3653770  30.1776050  63.6811930  46.0158550
  15.8507480  61.0213500  35.3607410  16.5599180  60.5996720  34.8754690
  15.1347420  61.0888730  34.7290760  15.4981640  57.0752830  34.4010060
  16.2209770  57.6161770  34.7191280  15.7706160  56.8016250  33.5251600
  15.1873830  56.3259020  44.3032680  15.8350020  55.7756400  43.8627840
  15.6075670  56.5802170  45.1248490  29.0826170  56.5200380  47.6602320
  29.7198390  57.1334520  48.0261510  29.2301060  56.5561040  46.7151550
  28.6407630  73.2216380  41.0620560  29.2366700  72.9000950  40.3854980
  28.8985780  72.7488200  41.8533830  14.9405830  56.4814690  47.0458000
  14.5920650  56.9378510  47.8116180  14.6093530  55.5871820  47.1280430
  16.5470200  69.6534290  51.2111190  16.5039830  69.2827200  52.0925650
  16.6781210  70.5911860  51.3513010  20.2476230  71.2093880  46.8120910
  20.0067590  71.4768440  45.9251430  21.1878870  71.3799610  46.8671770
  22.4530650  57.6726570  50.5677420  22.3919540  58.2648400  51.3172830
  23.3931030  57.5652530  50.4227680  25.0905210  57.3296630  50.2069710
  25.7045620  57.6475920  49.5450790  25.6354770  56.8445220  50.8265570
  31.5080390  73.2288260  47.6131550  31.0138670  73.6257130  46.8958680
  30.8993680  72.6037470  48.0068830  15.6126470  56.0090890  50.3208770
  16.1609460  55.8278940  49.5574880  15.6781780  55.2185000  50.8565080
  16.3858230  72.5996540  48.3308970  15.7918550  72.4681240  49.0699010
  16.3782070  71.7634680  47.8651070  25.8313250  55.8928770  46.5339000
  24.9573090  56.2263880  46.3311930  25.7224000  55.4201950  47.3590870
  26.7385230  58.0999640  47.9180720  26.4098590  57.2851400  47.5382450
  27.6867530  58.0569450  47.7946410  29.1919840  73.8711680  44.8918290
  28.7322810  74.6227490  44.5176310  28.5632300  73.1518150  44.8333090
  16.0170460  69.9654920  47.2817010  15.2904520  69.3460210  47.2142960
  16.0779610  70.3595530  46.4115090  19.6215560  72.1799920  44.0666420
  20.1380580  71.5687280  43.5414680  20.2712940  72.6828700  44.5577430
  22.3611060  73.0708410  44.8935400  22.6488870  72.8162710  44.0168410
  22.8734280  72.5185770  45.4840970  23.5788070  56.8098610  45.4731910
  22.7959860  57.2844110  45.7528670  23.2851000  55.9053440  45.3645090
  28.1309140  57.5121710  43.5181000  28.5717230  57.4566810  42.6702600
  27.8616730  58.4279720  43.5891180  14.3000460  73.2829310  40.4913770
  14.1322500  72.6499990  41.1895660  13.4334970  73.4888710  40.1407960
  14.9228480  57.1146090  37.9945630  15.6807840  57.2274970  37.4209660
  14.4605650  57.9515290  37.9489060  21.4642290  59.2285360  40.9847940
  20.6516800  58.8542250  40.6443820  21.9683930  58.4730440  41.2869130
  25.9667270  55.8927810  42.2231010  26.5696640  56.4648020  42.6979530
  25.2260260  56.4567250  42.0004910  15.9063160  71.9762540  37.9363910
  15.3810780  72.3570570  37.2325870  15.8307740  72.6013310  38.6573620
  17.2953630  57.6410140  36.5347600  17.8246390  56.8539940  36.4055550
  17.9281950  58.3201330  36.7683130  19.4891470  57.3785280  39.5892990
  18.8594210  56.6772590  39.7563120  18.9496610  58.1389410  39.3726150
  22.4283420  73.9924510  52.2603600  23.3550730  73.7568780  52.3039560
  22.4133850  74.8196510  51.7789630  30.6628480  73.5350080  39.2577850
  30.8380670  72.8487820  38.6138770  29.9650050  74.0597130  38.8654520
  19.6147030  56.6569260  52.0245480  19.3331300  57.1602860  51.2606300
  19.9966730  55.8591010  51.6587610  18.5056130  73.9244920  36.8113160
  19.2374950  73.6404200  36.2637050  18.7649800  73.6858200  37.7012540
  17.6670920  70.0409650  36.8159490  17.0379800  70.5094750  37.3645320
  17.7818750  69.1958870  37.2505680  26.2162490  56.0722840  52.6025950
  26.1027940  56.3917450  53.4977470  27.0332230  56.4735350  52.3063230
  28.9960980  73.2194370  52.0844640  29.7886300  72.7243600  51.8770600
  29.2894130  73.8984510  52.6920250  17.2704510  66.1814140  25.7245720
  16.4389390  65.9262850  26.1242230  17.8785490  66.2524910  26.4603640
  15.6796460  61.1416030  19.5088110  14.7913160  61.4832000  19.4067990
  15.9637650  60.9416350  18.6168940  13.6429470  63.7421680  25.3927810
  14.2145580  62.9743880  25.3931450  13.6431010  64.0410440  24.4834420
  14.8854340  59.1506040  27.1796740  14.7057180  58.2531790  27.4599500
  14.4834420  59.6977910  27.8543690  17.8557850  59.7247530  20.5426490
  17.9624600  60.6251260  20.8495250  16.9450210  59.6765500  20.2521140
  15.5041010  61.6466540  25.7879080  16.1851120  61.9104910  26.4066480
  15.1889060  60.8067410  26.1217090  17.9801680  57.3332460  29.1415090
  17.9820120  57.8504850  28.3360990  17.1505990  56.8562640  29.1185020
  17.6617010  59.0442420  27.1485540  18.0033820  59.8884470  26.8539410
  16.7232820  59.1926160  27.2650880  13.7355970  68.1308300  18.0144620
  13.3583950  68.6195400  17.2829520  13.9929040  68.8033580  18.6451150
  23.7194740  60.8690520  17.2057410  22.7798410  61.0304480  17.2909870
  24.0378000  61.5876200  16.6593400  18.8982430  68.5487510  31.8056990
  18.0010960  68.7727480  32.0530390  18.9235300  68.6722450  30.8568390
  17.7253650  65.4200830  30.3814360  17.5861420  66.2923630  30.7501760
  16.8435010  65.0773640  30.2362300  19.5234000  71.3622530  32.5899510
  19.4949430  71.7665480  31.7227940  19.3598970  70.4332890  32.4271110
  29.5204790  56.6523440  16.0339290  29.2077450  56.7450270  16.9338360
  30.2817260  57.2304470  15.9836720  16.0386930  64.0183240  20.4916630
  15.9184530  64.7445330  19.8797900  15.7287820  63.2486150  20.0144540
  13.6772300  67.1898380  26.2985270  13.7552720  67.3247150  25.3540990
  14.2913980  66.4814270  26.4913390  14.9219930  68.8898570  22.7091450
  14.5148010  69.0313160  21.8545050  15.8132940  68.6058730  22.5062660
  26.7153210  73.3245820  19.0442500  26.5554350  73.0348760  19.9424330
  26.5499920  72.5485950  18.5087730  26.4179340  70.8333380  17.6040500
  25.7244500  70.8310670  16.9442780  27.1602200  70.4092700  17.1734670
  13.7331820  68.2312550  28.8379730  13.8962860  67.7617910  28.0199100
  14.1984270  67.7236110  29.5028570  18.5050590  57.3618310  23.8740300
  18.0618740  58.1427850  23.5424820  19.0635580  57.6848200  24.5811240
  15.8674560  59.7951130  30.4215600  15.4737950  60.6426340  30.6288380
  15.1792960  59.1577500  30.6124240  22.4419610  59.8786100  33.4912340
  21.7517930  59.6858300  34.1258430  23.1851910  60.1620740  34.0236640
  13.1691610  57.7179590  24.4545680  12.8804660  58.2882450  25.1670660
  13.9137370  57.2384040  24.8176910  13.3561840  61.6599710  15.6648400
  13.2736510  62.6030470  15.8063390  13.0044900  61.5174620  14.7860750
  20.2301620  63.7051960  17.1208810  19.6618520  63.2570210  16.4944720
  20.9390620  64.0644740  16.5873960  15.3070800  67.6063980  30.9975540
  14.9225590  66.9657650  31.5958500  15.6182990  68.3100100  31.5670270
  14.3208430  59.1984210  22.6077630  14.0355350  58.8339880  23.4456250
  14.2587290  58.4664670  21.9940770  19.2467310  63.4949160  28.7968370
  18.9424380  64.3741140  29.0218730  20.2013770  63.5548950  28.8325810
  17.7749100  67.7010150  19.3935220  17.0011360  67.1607770  19.2333940
  18.5043730  67.1816760  19.0552980  17.8186500  67.3690530  23.0314030
  18.3365170  66.5658790  22.9770920  17.3670520  67.3069670  23.8730860
  22.7056000  68.6356810  18.3041330  23.0471700  69.3799040  17.8084650
  21.8768710  68.9487930  18.6666160  15.3031040  64.3351900  29.9439730
  14.9445980  65.0005750  30.5313070  15.0085600  63.5035450  30.3152350
  18.5044160  64.7936140  32.8279280  18.2044300  64.9393320  31.9307100
  19.2755400  64.2341430  32.7352670  28.9809680  63.7744960  17.0933020
  28.8973400  64.2059180  16.2429460  29.7003870  64.2343310  17.5259840
  30.0096930  70.6287220  19.8215150  29.3673090  69.9742840  20.0958870
  29.6227590  71.0342310  19.0455820  13.8139090  64.3343160  16.5674330
  14.6833940  64.6167960  16.8510250  13.3229410  65.1479030  16.4523140
  16.8785680  56.0654020  21.1605130  16.7500310  56.0571920  22.1090050
  16.0547700  56.4037110  20.8096140  28.3994310  69.5203680  16.3591500
  28.1731890  68.8034120  16.9516140  28.0090510  69.2716120  15.5213250
  13.8779610  57.8245140  30.6211830  13.1638130  58.0242060  31.2264440
  14.2974650  57.0484710  30.9926630  27.9810560  67.4375620  18.0205660
  27.6932260  67.8988310  18.8083540  28.7762730  66.9773390  18.2889880
  14.1652200  71.8125400  31.6078360  14.2743320  70.8720140  31.4673750
  13.5132760  72.0780150  30.9592090  22.1564790  70.0841290  33.0076480
  21.8361660  69.3650530  33.5522170  21.4823150  70.7596360  33.0812540
  15.7985600  66.1516630  18.6956390  15.1913550  66.8915530  18.7051690
  16.2734950  66.2415990  17.8694590  23.1838560  70.9929980  16.6134820
  23.2850540  70.7893970  15.6836800  22.2840300  70.7388260  16.8182600
  17.8090890  66.1127780  16.4444960  18.5754160  66.0009140  17.0070390
  17.8865580  65.4165750  15.7921730  16.5037650  63.5452850  17.1277850
  16.5841240  62.5980360  17.2395250  17.3957400  63.8759730  17.2338510
  16.3110640  72.8794310  33.4197970  17.1123370  73.2006360  33.8333370
  15.7962460  72.5189890  34.1417880  29.4684840  72.0948680  17.4774700
  29.1826350  71.6813820  16.6628880  29.2704390  73.0236390  17.3575220
  14.0308450  65.3667770  32.3634020  14.5347470  64.7875050  32.9350250
  13.2915870  65.6508000  32.9010390  20.9332070  68.0881960  15.9180310
  20.8282710  67.4734310  16.6441690  20.7656290  67.5647850  15.1343320
  21.0846390  66.7738760  31.8969540  20.3192060  67.3423760  31.8124210
  21.2662350  66.4814970  31.0037770  24.1734800  67.1501990  16.5222300
  23.6244900  67.5971290  17.1665040  24.7954060  66.6451240  17.0459970
  16.0631530  63.5097360  33.2584090  16.1036870  63.2111230  34.1669320
  16.9177030  63.9104970  33.0991610  19.8409920  66.1092910  18.4187600
  20.2626340  65.9432780  19.2618990  19.9660760  65.2993140  17.9242740
  18.0037340  62.0889460  31.2258580  17.4733800  61.5980410  30.5981920
  18.6725410  62.5173660  30.6916510  22.3537560  65.1330520  15.6664700
  22.8743220  64.4179540  15.3005850  23.0005960  65.7716390  15.9665210
  18.4909640  59.0551830  31.3055870  18.3966510  58.4372580  30.5806740
  17.9107030  59.7818120  31.0785780  21.2571080  57.6125070  28.3383260
  20.8088380  57.6349330  27.4928810  20.6236280  57.2144090  28.9353560
  18.7368820  62.1826140  15.3645760  18.5357880  61.3193500  15.7259100
  18.5660870  62.0959500  14.4267360  20.7663300  60.7816930  31.6009360
  21.3562990  60.4732780  32.2887180  19.9483540  60.3096680  31.7569260
  26.2157130  56.9934370  17.8932640  26.4959420  56.1502270  18.2492060
  25.4422860  57.2257480  18.4071390  17.5351620  59.2826760  15.3523640
  17.8377520  59.2894190  14.4442790  18.2746210  58.9324620  15.8491300
  22.3700260  74.0483620  30.3340080  22.2958960  74.9518760  30.6412450
  21.4679100  73.7295520  30.3062150  16.5581750  68.5869180  16.1853440
  16.9956620  69.1298850  16.8411020  17.0429480  67.7616130  16.1949780
  31.1381390  69.4863620  16.0002350  30.3074350  69.5540270  16.4709580
  31.3153220  70.3767740  15.6969210  30.5937850  66.2311100  18.5036550
  31.3556760  66.8007750  18.6096240  30.6092220  65.6638300  19.2744860
  14.0942190  64.7549030  22.7344210  13.4391030  64.4860670  22.0903910
  14.9320140  64.6453510  22.2846190  31.5997820  67.0861200  23.3478480
  31.9706650  66.3028520  22.9414450  32.2399750  67.7750300  23.1695780
  30.6457020  66.5245470  15.6609070  30.9205860  67.4324350  15.5328290
  30.4567760  66.4608000  16.5971060  27.0432630  59.5490320  16.9562700
  27.4617510  59.3621300  16.1159360  26.7368690  58.6969370  17.2665630
  30.5422360  64.4614460  20.6538500  30.1665960  63.6942390  20.2219790
  29.8125480  64.8437160  21.1413430  15.1318120  65.1401600  27.2747550
  15.4991160  65.0529000  28.1543570  14.5628940  64.3768150  27.1754410
  14.6834120  62.0510690  31.1805970  13.7890170  62.0177450  31.5199680
  15.2231670  62.2497480  31.9457220  13.3080270  61.9647960  18.6769540
  12.4044350  62.2278160  18.5021200  13.7920890  62.2359130  17.8969500
  15.8507480  61.0213500  16.5863920  16.5599180  60.5996720  16.1011200
  15.1347420  61.0888730  15.9547270  15.4981640  57.0752830  15.6266570
  16.2209770  57.6161770  15.9447790  15.7706160  56.8016250  14.7508110
  15.1873830  56.3259020  25.5289190  15.8350020  55.7756400  25.0884350
  15.6075670  56.5802170  26.3505000  31.6250720  58.4114170  15.6681970
  32.5500030  58.2795350  15.4600260  31.6026510  58.4906990  16.6218420
  14.9405830  56.4814690  28.2714510  14.5920650  56.9378510  29.0372690
  14.6093530  55.5871820  28.3536940  16.5470200  69.6534290  32.4367700
  16.5039830  69.2827200  33.3182160  16.6781210  70.5911860  32.5769520
  22.4530650  57.6726570  31.7933930  22.3919540  58.2648400  32.5429340
  23.3931030  57.5652530  31.6484190  15.6126470  56.0090890  31.5465280
  16.1609460  55.8278940  30.7831390  15.6781780  55.2185000  32.0821590
  14.9228480  57.1146090  19.2202140  15.6807840  57.2274970  18.6466170
  14.4605650  57.9515290  19.1745570  17.2953630  57.6410140  17.7604110
  17.8246390  56.8539940  17.6312060  17.9281950  58.3201330  17.9939640
  22.4283420  73.9924510  33.4860110  23.3550730  73.7568780  33.5296070
  22.4133850  74.8196510  33.0046140  30.6628480  73.5350080  20.4834360
  30.8380670  72.8487820  19.8395280  29.9650050  74.0597130  20.0911030
  19.6147030  56.6569260  33.2501990  19.3331300  57.1602860  32.4862810
  19.9966730  55.8591010  32.8844120  17.6670920  70.0409650  18.0416000
  17.0379800  70.5094750  18.5901830  17.7818750  69.1958870  18.4762190
  25.1220640  64.0915310   4.1917200  25.0414690  63.1769920   3.9208910
  24.7085060  64.5882380   3.4856910  23.2538680  65.8694330   6.0726470
  22.4780780  65.3894770   6.3625040  23.9051610  65.1899980   5.8982630
  17.2704510  66.1814140   6.9502230  16.4389390  65.9262850   7.3498740
  17.8785490  66.2524910   7.6860150  27.2746110  70.2754520   4.8525600
  26.8127640  69.5041760   5.1812770  28.0871660  70.3020590   5.3578050
  17.2505770  70.2154230   7.1460250  17.5533810  69.3251970   6.9670470
  17.9949360  70.7724450   6.9182500  13.6429470  63.7421680   6.6184320
  14.2145580  62.9743880   6.6187960  13.6431010  64.0410440   5.7090930
  23.5009420  72.5612530   4.4729590  22.8820860  73.0170030   3.9024030
  24.3561200  72.7163990   4.0719290  22.6947670  68.5451520   6.0796630
  22.6255950  67.6041460   5.9185760  23.4567530  68.6352930   6.6519200
  14.8854340  59.1506040   8.4053250  14.7057180  58.2531790   8.6856010
  14.4834420  59.6977910   9.0800200  23.7252840  61.3521900   6.3065560
  24.1017660  60.4793780   6.1939230  23.6272350  61.6880600   5.4156000
  17.8557850  59.7247530   1.7683000  17.9624600  60.6251260   2.0751760
  16.9450210  59.6765500   1.4777650  27.5076960  58.8472340   3.2393900
  28.3286580  58.3568910   3.2819380  27.5411040  59.4370000   3.9925740
  15.5041010  61.6466540   7.0135590  16.1851120  61.9104910   7.6322990
  15.1889060  60.8067410   7.3473600  19.6965580  62.6933900   6.1008180
  20.2043800  63.1914870   6.7413200  20.2278820  61.9169100   5.9247540
  31.7976510  60.8639090   9.8037530  31.0928680  61.2520800   9.2852640
  32.0634430  61.5589380  10.4058460  17.9801680  57.3332460  10.3671600
  17.9820120  57.8504850   9.5617500  17.1505990  56.8562640  10.3441530
  19.2304530  66.9727640   8.5445100  18.8973910  67.5996560   9.1866170
  19.4071210  67.4989520   7.7646770  27.7438440  60.7872720   6.0121440
  27.0394010  61.0757610   6.5924550  28.1050600  61.5972830   5.6521000
  17.6617010  59.0442420   8.3742050  18.0033820  59.8884470   8.0795920
  16.7232820  59.1926160   8.4907390  18.4423630  68.9408440  10.3594280
  19.0597630  69.6159520  10.0778730  17.5816750  69.3496420  10.2681780
  29.3601220  70.4047850   8.2748920  28.6764740  71.0746960   8.2665590
  29.8995510  70.6028500   7.5093780  30.8125360  60.2327510   6.4030650
  29.8650270  60.2666490   6.5346080  31.1375350  61.0466460   6.7880010
  21.3444900  56.5324690   4.6986640  21.6519880  55.9771580   3.9822140
  20.4145600  56.6669150   4.5159630  26.8959960  72.2491980   6.9894100
  26.9087120  71.8454270   6.1216360  26.3435180  73.0239270   6.8855530
  28.1905380  68.9708200   2.0784270  28.0801710  68.0282530   2.2033690
  28.1873630  69.3323840   2.9647030  26.2945400  67.1521820   8.3176710
  26.7114190  66.9381930   7.4830170  27.0185220  67.4094610   8.8885330
  30.2407500  65.5509040   8.4092950  29.4126130  65.6202130   7.9343080
  30.8357980  66.1363350   7.9408780  27.2049510  62.3378360   9.3547820
  26.7920690  63.1632070   9.6087810  26.4725460  61.7523400   9.1624180
  19.3382300  65.1238260   4.2166490  18.9339300  64.4115510   3.7212390
  19.4245420  64.7791500   5.1054530  19.8064000  68.8105820   6.3805700
  19.5092290  68.2051290   5.7013480  20.7563820  68.8483130   6.2695060
  18.0510920  61.8981470   7.9965530  18.6025510  62.0076810   7.2218780
  18.5654430  62.2719070   8.7120760  27.8949610  72.3837690  10.0428800
  27.4180170  73.1909880   9.8501410  27.2111400  71.7316020  10.1955010
  18.8982430  68.5487510  13.0313500  18.0010960  68.7727480  13.2786900
  18.9235300  68.6722450  12.0824900  17.7253650  65.4200830  11.6070870
  17.5861420  66.2923630  11.9758270  16.8435010  65.0773640  11.4618810
  24.0483030  70.3376700   2.9136000  24.4878940  71.0801030   2.4991390
  23.9869920  70.5803270   3.8374960  19.5234000  71.3622530  13.8156020
  19.4949430  71.7665480  12.9484450  19.3598970  70.4332890  13.6527620
  31.4748820  72.1449630  15.1120190  31.9508540  72.6232520  15.7909270
  32.0955980  72.0767120  14.3865690  13.6772300  67.1898380   7.5241780
  13.7552720  67.3247150   6.5797500  14.2913980  66.4814270   7.7169900
  14.9219930  68.8898570   3.9347960  14.5148010  69.0313160   3.0801560
  15.8132940  68.6058730   3.7319170  30.8782070  69.3362480  12.2720200
  31.0045130  69.0974360  11.3537380  30.9203450  68.5047020  12.7442280
  24.7398810  73.0390480  10.8415010  25.2543480  72.9498490  11.6437440
  23.8967890  73.3850180  11.1342920  19.1941590  73.1044350   2.0470630
  19.0184070  72.1879890   1.8338430  18.3397330  73.4631640   2.2868430
  25.9829270  72.4596090   2.9045500  26.4386220  71.6785470   3.2184120
  26.3221790  73.1702910   3.4486680  30.7306080  61.3894940  13.2369940
  30.1150350  61.8974610  12.7085400  30.4102500  60.4893270  13.1795880
  13.7331820  68.2312550  10.0636240  13.8962860  67.7617910   9.2455610
  14.1984270  67.7236110  10.7285080  18.5050590  57.3618310   5.0996810
  18.0618740  58.1427850   4.7681330  19.0635580  57.6848200   5.8067750
  22.7920400  60.2286830  10.7032130  22.3299770  60.4369850  11.5152070
  22.3898510  59.4146180  10.4002800  27.7924910  61.4495780  11.8328790
  26.9418500  61.1501530  12.1537860  27.6326700  61.6937790  10.9212610
  24.8874620  62.9497530  13.9327580  25.2128030  62.1161280  13.5929810
  25.6754950  63.4726050  14.0805910  20.5426490  57.9065640   6.9586410
  20.8398820  58.8128470   6.8778430  21.0912050  57.4184420   6.3445980
  18.2964810  62.4851880   2.8278060  18.0705730  62.2689050   3.7324680
  17.5157340  62.9180340   2.4824030  20.7364020  63.3837460  13.4938330
  20.6407620  62.4432190  13.3438730  21.5796000  63.6052530  13.0986400
  24.1327440  61.1278790   3.4571990  24.5257010  61.4450990   2.6440680
  24.4944290  60.2490670   3.5716510  15.8674560  59.7951130  11.6472110
  15.4737950  60.6426340  11.8544890  15.1792960  59.1577500  11.8380750
  22.4419610  59.8786100  14.7168850  21.7517930  59.6858300  15.3514940
  23.1851910  60.1620740  15.2493150  13.1691610  57.7179590   5.6802190
  12.8804660  58.2882450   6.3927170  13.9137370  57.2384040   6.0433420
  24.7182580  63.7184540   7.5522770  23.9863700  64.2271350   7.9012870
  24.3206920  62.9014520   7.2511550  21.1559970  60.3938740   5.9575260
  21.1596030  59.9528690   5.1079800  22.0511090  60.7156070   6.0647080
  17.0062350  60.2765230   4.9169470  16.6662400  60.7540460   5.6736520
  16.2439670  59.8230350   4.5570570  25.1808490  59.1718220   6.9645710
  25.1981230  59.6226870   7.8087560  24.9324070  58.2723860   7.1779150
  28.6079240  56.5850400  12.8032090  28.9325010  55.8540060  13.3290070
  28.6435750  56.2664040  11.9013080  15.3070800  67.6063980  12.2232050
  14.9225590  66.9657650  12.8215010  15.6182990  68.3100100  12.7926780
  21.4567940  64.4540520   7.7040670  21.8238070  63.9799090   8.4502010
  21.2673000  65.3282090   8.0449010  14.3208430  59.1984210   3.8334140
  14.0355350  58.8339880   4.6712760  14.2587290  58.4664670   3.2197280
  19.2467310  63.4949160  10.0224880  18.9424380  64.3741140  10.2475240
  20.2013770  63.5548950  10.0582320  28.5337080  66.6975510   6.4118120
  29.2536200  67.1930800   6.0214230  28.3318900  66.0193400   5.7671990
  23.9155880  66.7684570  12.2987120  23.8493190  65.8480240  12.0444710
  23.2861020  66.8660010  13.0131760  17.8186500  67.3690530   4.2570540
  18.3365170  66.5658790   4.2027430  17.3670520  67.3069670   5.0987370
  15.3031040  64.3351900  11.1696240  14.9445980  65.0005750  11.7569580
  15.0085600  63.5035450  11.5408860  18.5044160  64.7936140  14.0535790
  18.2044300  64.9393320  13.1563610  19.2755400  64.2341430  13.9609180
  23.8472610  69.5905140  12.0490920  23.8617150  68.6586100  11.8309830
  23.1397710  69.6764900  12.6880690  30.0583820  66.2312480  11.3959500
  29.3332010  66.8241260  11.1988890  30.5859280  66.2236020  10.5972870
  25.5883410  67.9572650   4.8943350  25.9407230  67.3600780   4.2344720
  24.7045740  67.6316880   5.0651600  21.6746690  68.7170340   2.3013760
  22.3617820  69.2639550   2.6821350  20.8879110  69.2611070   2.3363370
  20.9773900  65.7216370   1.9139120  21.4336680  66.5321620   2.1399310
  20.6262110  65.4039510   2.7457610  23.2806510  71.2322710   9.1431420
  23.9248730  71.4382090   9.8204840  23.6435950  70.4711110   8.6902270
  16.8785680  56.0654020   2.3861640  16.7500310  56.0571920   3.3346560
  16.0547700  56.4037110   2.0352650  24.5538590  69.2355060   7.8608870
  25.1960820  68.5348220   7.9741040  25.0787940  70.0153500   7.6805760
  26.3276210  70.0349960  11.0644930  26.6632450  70.6216650  11.7422850
  25.4076550  69.9042670  11.2942720  13.8779610  57.8245140  11.8468340
  13.1638130  58.0242060  12.4520950  14.2974650  57.0484710  12.2183140
  14.1652200  71.8125400  12.8334870  14.2743320  70.8720140  12.6930260
  13.5132760  72.0780150  12.1848600  22.1564790  70.0841290  14.2332990
  21.8361660  69.3650530  14.7778680  21.4823150  70.7596360  14.3069050
  25.3718390  60.3167450   9.5969790  25.7399210  59.4962660   9.9249360
  24.5116590  60.3769340  10.0125440  20.7064450  61.5510340   1.8215230
  19.9980600  62.0196680   2.2628840  20.9908930  60.8932350   2.4560420
  22.3320380  62.9707040   9.8207760  22.8305630  63.4452860  10.4859610
  22.4743330  62.0470560  10.0277790  24.7379880  58.2761000   3.2611020
  24.6147660  58.2947130   2.3120530  25.6864440  58.3239940   3.3809420
  21.8256670  73.5116300   2.5339000  22.0798170  73.4737690   1.6118370
  20.8769150  73.3849630   2.5267250  29.5387240  59.1875000  10.6636150
  29.0360840  59.9280400  11.0029960  30.3543900  59.5759000  10.3472940
  27.8309250  64.4308180   4.1097510  26.8899390  64.4458410   4.2845200
  28.1453320  63.6444140   4.5557810  29.8334830  71.6017030   5.7851770
  29.9582250  72.4248200   6.2575580  30.7000390  71.3907760   5.4375920
  17.3052360  73.6948240   5.4568900  18.0414840  73.1463700   5.7277470
  17.6893280  74.5604250   5.3174890  16.3110640  72.8794310  14.6454480
  17.1123370  73.2006360  15.0589880  15.7962460  72.5189890  15.3674390
  25.1475270  68.9874180  14.5929890  24.5413430  69.0105780  13.8525640
  24.8429380  68.2557220  15.1297140  26.5775640  72.7154470  13.2039300
  27.5297390  72.6312490  13.1539540  26.4303860  73.3796180  13.8773090
  14.0308450  65.3667770  13.5890530  14.5347470  64.7875050  14.1606760
  13.2915870  65.6508000  14.1266900  21.0846390  66.7738760  13.1226050
  20.3192060  67.3423760  13.0380720  21.2662350  66.4814970  12.2294280
  28.2269740  68.5044090  13.6801070  28.9679210  68.8419850  13.1768530
  27.4642420  68.6736150  13.1270840  16.0631530  63.5097360  14.4840600
  16.1036870  63.2111230  15.3925830  16.9177030  63.9104970  14.3248120
  18.0037340  62.0889460  12.4515090  17.4733800  61.5980410  11.8238430
  18.6725410  62.5173660  11.9173020  26.9015400  66.5558920  12.2156280
  27.3156420  66.7104000  13.0646700  25.9666400  66.6814140  12.3782060
  27.3737570  63.8955080  14.2195430  27.9558340  63.1407400  14.1315910
  27.5499340  64.4262520  13.4426910  18.4909640  59.0551830  12.5312380
  18.3966510  58.4372580  11.8063250  17.9107030  59.7818120  12.3042290
  21.2571080  57.6125070   9.5639770  20.8088380  57.6349330   8.7185320
  20.6236280  57.2144090  10.1610070  21.6630630  66.5079400  10.1852210
  22.0818740  67.3512130  10.0128450  20.7439260  66.6451440   9.9558990
  23.9994530  64.2395580  11.5690050  24.1190740  63.6436720  12.3084890
  24.8588530  64.2765270  11.1491350  26.3382430  64.7932770  10.1452560
  25.8117650  65.3175390   9.5417700  26.6813770  65.4260160  10.7762290
  19.5138050  72.8132410  11.3009940  18.9759140  73.5378470  10.9818640
  19.7672010  72.3362750  10.5107280  20.7663300  60.7816930  12.8265870
  21.3562990  60.4732780  13.5143690  19.9483540  60.3096680  12.9825770
  25.5856730  60.3982740  13.0598890  24.8972250  59.7364280  12.9948880
  26.3062750  59.9521010  13.5047350  22.3700260  74.0483620  11.5596590
  22.2958960  74.9518760  11.8668960  21.4679100  73.7295520  11.5318660
  13.7727550  71.3758210   4.8630210  14.1030560  70.5079270   4.6308850
  14.2018550  71.5816730   5.6935170  18.3689470  69.7067220   2.5232180
  18.0685010  69.5832190   3.4236090  18.2626960  68.8475810   2.1147910
  14.2617760  72.2428800   7.6011840  13.8248750  72.4229600   8.4335990
  14.8295440  73.0003420   7.4593560  29.8979940  71.7445800  11.8889150
  29.2981930  71.8038360  11.1453070  30.0273840  70.8050780  12.0186000
  14.0942190  64.7549030   3.9600720  13.4391030  64.4860670   3.3160420
  14.9320140  64.6453510   3.5102700  31.5997820  67.0861200   4.5734990
  31.9706650  66.3028520   4.1670960  32.2399750  67.7750300   4.3952290
  28.5831580  68.4697780   9.9865310  27.7691420  68.8994940  10.2491100
  28.9905780  69.0816190   9.3734360  30.5422360  64.4614460   1.8795010
  30.1665960  63.6942390   1.4476300  29.8125480  64.8437160   2.3669940
  15.1318120  65.1401600   8.5004060  15.4991160  65.0529000   9.3800080
  14.5628940  64.3768150   8.4010920  29.9321980  63.6085980  11.5134530
  29.7008070  63.3798730  10.6132480  30.1926530  64.5285530  11.4679420
  14.6834120  62.0510690  12.4062480  13.7890170  62.0177450  12.7456190
  15.2231670  62.2497480  13.1713730  28.3710050  58.8342410  14.2914230
  29.2480230  58.8425810  14.6748230  28.3830890  58.0973250  13.6806580
  29.8173320  62.6871950   5.1802250  30.3410800  62.1934600   4.5492420
  30.4032740  62.8222310   5.9249820  29.9963040  62.7711820   8.7021800
  29.0465750  62.7375360   8.8166790  30.1776050  63.6811930   8.4671570
  15.1873830  56.3259020   6.7545700  15.8350020  55.7756400   6.3140860
  15.6075670  56.5802170   7.5761510  30.7360450  60.5806250   3.6532340
  30.6259730  60.4262290   4.5914610  31.4968040  60.0527190   3.4107750
  29.0826170  56.5200380  10.1115340  29.7198390  57.1334520  10.4774530
  29.2301060  56.5561040   9.1664570  28.6407630  73.2216380   3.5133580
  29.2366700  72.9000950   2.8368000  28.8985780  72.7488200   4.3046850
  14.9405830  56.4814690   9.4971020  14.5920650  56.9378510  10.2629200
  14.6093530  55.5871820   9.5793450  16.5470200  69.6534290  13.6624210
  16.5039830  69.2827200  14.5438670  16.6781210  70.5911860  13.8026030
  20.2476230  71.2093880   9.2633930  20.0067590  71.4768440   8.3764450
  21.1878870  71.3799610   9.3184790  22.4530650  57.6726570  13.0190440
  22.3919540  58.2648400  13.7685850  23.3931030  57.5652530  12.8740700
  25.0905210  57.3296630  12.6582730  25.7045620  57.6475920  11.9963810
  25.6354770  56.8445220  13.2778590  31.5080390  73.2288260  10.0644570
  31.0138670  73.6257130   9.3471700  30.8993680  72.6037470  10.4581850
  15.6126470  56.0090890  12.7721790  16.1609460  55.8278940  12.0087900
  15.6781780  55.2185000  13.3078100  16.3858230  72.5996540  10.7821990
  15.7918550  72.4681240  11.5212030  16.3782070  71.7634680  10.3164090
  25.8313250  55.8928770   8.9852020  24.9573090  56.2263880   8.7824950
  25.7224000  55.4201950   9.8103890  26.7385230  58.0999640  10.3693740
  26.4098590  57.2851400   9.9895470  27.6867530  58.0569450  10.2459430
  29.1919840  73.8711680   7.3431310  28.7322810  74.6227490   6.9689330
  28.5632300  73.1518150   7.2846110  16.0170460  69.9654920   9.7330030
  15.2904520  69.3460210   9.6655980  16.0779610  70.3595530   8.8628110
  19.6215560  72.1799920   6.5179440  20.1380580  71.5687280   5.9927700
  20.2712940  72.6828700   7.0090450  22.3611060  73.0708410   7.3448420
  22.6488870  72.8162710   6.4681430  22.8734280  72.5185770   7.9353990
  23.5788070  56.8098610   7.9244930  22.7959860  57.2844110   8.2041690
  23.2851000  55.9053440   7.8158110  28.1309140  57.5121710   5.9694020
  28.5717230  57.4566810   5.1215620  27.8616730  58.4279720   6.0404200
  29.9947710  57.1436950   3.9802840  29.9336110  56.1998170   3.8333860
  30.7739740  57.2517040   4.5256300  14.3000460  73.2829310   2.9426790
  14.1322500  72.6499990   3.6408680  13.4334970  73.4888710   2.5920980
  21.4642290  59.2285360   3.4360960  20.6516800  58.8542250   3.0956840
  21.9683930  58.4730440   3.7382150  25.9667270  55.8927810   4.6744030
  26.5696640  56.4648020   5.1492550  25.2260260  56.4567250   4.4517930
  19.4891470  57.3785280   2.0406010  18.8594210  56.6772590   2.2076140
  18.9496610  58.1389410   1.8239170  19.6147030  56.6569260  14.4758500
  19.3331300  57.1602860  13.7119320  19.9966730  55.8591010  14.1100630
  26.2162490  56.0722840  15.0538970  26.1027940  56.3917450  15.9490490
  27.0332230  56.4735350  14.7576250  28.9960980  73.2194370  14.5357660
  29.7886300  72.7243600  14.3283620  29.2894130  73.8984510  15.1433270
  25.1220640  45.3171820  60.5147670  25.0414690  44.4026430  60.2439380
  24.7085060  45.8138890  59.8087380  23.2538680  47.0950840  62.3956940
  22.4780780  46.6151280  62.6855510  23.9051610  46.4156490  62.2213100
  17.2704510  47.4070650  63.2732700  16.4389390  47.1519360  63.6729210
  17.8785490  47.4781420  64.0090620  27.2746110  51.5011030  61.1756070
  26.8127640  50.7298270  61.5043240  28.0871660  51.5277100  61.6808520
  17.2505770  51.4410740  63.4690720  17.5533810  50.5508480  63.2900940
  17.9949360  51.9980960  63.2412970  15.6796460  42.3672540  57.0575090
  14.7913160  42.7088510  56.9554970  15.9637650  42.1672860  56.1655920
  13.6429470  44.9678190  62.9414790  14.2145580  44.2000390  62.9418430
  13.6431010  45.2666950  62.0321400  23.5009420  53.7869040  60.7960060
  22.8820860  54.2426540  60.2254500  24.3561200  53.9420500  60.3949760
  22.6947670  49.7708030  62.4027100  22.6255950  48.8297970  62.2416230
  23.4567530  49.8609440  62.9749670  14.8854340  40.3762550  64.7283720
  14.7057180  39.4788300  65.0086480  14.4834420  40.9234420  65.4030670
  23.7252840  42.5778410  62.6296030  24.1017660  41.7050290  62.5169700
  23.6272350  42.9137110  61.7386470  17.8557850  40.9504040  58.0913470
  17.9624600  41.8507770  58.3982230  16.9450210  40.9022010  57.8008120
  27.5076960  40.0728850  59.5624370  28.3286580  39.5825420  59.6049850
  27.5411040  40.6626510  60.3156210  15.5041010  42.8723050  63.3366060
  16.1851120  43.1361420  63.9553460  15.1889060  42.0323920  63.6704070
  19.6965580  43.9190410  62.4238650  20.2043800  44.4171380  63.0643670
  20.2278820  43.1425610  62.2478010  24.3672770  48.6708280  58.1891970
  23.7490040  49.1357730  57.6254690  24.8796020  49.3635760  58.6061480
  19.2304530  48.1984150  64.8675570  18.8973910  48.8253070  65.5096640
  19.4071210  48.7246030  64.0877240  27.7438440  42.0129230  62.3351910
  27.0394010  42.3014120  62.9155020  28.1050600  42.8229340  61.9751470
  17.6617010  40.2698930  64.6972520  18.0033820  41.1140980  64.4026390
  16.7232820  40.4182670  64.8137860  13.7355970  49.3564810  55.5631600
  13.3583950  49.8451910  54.8316500  13.9929040  50.0290090  56.1938130
  29.3601220  51.6304360  64.5979390  28.6764740  52.3003470  64.5896060
  29.8995510  51.8285010  63.8324250  30.8125360  41.4584020  62.7261120
  29.8650270  41.4923000  62.8576550  31.1375350  42.2722970  63.1110480
  21.3444900  37.7581200  61.0217110  21.6519880  37.2028090  60.3052610
  20.4145600  37.8925660  60.8390100  26.8959960  53.4748490  63.3124570
  26.9087120  53.0710780  62.4446830  26.3435180  54.2495780  63.2086000
  28.1905380  50.1964710  58.4014740  28.0801710  49.2539040  58.5264160
  28.1873630  50.5580350  59.2877500  26.2945400  48.3778330  64.6407180
  26.7114190  48.1638440  63.8060640  27.0185220  48.6351120  65.2115800
  23.7325660  45.8230030  57.7577230  22.8054940  45.7567410  57.9865700
  23.8850480  46.7610160  57.6432470  23.7194740  42.0947030  54.7544390
  22.7798410  42.2560990  54.8396850  24.0378000  42.8132710  54.2080380
  30.2407500  46.7765550  64.7323420  29.4126130  46.8458640  64.2573550
  30.8357980  47.3619860  64.2639250  27.7622950  47.3850330  58.2612480
  27.1435370  47.0469880  57.6138780  27.7447400  46.7410090  58.9691670
  27.2049510  43.5634870  65.6778290  26.7920690  44.3888580  65.9318280
  26.4725460  42.9779910  65.4854650  19.3382300  46.3494770  60.5396960
  18.9339300  45.6372020  60.0442860  19.4245420  46.0048010  61.4285000
  19.8064000  50.0362330  62.7036170  19.5092290  49.4307800  62.0243950
  20.7563820  50.0739640  62.5925530  18.0510920  43.1237980  64.3196000
  18.6025510  43.2333320  63.5449250  18.5654430  43.4975580  65.0351230
  27.8949610  53.6094200  66.3659270  27.4180170  54.4166390  66.1731880
  27.2111400  52.9572530  66.5185480  25.9387650  46.6237140  55.2685230
  26.3780930  45.7859570  55.1223050  26.6516070  47.2566540  55.3549370
  24.0483030  51.5633210  59.2366470  24.4878940  52.3057540  58.8221860
  23.9869920  51.8059780  60.1605430  29.5204790  37.8779950  53.5826270
  29.2077450  37.9706780  54.4825340  30.2817260  38.4560980  53.5323700
  16.0386930  45.2439750  58.0403610  15.9184530  45.9701840  57.4284880
  15.7287820  44.4742660  57.5631520  13.6772300  48.4154890  63.8472250
  13.7552720  48.5503660  62.9027970  14.2913980  47.7070780  64.0400370
  14.9219930  50.1155080  60.2578430  14.5148010  50.2569670  59.4032030
  15.8132940  49.8315240  60.0549640  26.7153210  54.5502330  56.5929480
  26.5554350  54.2605270  57.4911310  26.5499920  53.7742460  56.0574710
  19.1941590  54.3300860  58.3701100  19.0184070  53.4136400  58.1568900
  18.3397330  54.6888150  58.6098900  26.4179340  52.0589890  55.1527480
  25.7244500  52.0567180  54.4929760  27.1602200  51.6349210  54.7221650
  25.9829270  53.6852600  59.2275970  26.4386220  52.9041980  59.5414590
  26.3221790  54.3959420  59.7717150  18.5050590  38.5874820  61.4227280
  18.0618740  39.3684360  61.0911800  19.0635580  38.9104710  62.1298220
  21.6209410  38.2085520  56.3033110  20.9963590  38.2045390  57.0286420
  21.5339530  37.3416480  55.9069080  20.5426490  39.1322150  63.2816880
  20.8398820  40.0384980  63.2008900  21.0912050  38.6440930  62.6676450
  18.2964810  43.7108390  59.1508530  18.0705730  43.4945560  60.0555150
  17.5157340  44.1436850  58.8054500  25.5262570  43.7171760  57.7499180
  24.9271460  44.4407560  57.5662800  26.0742180  43.6548540  56.9675630
  24.1327440  42.3535300  59.7802460  24.5257010  42.6707500  58.9671150
  24.4944290  41.4747180  59.8946980  13.1691610  38.9436100  62.0032660
  12.8804660  39.5138960  62.7157640  13.9137370  38.4640550  62.3663890
  13.3561840  42.8856220  53.2135380  13.2736510  43.8286980  53.3550370
  13.0044900  42.7431130  52.3347730  24.7182580  44.9441050  63.8753240
  23.9863700  45.4527860  64.2243340  24.3206920  44.1271030  63.5742020
  21.1559970  41.6195250  62.2805730  21.1596030  41.1785200  61.4310270
  22.0511090  41.9412580  62.3877550  17.0062350  41.5021740  61.2399940
  16.6662400  41.9796970  61.9966990  16.2439670  41.0486860  60.8801040
  21.2180120  42.6207330  55.2712490  21.3392940  42.5793810  56.2198310
  20.8328630  43.4831480  55.1159220  25.1808490  40.3974730  63.2876180
  25.1981230  40.8483380  64.1318030  24.9324070  39.4980370  63.5009620
  20.2301620  44.9308470  54.6695790  19.6618520  44.4826720  54.0431700
  20.9390620  45.2901250  54.1360940  21.4567940  45.6797030  64.0271140
  21.8238070  45.2055600  64.7732480  21.2673000  46.5538600  64.3679480
  14.3208430  40.4240720  60.1564610  14.0355350  40.0596390  60.9943230
  14.2587290  39.6921180  59.5427750  17.7749100  48.9266660  56.9422200
  17.0011360  48.3864280  56.7820920  18.5043730  48.4073270  56.6039960
  28.5337080  47.9232020  62.7348590  29.2536200  48.4187310  62.3444700
  28.3318900  47.2449910  62.0902460  23.9947020  39.3169980  56.8777980
  23.1811630  38.8183150  56.8023290  23.8008970  40.1568230  56.4614330
  26.7095410  43.6889630  55.1740140  27.5975030  44.0006860  54.9991480
  26.6800500  42.8161880  54.7820720  17.8186500  48.5947040  60.5801010
  18.3365170  47.7915300  60.5257900  17.3670520  48.5326180  61.4217840
  22.7056000  49.8613320  55.8528310  23.0471700  50.6055550  55.3571630
  21.8768710  50.1744440  56.2153140  28.9809680  45.0001470  54.6420000
  28.8973400  45.4315690  53.7916440  29.7003870  45.4599820  55.0746820
  30.0096930  51.8543730  57.3702130  29.3673090  51.1999350  57.6445850
  29.6227590  52.2598820  56.5942800  25.5883410  49.1829160  61.2173820
  25.9407230  48.5857290  60.5575190  24.7045740  48.8573390  61.3882070
  21.6746690  49.9426850  58.6244230  22.3617820  50.4896060  59.0051820
  20.8879110  50.4867580  58.6593840  13.8139090  45.5599670  54.1161310
  14.6833940  45.8424470  54.3997230  13.3229410  46.3735540  54.0010120
  20.9773900  46.9472880  58.2369590  21.4336680  47.7578130  58.4629780
  20.6262110  46.6296020  59.0688080  23.2806510  52.4579220  65.4661890
  23.9248730  52.6638600  66.1435310  23.6435950  51.6967620  65.0132740
  16.8785680  37.2910530  58.7092110  16.7500310  37.2828430  59.6577030
  16.0547700  37.6293620  58.3583120  24.5538590  50.4611570  64.1839340
  25.1960820  49.7604730  64.2971510  25.0787940  51.2410010  64.0036230
  28.3994310  50.7460190  53.9078480  28.1731890  50.0290630  54.5003120
  28.0090510  50.4972630  53.0700230  14.1810340  54.7727050  54.6822940
  14.5407980  55.3716390  54.0280210  14.0402680  55.3186940  55.4557970
  27.9810560  48.6632130  55.5692640  27.6932260  49.1244820  56.3570520
  28.7762730  48.2029900  55.8376860  20.1978960  52.1558250  55.4996610
  20.1889060  52.8887940  54.8841120  19.2777320  51.9089830  55.5923570
  15.7985600  47.3773140  56.2443370  15.1913550  48.1172040  56.2538670
  16.2734950  47.4672500  55.4181570  25.3718390  41.5423960  65.9200260
  25.7399210  40.7219170  66.2479830  24.5116590  41.6025850  66.3355910
  28.7380420  40.4980900  56.7287820  28.1093580  40.6026570  56.0146050
  28.2432340  40.7177680  57.5181700  23.1838560  52.2186490  54.1621800
  23.2850540  52.0150480  53.2323780  22.2840300  51.9644770  54.3669580
  20.7064450  42.7766850  58.1445700  19.9980600  43.2453190  58.5859310
  20.9908930  42.1188860  58.7790890  24.7379880  39.5017510  59.5841490
  24.6147660  39.5203640  58.6351000  25.6864440  39.5496450  59.7039890
  21.8256670  54.7372810  58.8569470  22.0798170  54.6994200  57.9348840
  20.8769150  54.6106140  58.8497720  18.9099470  41.0851930  55.5196410
  19.7590000  41.5222080  55.4536600  18.5430740  41.3972190  56.3468470
  27.8309250  45.6564690  60.4327980  26.8899390  45.6714920  60.6075670
  28.1453320  44.8700650  60.8788280  17.8090890  47.3384290  53.9931940
  18.5754160  47.2265650  54.5557370  17.8865580  46.6422260  53.3408710
  16.5037650  44.7709360  54.6764830  16.5841240  43.8236870  54.7882230
  17.3957400  45.1016240  54.7825490  29.8334830  52.8273540  62.1082240
  29.9582250  53.6504710  62.5806050  30.7000390  52.6164270  61.7606390
  17.3052360  54.9204750  61.7799370  18.0414840  54.3720210  62.0507940
  17.6893280  55.7860760  61.6405360  14.1897840  50.9878320  57.6540880
  13.2637620  51.2299460  57.6446290  14.6554270  51.8152580  57.5325630
  20.4154670  54.0935060  53.6024940  21.2083280  54.3823890  53.1506730
  19.8959020  53.6627230  52.9237420  29.4684840  53.3205190  55.0261680
  29.1826350  52.9070330  54.2115860  29.2704390  54.2492900  54.9062200
  20.9332070  49.3138470  53.4667290  20.8282710  48.6990820  54.1928670
  20.7656290  48.7904360  52.6830300  24.1734800  48.3758500  54.0709280
  23.6244900  48.8227800  54.7152020  24.7954060  47.8707750  54.5946950
  19.8409920  47.3349420  55.9674580  20.2626340  47.1689290  56.8105970
  19.9660760  46.5249650  55.4729720  22.3537560  46.3587030  53.2151680
  22.8743220  45.6436050  52.8492830  23.0005960  46.9972900  53.5152190
  21.2571080  38.8381580  65.8870240  20.8088380  38.8605840  65.0415790
  20.6236280  38.4400600  66.4840540  21.6630630  47.7335910  66.5082680
  22.0818740  48.5768640  66.3358920  20.7439260  47.8707950  66.2789460
  18.7368820  43.4082650  52.9132740  18.5357880  42.5450010  53.2746080
  18.5660870  43.3216010  51.9754340  26.2157130  38.2190880  55.4419620
  26.4959420  37.3758780  55.7979040  25.4422860  38.4513990  55.9558370
  17.5351620  40.5083270  52.9010620  17.8377520  40.5150700  51.9929770
  18.2746210  40.1581130  53.3978280  20.7536550  39.4517890  53.8866820
  20.4058550  38.7741880  53.3069270  20.9549320  38.9907400  54.7010210
  22.9185590  54.4398640  55.5053420  23.8136380  54.7783610  55.5272180
  22.9503220  53.7178050  54.8777700  16.5581750  49.8125690  53.7340420
  16.9956620  50.3555360  54.3898000  17.0429480  48.9872640  53.7436760
  13.7727550  52.6014720  61.1860680  14.1030560  51.7335780  60.9539320
  14.2018550  52.8073240  62.0165640  18.3689470  50.9323730  58.8462650
  18.0685010  50.8088700  59.7466560  18.2626960  50.0732320  58.4378380
  14.2617760  53.4685310  63.9242310  13.8248750  53.6486110  64.7566460
  14.8295440  54.2259930  63.7824030  31.1381390  50.7120130  53.5489330
  30.3074350  50.7796780  54.0196560  31.3153220  51.6024250  53.2456190
  30.5937850  47.4567610  56.0523530  31.3556760  48.0264260  56.1583220
  30.6092220  46.8894810  56.8231840  14.0942190  45.9805540  60.2831190
  13.4391030  45.7117180  59.6390890  14.9320140  45.8710020  59.8333170
  31.5997820  48.3117710  60.8965460  31.9706650  47.5285030  60.4901430
  32.2399750  49.0006810  60.7182760  30.6457020  47.7501980  53.2096050
  30.9205860  48.6580860  53.0815270  30.4567760  47.6864510  54.1458040
  27.0432630  40.7746830  54.5049680  27.4617510  40.5877810  53.6646340
  26.7368690  39.9225880  54.8152610  30.5422360  45.6870970  58.2025480
  30.1665960  44.9198900  57.7706770  29.8125480  46.0693670  58.6900410
  15.1318120  46.3658110  64.8234530  15.4991160  46.2785510  65.7030550
  14.5628940  45.6024660  64.7241390  13.3080270  43.1904470  56.2256520
  12.4044350  43.4534670  56.0508180  13.7920890  43.4615640  55.4456480
  29.8173320  43.9128460  61.5032720  30.3410800  43.4191110  60.8722890
  30.4032740  44.0478820  62.2480290  29.9963040  43.9968330  65.0252270
  29.0465750  43.9631870  65.1397260  30.1776050  44.9068440  64.7902040
  15.8507480  42.2470010  54.1350900  16.5599180  41.8253230  53.6498180
  15.1347420  42.3145240  53.5034250  15.4981640  38.3009340  53.1753550
  16.2209770  38.8418280  53.4934770  15.7706160  38.0272760  52.2995090
  29.3073290  43.1701810  57.4425130  29.8032410  42.9372680  58.2274010
  29.1089360  42.3313650  57.0262770  15.1873830  37.5515530  63.0776170
  15.8350020  37.0012910  62.6371330  15.6075670  37.8058680  63.8991980
  30.7360450  41.8062760  59.9762810  30.6259730  41.6518800  60.9145080
  31.4968040  41.2783700  59.7338220  31.6250720  39.6370680  53.2168950
  32.5500030  39.5051860  53.0087240  31.6026510  39.7163500  54.1705400
  31.6989210  40.4081340  55.8425660  30.9040710  40.3426460  56.3718570
  31.9032490  41.3431980  55.8311010  28.6407630  54.4472890  59.8364050
  29.2366700  54.1257460  59.1598470  28.8985780  53.9744710  60.6277320
  20.2476230  52.4350390  65.5864400  20.0067590  52.7024950  64.6994920
  21.1878870  52.6056120  65.6415260  25.8313250  37.1185280  65.3082490
  24.9573090  37.4520390  65.1055420  25.7224000  36.6458460  66.1334360
  29.1919840  55.0968190  63.6661780  28.7322810  55.8484000  63.2919800
  28.5632300  54.3774660  63.6076580  16.0170460  51.1911430  66.0560500
  15.2904520  50.5716720  65.9886450  16.0779610  51.5852040  65.1858580
  19.6215560  53.4056430  62.8409910  20.1380580  52.7943790  62.3158170
  20.2712940  53.9085210  63.3320920  22.3611060  54.2964920  63.6678890
  22.6488870  54.0419220  62.7911900  22.8734280  53.7442280  64.2584460
  23.5788070  38.0355120  64.2475400  22.7959860  38.5100620  64.5272160
  23.2851000  37.1309950  64.1388580  28.1309140  38.7378220  62.2924490
  28.5717230  38.6823320  61.4446090  27.8616730  39.6536230  62.3634670
  29.9947710  38.3693460  60.3033310  29.9336110  37.4254680  60.1564330
  30.7739740  38.4773550  60.8486770  14.3000460  54.5085820  59.2657260
  14.1322500  53.8756500  59.9639150  13.4334970  54.7145220  58.9151450
  14.9228480  38.3402600  56.7689120  15.6807840  38.4531480  56.1953150
  14.4605650  39.1771800  56.7232550  21.4642290  40.4541870  59.7591430
  20.6516800  40.0798760  59.4187310  21.9683930  39.6986950  60.0612620
  25.9667270  37.1184320  60.9974500  26.5696640  37.6904530  61.4723020
  25.2260260  37.6823760  60.7748400  29.1101870  37.5205880  56.2714780
  29.3052500  38.4189330  56.5382210  28.3231740  37.2892960  56.7647730
  15.9063160  53.2019050  56.7107400  15.3810780  53.5827080  56.0069360
  15.8307740  53.8269820  57.4317110  17.2953630  38.8666650  55.3091090
  17.8246390  38.0796450  55.1799040  17.9281950  39.5457840  55.5426620
  19.4891470  38.6041790  58.3636480  18.8594210  37.9029100  58.5306610
  18.9496610  39.3645920  58.1469640  30.6628480  54.7606590  58.0321340
  30.8380670  54.0744330  57.3882260  29.9650050  55.2853640  57.6398010
  18.5056130  55.1501430  55.5856650  19.2374950  54.8660710  55.0380540
  18.7649800  54.9114710  56.4756030  17.6670920  51.2666160  55.5902980
  17.0379800  51.7351260  56.1388810  17.7818750  50.4215380  56.0249170
  17.2704510  47.4070650  44.4989210  16.4389390  47.1519360  44.8985720
  17.8785490  47.4781420  45.2347130  17.2505770  51.4410740  44.6947230
  17.5533810  50.5508480  44.5157450  17.9949360  51.9980960  44.4669480
  15.6796460  42.3672540  38.2831600  14.7913160  42.7088510  38.1811480
  15.9637650  42.1672860  37.3912430  13.6429470  44.9678190  44.1671300
  14.2145580  44.2000390  44.1674940  13.6431010  45.2666950  43.2577910
  23.5009420  53.7869040  42.0216570  22.8820860  54.2426540  41.4511010
  24.3561200  53.9420500  41.6206270  22.6947670  49.7708030  43.6283610
  22.6255950  48.8297970  43.4672740  23.4567530  49.8609440  44.2006180
  14.8854340  40.3762550  45.9540230  14.7057180  39.4788300  46.2342990
  14.4834420  40.9234420  46.6287180  23.7252840  42.5778410  43.8552540
  24.1017660  41.7050290  43.7426210  23.6272350  42.9137110  42.9642980
  17.8557850  40.9504040  39.3169980  17.9624600  41.8507770  39.6238740
  16.9450210  40.9022010  39.0264630  15.5041010  42.8723050  44.5622570
  16.1851120  43.1361420  45.1809970  15.1889060  42.0323920  44.8960580
  17.9801680  38.5588970  47.9158580  17.9820120  39.0761360  47.1104480
  17.1505990  38.0819150  47.8928510  19.2304530  48.1984150  46.0932080
  18.8973910  48.8253070  46.7353150  19.4071210  48.7246030  45.3133750
  17.6617010  40.2698930  45.9229030  18.0033820  41.1140980  45.6282900
  16.7232820  40.4182670  46.0394370  18.4423630  50.1664950  47.9081260
  19.0597630  50.8416030  47.6265710  17.5816750  50.5752930  47.8168760
  13.7355970  49.3564810  36.7888110  13.3583950  49.8451910  36.0573010
  13.9929040  50.0290090  37.4194640  29.3601220  51.6304360  45.8235900
  28.6764740  52.3003470  45.8152570  29.8995510  51.8285010  45.0580760
  21.3444900  37.7581200  42.2473620  21.6519880  37.2028090  41.5309120
  20.4145600  37.8925660  42.0646610  26.8959960  53.4748490  44.5381080
  26.9087120  53.0710780  43.6703340  26.3435180  54.2495780  44.4342510
  23.7194740  42.0947030  35.9800900  22.7798410  42.2560990  36.0653360
  24.0378000  42.8132710  35.4336890  19.8064000  50.0362330  43.9292680
  19.5092290  49.4307800  43.2500460  20.7563820  50.0739640  43.8182040
  18.0510920  43.1237980  45.5452510  18.6025510  43.2333320  44.7705760
  18.5654430  43.4975580  46.2607740  27.8949610  53.6094200  47.5915780
  27.4180170  54.4166390  47.3988390  27.2111400  52.9572530  47.7441990
  18.8982430  49.7744020  50.5800480  18.0010960  49.9983990  50.8273880
  18.9235300  49.8978960  49.6311880  17.7253650  46.6457340  49.1557850
  17.5861420  47.5180140  49.5245250  16.8435010  46.3030150  49.0105790
  19.5234000  52.5879040  51.3643000  19.4949430  52.9921990  50.4971430
  19.3598970  51.6589400  51.2014600  29.5204790  37.8779950  34.8082780
  29.2077450  37.9706780  35.7081850  30.2817260  38.4560980  34.7580210
  16.0386930  45.2439750  39.2660120  15.9184530  45.9701840  38.6541390
  15.7287820  44.4742660  38.7888030  31.4748820  53.3706140  52.6607170
  31.9508540  53.8489030  53.3396250  32.0955980  53.3023630  51.9352670
  13.6772300  48.4154890  45.0728760  13.7552720  48.5503660  44.1284480
  14.2913980  47.7070780  45.2656880  14.9219930  50.1155080  41.4834940
  14.5148010  50.2569670  40.6288540  15.8132940  49.8315240  41.2806150
  30.8782070  50.5618990  49.8207180  31.0045130  50.3230870  48.9024360
  30.9203450  49.7303530  50.2929260  24.7398810  54.2646990  48.3901990
  25.2543480  54.1755000  49.1924420  23.8967890  54.6106690  48.6829900
  19.1941590  54.3300860  39.5957610  19.0184070  53.4136400  39.3825410
  18.3397330  54.6888150  39.8355410  25.9829270  53.6852600  40.4532480
  26.4386220  52.9041980  40.7671100  26.3221790  54.3959420  40.9973660
  13.7331820  49.4569060  47.6123220  13.8962860  48.9874420  46.7942590
  14.1984270  48.9492620  48.2772060  18.5050590  38.5874820  42.6483790
  18.0618740  39.3684360  42.3168310  19.0635580  38.9104710  43.3554730
  22.7920400  41.4543340  48.2519110  22.3299770  41.6626360  49.0639050
  22.3898510  40.6402690  47.9489780  24.8874620  44.1754040  51.4814560
  25.2128030  43.3417790  51.1416790  25.6754950  44.6982560  51.6292890
  21.6209410  38.2085520  37.5289620  20.9963590  38.2045390  38.2542930
  21.5339530  37.3416480  37.1325590  20.5426490  39.1322150  44.5073390
  20.8398820  40.0384980  44.4265410  21.0912050  38.6440930  43.8932960
  20.7364020  44.6093970  51.0425310  20.6407620  43.6688700  50.8925710
  21.5796000  44.8309040  50.6473380  15.8674560  41.0207640  49.1959090
  15.4737950  41.8682850  49.4031870  15.1792960  40.3834010  49.3867730
  22.4419610  41.1042610  52.2655830  21.7517930  40.9114810  52.9001920
  23.1851910  41.3877250  52.7980130  13.1691610  38.9436100  43.2289170
  12.8804660  39.5138960  43.9414150  13.9137370  38.4640550  43.5920400
  13.3561840  42.8856220  34.4391890  13.2736510  43.8286980  34.5806880
  13.0044900  42.7431130  33.5604240  21.1559970  41.6195250  43.5062240
  21.1596030  41.1785200  42.6566780  22.0511090  41.9412580  43.6134060
  17.0062350  41.5021740  42.4656450  16.6662400  41.9796970  43.2223500
  16.2439670  41.0486860  42.1057550  21.2180120  42.6207330  36.4969000
  21.3392940  42.5793810  37.4454820  20.8328630  43.4831480  36.3415730
  25.1808490  40.3974730  44.5132690  25.1981230  40.8483380  45.3574540
  24.9324070  39.4980370  44.7266130  28.6079240  37.8106910  50.3519070
  28.9325010  37.0796570  50.8777050  28.6435750  37.4920550  49.4500060
  15.3070800  48.8320490  49.7719030  14.9225590  48.1914160  50.3701990
  15.6182990  49.5356610  50.3413760  21.4567940  45.6797030  45.2527650
  21.8238070  45.2055600  45.9988990  21.2673000  46.5538600  45.5935990
  14.3208430  40.4240720  41.3821120  14.0355350  40.0596390  42.2199740
  14.2587290  39.6921180  40.7684260  19.2467310  44.7205670  47.5711860
  18.9424380  45.5997650  47.7962220  20.2013770  44.7805460  47.6069300
  17.7749100  48.9266660  38.1678710  17.0011360  48.3864280  38.0077430
  18.5043730  48.4073270  37.8296470  23.9947020  39.3169980  38.1034490
  23.1811630  38.8183150  38.0279800  23.8008970  40.1568230  37.6870840
  23.9155880  47.9941080  49.8474100  23.8493190  47.0736750  49.5931690
  23.2861020  48.0916520  50.5618740  17.8186500  48.5947040  41.8057520
  18.3365170  47.7915300  41.7514410  17.3670520  48.5326180  42.6474350
  15.3031040  45.5608410  48.7183220  14.9445980  46.2262260  49.3056560
  15.0085600  44.7291960  49.0895840  18.5044160  46.0192650  51.6022770
  18.2044300  46.1649830  50.7050590  19.2755400  45.4597940  51.5096160
  23.8472610  50.8161650  49.5977900  23.8617150  49.8842610  49.3796810
  23.1397710  50.9021410  50.2367670  13.8139090  45.5599670  35.3417820
  14.6833940  45.8424470  35.6253740  13.3229410  46.3735540  35.2266630
  23.2806510  52.4579220  46.6918400  23.9248730  52.6638600  47.3691820
  23.6435950  51.6967620  46.2389250  16.8785680  37.2910530  39.9348620
  16.7500310  37.2828430  40.8833540  16.0547700  37.6293620  39.5839630
  24.5538590  50.4611570  45.4095850  25.1960820  49.7604730  45.5228020
  25.0787940  51.2410010  45.2292740  26.3276210  51.2606470  48.6131910
  26.6632450  51.8473160  49.2909830  25.4076550  51.1299180  48.8429700
  14.1810340  54.7727050  35.9079450  14.5407980  55.3716390  35.2536720
  14.0402680  55.3186940  36.6814480  13.8779610  39.0501650  49.3955320
  13.1638130  39.2498570  50.0007930  14.2974650  38.2741220  49.7670120
  14.1652200  53.0381910  50.3821850  14.2743320  52.0976650  50.2417240
  13.5132760  53.3036660  49.7335580  22.1564790  51.3097800  51.7819970
  21.8361660  50.5907040  52.3265660  21.4823150  51.9852870  51.8556030
  20.1978960  52.1558250  36.7253120  20.1889060  52.8887940  36.1097630
  19.2777320  51.9089830  36.8180080  15.7985600  47.3773140  37.4699880
  15.1913550  48.1172040  37.4795180  16.2734950  47.4672500  36.6438080
  25.3718390  41.5423960  47.1456770  25.7399210  40.7219170  47.4736340
  24.5116590  41.6025850  47.5612420  22.3320380  44.1963550  47.3694740
  22.8305630  44.6709370  48.0346590  22.4743330  43.2727070  47.5764770
  24.7379880  39.5017510  40.8098000  24.6147660  39.5203640  39.8607510
  25.6864440  39.5496450  40.9296400  21.8256670  54.7372810  40.0825980
  22.0798170  54.6994200  39.1605350  20.8769150  54.6106140  40.0754230
  18.9099470  41.0851930  36.7452920  19.7590000  41.5222080  36.6793110
  18.5430740  41.3972190  37.5724980  17.8090890  47.3384290  35.2188450
  18.5754160  47.2265650  35.7813880  17.8865580  46.6422260  34.5665220
  16.5037650  44.7709360  35.9021340  16.5841240  43.8236870  36.0138740
  17.3957400  45.1016240  36.0082000  29.8334830  52.8273540  43.3338750
  29.9582250  53.6504710  43.8062560  30.7000390  52.6164270  42.9862900
  17.3052360  54.9204750  43.0055880  18.0414840  54.3720210  43.2764450
  17.6893280  55.7860760  42.8661870  14.1897840  50.9878320  38.8797390
  13.2637620  51.2299460  38.8702800  14.6554270  51.8152580  38.7582140
  16.3110640  54.1050820  52.1941460  17.1123370  54.4262870  52.6076860
  15.7962460  53.7446400  52.9161370  20.4154670  54.0935060  34.8281450
  21.2083280  54.3823890  34.3763240  19.8959020  53.6627230  34.1493930
  25.1475270  50.2130690  52.1416870  24.5413430  50.2362290  51.4012620
  24.8429380  49.4813730  52.6784120  26.5775640  53.9410980  50.7526280
  27.5297390  53.8569000  50.7026520  26.4303860  54.6052690  51.4260070
  14.0308450  46.5924280  51.1377510  14.5347470  46.0131560  51.7093740
  13.2915870  46.8764510  51.6753880  21.0846390  47.9995270  50.6713030
  20.3192060  48.5680270  50.5867700  21.2662350  47.7071480  49.7781260
  28.2269740  49.7300600  51.2288050  28.9679210  50.0676360  50.7255510
  27.4642420  49.8992660  50.6757820  16.0631530  44.7353870  52.0327580
  16.1036870  44.4367740  52.9412810  16.9177030  45.1361480  51.8735100
  18.0037340  43.3145970  50.0002070  17.4733800  42.8236920  49.3725410
  18.6725410  43.7430170  49.4660000  18.4909640  40.2808340  50.0799360
  18.3966510  39.6629090  49.3550230  17.9107030  41.0074630  49.8529270
  21.2571080  38.8381580  47.1126750  20.8088380  38.8605840  46.2672300
  20.6236280  38.4400600  47.7097050  21.6630630  47.7335910  47.7339190
  22.0818740  48.5768640  47.5615430  20.7439260  47.8707950  47.5045970
  18.7368820  43.4082650  34.1389250  18.5357880  42.5450010  34.5002590
  18.5660870  43.3216010  33.2010850  19.5138050  54.0388920  48.8496920
  18.9759140  54.7634980  48.5305620  19.7672010  53.5619260  48.0594260
  20.7663300  42.0073440  50.3752850  21.3562990  41.6989290  51.0630670
  19.9483540  41.5353190  50.5312750  25.5856730  41.6239250  50.6085870
  24.8972250  40.9620790  50.5435860  26.3062750  41.1777520  51.0534330
  26.2157130  38.2190880  36.6676130  26.4959420  37.3758780  37.0235550
  25.4422860  38.4513990  37.1814880  17.5351620  40.5083270  34.1267130
  17.8377520  40.5150700  33.2186280  18.2746210  40.1581130  34.6234790
  22.3700260  55.2740130  49.1083570  22.2958960  56.1775270  49.4155940
  21.4679100  54.9552030  49.0805640  20.7536550  39.4517890  35.1123330
  20.4058550  38.7741880  34.5325780  20.9549320  38.9907400  35.9266720
  22.9185590  54.4398640  36.7309930  23.8136380  54.7783610  36.7528690
  22.9503220  53.7178050  36.1034210  16.5581750  49.8125690  34.9596930
  16.9956620  50.3555360  35.6154510  17.0429480  48.9872640  34.9693270
  13.7727550  52.6014720  42.4117190  14.1030560  51.7335780  42.1795830
  14.2018550  52.8073240  43.2422150  18.3689470  50.9323730  40.0719160
  18.0685010  50.8088700  40.9723070  18.2626960  50.0732320  39.6634890
  14.2617760  53.4685310  45.1498820  13.8248750  53.6486110  45.9822970
  14.8295440  54.2259930  45.0080540  29.8979940  52.9702310  49.4376130
  29.2981930  53.0294870  48.6940050  30.0273840  52.0307290  49.5672980
  14.0942190  45.9805540  41.5087700  13.4391030  45.7117180  40.8647400
  14.9320140  45.8710020  41.0589680  27.0432630  40.7746830  35.7306190
  27.4617510  40.5877810  34.8902850  26.7368690  39.9225880  36.0409120
  15.1318120  46.3658110  46.0491040  15.4991160  46.2785510  46.9287060
  14.5628940  45.6024660  45.9497900  14.6834120  43.2767200  49.9549460
  13.7890170  43.2433960  50.2943170  15.2231670  43.4753990  50.7200710
  13.3080270  43.1904470  37.4513030  12.4044350  43.4534670  37.2764690
  13.7920890  43.4615640  36.6712990  15.8507480  42.2470010  35.3607410
  16.5599180  41.8253230  34.8754690  15.1347420  42.3145240  34.7290760
  15.4981640  38.3009340  34.4010060  16.2209770  38.8418280  34.7191280
  15.7706160  38.0272760  33.5251600  15.1873830  37.5515530  44.3032680
  15.8350020  37.0012910  43.8627840  15.6075670  37.8058680  45.1248490
  29.0826170  37.7456890  47.6602320  29.7198390  38.3591030  48.0261510
  29.2301060  37.7817550  46.7151550  31.6250720  39.6370680  34.4425460
  32.5500030  39.5051860  34.2343750  31.6026510  39.7163500  35.3961910
  28.6407630  54.4472890  41.0620560  29.2366700  54.1257460  40.3854980
  28.8985780  53.9744710  41.8533830  14.9405830  37.7071200  47.0458000
  14.5920650  38.1635020  47.8116180  14.6093530  36.8128330  47.1280430
  16.5470200  50.8790800  51.2111190  16.5039830  50.5083710  52.0925650
  16.6781210  51.8168370  51.3513010  20.2476230  52.4350390  46.8120910
  20.0067590  52.7024950  45.9251430  21.1878870  52.6056120  46.8671770
  22.4530650  38.8983080  50.5677420  22.3919540  39.4904910  51.3172830
  23.3931030  38.7909040  50.4227680  25.0905210  38.5553140  50.2069710
  25.7045620  38.8732430  49.5450790  25.6354770  38.0701730  50.8265570
  15.6126470  37.2347400  50.3208770  16.1609460  37.0535450  49.5574880
  15.6781780  36.4441510  50.8565080  16.3858230  53.8253050  48.3308970
  15.7918550  53.6937750  49.0699010  16.3782070  52.9891190  47.8651070
  25.8313250  37.1185280  46.5339000  24.9573090  37.4520390  46.3311930
  25.7224000  36.6458460  47.3590870  26.7385230  39.3256150  47.9180720
  26.4098590  38.5107910  47.5382450  27.6867530  39.2825960  47.7946410
  29.1919840  55.0968190  44.8918290  28.7322810  55.8484000  44.5176310
  28.5632300  54.3774660  44.8333090  16.0170460  51.1911430  47.2817010
  15.2904520  50.5716720  47.2142960  16.0779610  51.5852040  46.4115090
  19.6215560  53.4056430  44.0666420  20.1380580  52.7943790  43.5414680
  20.2712940  53.9085210  44.5577430  22.3611060  54.2964920  44.8935400
  22.6488870  54.0419220  44.0168410  22.8734280  53.7442280  45.4840970
  23.5788070  38.0355120  45.4731910  22.7959860  38.5100620  45.7528670
  23.2851000  37.1309950  45.3645090  14.3000460  54.5085820  40.4913770
  14.1322500  53.8756500  41.1895660  13.4334970  54.7145220  40.1407960
  14.9228480  38.3402600  37.9945630  15.6807840  38.4531480  37.4209660
  14.4605650  39.1771800  37.9489060  21.4642290  40.4541870  40.9847940
  20.6516800  40.0798760  40.6443820  21.9683930  39.6986950  41.2869130
  15.9063160  53.2019050  37.9363910  15.3810780  53.5827080  37.2325870
  15.8307740  53.8269820  38.6573620  17.2953630  38.8666650  36.5347600
  17.8246390  38.0796450  36.4055550  17.9281950  39.5457840  36.7683130
  19.4891470  38.6041790  39.5892990  18.8594210  37.9029100  39.7563120
  18.9496610  39.3645920  39.3726150  22.4283420  55.2181020  52.2603600
  23.3550730  54.9825290  52.3039560  22.4133850  56.0453020  51.7789630
  30.6628480  54.7606590  39.2577850  30.8380670  54.0744330  38.6138770
  29.9650050  55.2853640  38.8654520  19.6147030  37.8825770  52.0245480
  19.3331300  38.3859370  51.2606300  19.9966730  37.0847520  51.6587610
  18.5056130  55.1501430  36.8113160  19.2374950  54.8660710  36.2637050
  18.7649800  54.9114710  37.7012540  17.6670920  51.2666160  36.8159490
  17.0379800  51.7351260  37.3645320  17.7818750  50.4215380  37.2505680
  26.2162490  37.2979350  52.6025950  26.1027940  37.6173960  53.4977470
  27.0332230  37.6991860  52.3063230  28.9960980  54.4450880  52.0844640
  29.7886300  53.9500110  51.8770600  29.2894130  55.1241020  52.6920250
  25.1220640  45.3171820  22.9660690  25.0414690  44.4026430  22.6952400
  24.7085060  45.8138890  22.2600400  23.2538680  47.0950840  24.8469960
  22.4780780  46.6151280  25.1368530  23.9051610  46.4156490  24.6726120
  17.2704510  47.4070650  25.7245720  16.4389390  47.1519360  26.1242230
  17.8785490  47.4781420  26.4603640  17.2505770  51.4410740  25.9203740
  17.5533810  50.5508480  25.7413960  17.9949360  51.9980960  25.6925990
  15.6796460  42.3672540  19.5088110  14.7913160  42.7088510  19.4067990
  15.9637650  42.1672860  18.6168940  13.6429470  44.9678190  25.3927810
  14.2145580  44.2000390  25.3931450  13.6431010  45.2666950  24.4834420
  22.6947670  49.7708030  24.8540120  22.6255950  48.8297970  24.6929250
  23.4567530  49.8609440  25.4262690  14.8854340  40.3762550  27.1796740
  14.7057180  39.4788300  27.4599500  14.4834420  40.9234420  27.8543690
  23.7252840  42.5778410  25.0809050  24.1017660  41.7050290  24.9682720
  23.6272350  42.9137110  24.1899490  17.8557850  40.9504040  20.5426490
  17.9624600  41.8507770  20.8495250  16.9450210  40.9022010  20.2521140
  27.5076960  40.0728850  22.0137390  28.3286580  39.5825420  22.0562870
  27.5411040  40.6626510  22.7669230  15.5041010  42.8723050  25.7879080
  16.1851120  43.1361420  26.4066480  15.1889060  42.0323920  26.1217090
  19.6965580  43.9190410  24.8751670  20.2043800  44.4171380  25.5156690
  20.2278820  43.1425610  24.6991030  31.7976510  42.0895600  28.5781020
  31.0928680  42.4777310  28.0596130  32.0634430  42.7845890  29.1801950
  17.9801680  38.5588970  29.1415090  17.9820120  39.0761360  28.3360990
  17.1505990  38.0819150  29.1185020  24.3672770  48.6708280  20.6404990
  23.7490040  49.1357730  20.0767710  24.8796020  49.3635760  21.0574500
  19.2304530  48.1984150  27.3188590  18.8973910  48.8253070  27.9609660
  19.4071210  48.7246030  26.5390260  27.7438440  42.0129230  24.7864930
  27.0394010  42.3014120  25.3668040  28.1050600  42.8229340  24.4264490
  17.6617010  40.2698930  27.1485540  18.0033820  41.1140980  26.8539410
  16.7232820  40.4182670  27.2650880  18.4423630  50.1664950  29.1337770
  19.0597630  50.8416030  28.8522220  17.5816750  50.5752930  29.0425270
  13.7355970  49.3564810  18.0144620  13.3583950  49.8451910  17.2829520
  13.9929040  50.0290090  18.6451150  30.8125360  41.4584020  25.1774140
  29.8650270  41.4923000  25.3089570  31.1375350  42.2722970  25.5623500
  21.3444900  37.7581200  23.4730130  21.6519880  37.2028090  22.7565630
  20.4145600  37.8925660  23.2903120  28.1905380  50.1964710  20.8527760
  28.0801710  49.2539040  20.9777180  28.1873630  50.5580350  21.7390520
  23.7325660  45.8230030  20.2090250  22.8054940  45.7567410  20.4378720
  23.8850480  46.7610160  20.0945490  23.7194740  42.0947030  17.2057410
  22.7798410  42.2560990  17.2909870  24.0378000  42.8132710  16.6593400
  30.2407500  46.7765550  27.1836440  29.4126130  46.8458640  26.7086570
  30.8357980  47.3619860  26.7152270  27.7622950  47.3850330  20.7125500
  27.1435370  47.0469880  20.0651800  27.7447400  46.7410090  21.4204690
  27.2049510  43.5634870  28.1291310  26.7920690  44.3888580  28.3831300
  26.4725460  42.9779910  27.9367670  19.3382300  46.3494770  22.9909980
  18.9339300  45.6372020  22.4955880  19.4245420  46.0048010  23.8798020
  19.8064000  50.0362330  25.1549190  19.5092290  49.4307800  24.4756970
  20.7563820  50.0739640  25.0438550  18.0510920  43.1237980  26.7709020
  18.6025510  43.2333320  25.9962270  18.5654430  43.4975580  27.4864250
  18.8982430  49.7744020  31.8056990  18.0010960  49.9983990  32.0530390
  18.9235300  49.8978960  30.8568390  25.9387650  46.6237140  17.7198250
  26.3780930  45.7859570  17.5736070  26.6516070  47.2566540  17.8062390
  17.7253650  46.6457340  30.3814360  17.5861420  47.5180140  30.7501760
  16.8435010  46.3030150  30.2362300  19.5234000  52.5879040  32.5899510
  19.4949430  52.9921990  31.7227940  19.3598970  51.6589400  32.4271110
  29.5204790  37.8779950  16.0339290  29.2077450  37.9706780  16.9338360
  30.2817260  38.4560980  15.9836720  16.0386930  45.2439750  20.4916630
  15.9184530  45.9701840  19.8797900  15.7287820  44.4742660  20.0144540
  13.6772300  48.4154890  26.2985270  13.7552720  48.5503660  25.3540990
  14.2913980  47.7070780  26.4913390  14.9219930  50.1155080  22.7091450
  14.5148010  50.2569670  21.8545050  15.8132940  49.8315240  22.5062660
  26.7153210  54.5502330  19.0442500  26.5554350  54.2605270  19.9424330
  26.5499920  53.7742460  18.5087730  26.4179340  52.0589890  17.6040500
  25.7244500  52.0567180  16.9442780  27.1602200  51.6349210  17.1734670
  30.7306080  42.6151450  32.0113430  30.1150350  43.1231120  31.4828890
  30.4102500  41.7149780  31.9539370  13.7331820  49.4569060  28.8379730
  13.8962860  48.9874420  28.0199100  14.1984270  48.9492620  29.5028570
  18.5050590  38.5874820  23.8740300  18.0618740  39.3684360  23.5424820
  19.0635580  38.9104710  24.5811240  22.7920400  41.4543340  29.4775620
  22.3299770  41.6626360  30.2895560  22.3898510  40.6402690  29.1746290
  27.7924910  42.6752290  30.6072280  26.9418500  42.3758040  30.9281350
  27.6326700  42.9194300  29.6956100  24.8874620  44.1754040  32.7071070
  25.2128030  43.3417790  32.3673300  25.6754950  44.6982560  32.8549400
  21.6209410  38.2085520  18.7546130  20.9963590  38.2045390  19.4799440
  21.5339530  37.3416480  18.3582100  20.5426490  39.1322150  25.7329900
  20.8398820  40.0384980  25.6521920  21.0912050  38.6440930  25.1189470
  18.2964810  43.7108390  21.6021550  18.0705730  43.4945560  22.5068170
  17.5157340  44.1436850  21.2567520  25.5262570  43.7171760  20.2012200
  24.9271460  44.4407560  20.0175820  26.0742180  43.6548540  19.4188650
  20.7364020  44.6093970  32.2681820  20.6407620  43.6688700  32.1182220
  21.5796000  44.8309040  31.8729890  24.1327440  42.3535300  22.2315480
  24.5257010  42.6707500  21.4184170  24.4944290  41.4747180  22.3460000
  15.8674560  41.0207640  30.4215600  15.4737950  41.8682850  30.6288380
  15.1792960  40.3834010  30.6124240  22.4419610  41.1042610  33.4912340
  21.7517930  40.9114810  34.1258430  23.1851910  41.3877250  34.0236640
  13.1691610  38.9436100  24.4545680  12.8804660  39.5138960  25.1670660
  13.9137370  38.4640550  24.8176910  13.3561840  42.8856220  15.6648400
  13.2736510  43.8286980  15.8063390  13.0044900  42.7431130  14.7860750
  24.7182580  44.9441050  26.3266260  23.9863700  45.4527860  26.6756360
  24.3206920  44.1271030  26.0255040  21.1559970  41.6195250  24.7318750
  21.1596030  41.1785200  23.8823290  22.0511090  41.9412580  24.8390570
  17.0062350  41.5021740  23.6912960  16.6662400  41.9796970  24.4480010
  16.2439670  41.0486860  23.3314060  21.2180120  42.6207330  17.7225510
  21.3392940  42.5793810  18.6711330  20.8328630  43.4831480  17.5672240
  25.1808490  40.3974730  25.7389200  25.1981230  40.8483380  26.5831050
  24.9324070  39.4980370  25.9522640  20.2301620  44.9308470  17.1208810
  19.6618520  44.4826720  16.4944720  20.9390620  45.2901250  16.5873960
  28.6079240  37.8106910  31.5775580  28.9325010  37.0796570  32.1033560
  28.6435750  37.4920550  30.6756570  15.3070800  48.8320490  30.9975540
  14.9225590  48.1914160  31.5958500  15.6182990  49.5356610  31.5670270
  21.4567940  45.6797030  26.4784160  21.8238070  45.2055600  27.2245500
  21.2673000  46.5538600  26.8192500  14.3208430  40.4240720  22.6077630
  14.0355350  40.0596390  23.4456250  14.2587290  39.6921180  21.9940770
  19.2467310  44.7205670  28.7968370  18.9424380  45.5997650  29.0218730
  20.2013770  44.7805460  28.8325810  17.7749100  48.9266660  19.3935220
  17.0011360  48.3864280  19.2333940  18.5043730  48.4073270  19.0552980
  28.5337080  47.9232020  25.1861610  29.2536200  48.4187310  24.7957720
  28.3318900  47.2449910  24.5415480  23.9947020  39.3169980  19.3291000
  23.1811630  38.8183150  19.2536310  23.8008970  40.1568230  18.9127350
  26.7095410  43.6889630  17.6253160  27.5975030  44.0006860  17.4504500
  26.6800500  42.8161880  17.2333740  17.8186500  48.5947040  23.0314030
  18.3365170  47.7915300  22.9770920  17.3670520  48.5326180  23.8730860
  22.7056000  49.8613320  18.3041330  23.0471700  50.6055550  17.8084650
  21.8768710  50.1744440  18.6666160  15.3031040  45.5608410  29.9439730
  14.9445980  46.2262260  30.5313070  15.0085600  44.7291960  30.3152350
  18.5044160  46.0192650  32.8279280  18.2044300  46.1649830  31.9307100
  19.2755400  45.4597940  32.7352670  28.9809680  45.0001470  17.0933020
  28.8973400  45.4315690  16.2429460  29.7003870  45.4599820  17.5259840
  30.0583820  47.4568990  30.1702990  29.3332010  48.0497770  29.9732380
  30.5859280  47.4492530  29.3716360  30.0096930  51.8543730  19.8215150
  29.3673090  51.1999350  20.0958870  29.6227590  52.2598820  19.0455820
  25.5883410  49.1829160  23.6686840  25.9407230  48.5857290  23.0088210
  24.7045740  48.8573390  23.8395090  21.6746690  49.9426850  21.0757250
  22.3617820  50.4896060  21.4564840  20.8879110  50.4867580  21.1106860
  13.8139090  45.5599670  16.5674330  14.6833940  45.8424470  16.8510250
  13.3229410  46.3735540  16.4523140  20.9773900  46.9472880  20.6882610
  21.4336680  47.7578130  20.9142800  20.6262110  46.6296020  21.5201100
  16.8785680  37.2910530  21.1605130  16.7500310  37.2828430  22.1090050
  16.0547700  37.6293620  20.8096140  28.3994310  50.7460190  16.3591500
  28.1731890  50.0290630  16.9516140  28.0090510  50.4972630  15.5213250
  14.1810340  54.7727050  17.1335960  14.5407980  55.3716390  16.4793230
  14.0402680  55.3186940  17.9070990  13.8779610  39.0501650  30.6211830
  13.1638130  39.2498570  31.2264440  14.2974650  38.2741220  30.9926630
  27.9810560  48.6632130  18.0205660  27.6932260  49.1244820  18.8083540
  28.7762730  48.2029900  18.2889880  14.1652200  53.0381910  31.6078360
  14.2743320  52.0976650  31.4673750  13.5132760  53.3036660  30.9592090
  20.1978960  52.1558250  17.9509630  20.1889060  52.8887940  17.3354140
  19.2777320  51.9089830  18.0436590  15.7985600  47.3773140  18.6956390
  15.1913550  48.1172040  18.7051690  16.2734950  47.4672500  17.8694590
  25.3718390  41.5423960  28.3713280  25.7399210  40.7219170  28.6992850
  24.5116590  41.6025850  28.7868930  28.7380420  40.4980900  19.1800840
  28.1093580  40.6026570  18.4659070  28.2432340  40.7177680  19.9694720
  23.1838560  52.2186490  16.6134820  23.2850540  52.0150480  15.6836800
  22.2840300  51.9644770  16.8182600  20.7064450  42.7766850  20.5958720
  19.9980600  43.2453190  21.0372330  20.9908930  42.1188860  21.2303910
  22.3320380  44.1963550  28.5951250  22.8305630  44.6709370  29.2603100
  22.4743330  43.2727070  28.8021280  24.7379880  39.5017510  22.0354510
  24.6147660  39.5203640  21.0864020  25.6864440  39.5496450  22.1552910
  18.9099470  41.0851930  17.9709430  19.7590000  41.5222080  17.9049620
  18.5430740  41.3972190  18.7981490  29.5387240  40.4131510  29.4379640
  29.0360840  41.1536910  29.7773450  30.3543900  40.8015510  29.1216430
  27.8309250  45.6564690  22.8841000  26.8899390  45.6714920  23.0588690
  28.1453320  44.8700650  23.3301300  17.8090890  47.3384290  16.4444960
  18.5754160  47.2265650  17.0070390  17.8865580  46.6422260  15.7921730
  16.5037650  44.7709360  17.1277850  16.5841240  43.8236870  17.2395250
  17.3957400  45.1016240  17.2338510  17.3052360  54.9204750  24.2312390
  18.0414840  54.3720210  24.5020960  17.6893280  55.7860760  24.0918380
  14.1897840  50.9878320  20.1053900  13.2637620  51.2299460  20.0959310
  14.6554270  51.8152580  19.9838650  16.3110640  54.1050820  33.4197970
  17.1123370  54.4262870  33.8333370  15.7962460  53.7446400  34.1417880
  20.4154670  54.0935060  16.0537960  21.2083280  54.3823890  15.6019750
  19.8959020  53.6627230  15.3750440  29.4684840  53.3205190  17.4774700
  29.1826350  52.9070330  16.6628880  29.2704390  54.2492900  17.3575220
  14.0308450  46.5924280  32.3634020  14.5347470  46.0131560  32.9350250
  13.2915870  46.8764510  32.9010390  20.9332070  49.3138470  15.9180310
  20.8282710  48.6990820  16.6441690  20.7656290  48.7904360  15.1343320
  21.0846390  47.9995270  31.8969540  20.3192060  48.5680270  31.8124210
  21.2662350  47.7071480  31.0037770  24.1734800  48.3758500  16.5222300
  23.6244900  48.8227800  17.1665040  24.7954060  47.8707750  17.0459970
  16.0631530  44.7353870  33.2584090  16.1036870  44.4367740  34.1669320
  16.9177030  45.1361480  33.0991610  19.8409920  47.3349420  18.4187600
  20.2626340  47.1689290  19.2618990  19.9660760  46.5249650  17.9242740
  18.0037340  43.3145970  31.2258580  17.4733800  42.8236920  30.5981920
  18.6725410  43.7430170  30.6916510  22.3537560  46.3587030  15.6664700
  22.8743220  45.6436050  15.3005850  23.0005960  46.9972900  15.9665210
  26.9015400  47.7815430  30.9899770  27.3156420  47.9360510  31.8390190
  25.9666400  47.9070650  31.1525550  27.3737570  45.1211590  32.9938920
  27.9558340  44.3663910  32.9059400  27.5499340  45.6519030  32.2170400
  18.4909640  40.2808340  31.3055870  18.3966510  39.6629090  30.5806740
  17.9107030  41.0074630  31.0785780  21.2571080  38.8381580  28.3383260
  20.8088380  38.8605840  27.4928810  20.6236280  38.4400600  28.9353560
  21.6630630  47.7335910  28.9595700  22.0818740  48.5768640  28.7871940
  20.7439260  47.8707950  28.7302480  23.9994530  45.4652090  30.3433540
  24.1190740  44.8693230  31.0828380  24.8588530  45.5021780  29.9234840
  26.3382430  46.0189280  28.9196050  25.8117650  46.5431900  28.3161190
  26.6813770  46.6516670  29.5505780  18.7368820  43.4082650  15.3645760
  18.5357880  42.5450010  15.7259100  18.5660870  43.3216010  14.4267360
  19.5138050  54.0388920  30.0753430  18.9759140  54.7634980  29.7562130
  19.7672010  53.5619260  29.2850770  20.7663300  42.0073440  31.6009360
  21.3562990  41.6989290  32.2887180  19.9483540  41.5353190  31.7569260
  25.5856730  41.6239250  31.8342380  24.8972250  40.9620790  31.7692370
  26.3062750  41.1777520  32.2790840  26.2157130  38.2190880  17.8932640
  26.4959420  37.3758780  18.2492060  25.4422860  38.4513990  18.4071390
  17.5351620  40.5083270  15.3523640  17.8377520  40.5150700  14.4442790
  18.2746210  40.1581130  15.8491300  20.7536550  39.4517890  16.3379840
  20.4058550  38.7741880  15.7582290  20.9549320  38.9907400  17.1523230
  16.5581750  49.8125690  16.1853440  16.9956620  50.3555360  16.8411020
  17.0429480  48.9872640  16.1949780  13.7727550  52.6014720  23.6373700
  14.1030560  51.7335780  23.4052340  14.2018550  52.8073240  24.4678660
  18.3689470  50.9323730  21.2975670  18.0685010  50.8088700  22.1979580
  18.2626960  50.0732320  20.8891400  14.2617760  53.4685310  26.3755330
  13.8248750  53.6486110  27.2079480  14.8295440  54.2259930  26.2337050
  31.1381390  50.7120130  16.0002350  30.3074350  50.7796780  16.4709580
  31.3153220  51.6024250  15.6969210  30.5937850  47.4567610  18.5036550
  31.3556760  48.0264260  18.6096240  30.6092220  46.8894810  19.2744860
  14.0942190  45.9805540  22.7344210  13.4391030  45.7117180  22.0903910
  14.9320140  45.8710020  22.2846190  31.5997820  48.3117710  23.3478480
  31.9706650  47.5285030  22.9414450  32.2399750  49.0006810  23.1695780
  30.6457020  47.7501980  15.6609070  30.9205860  48.6580860  15.5328290
  30.4567760  47.6864510  16.5971060  27.0432630  40.7746830  16.9562700
  27.4617510  40.5877810  16.1159360  26.7368690  39.9225880  17.2665630
  30.5422360  45.6870970  20.6538500  30.1665960  44.9198900  20.2219790
  29.8125480  46.0693670  21.1413430  15.1318120  46.3658110  27.2747550
  15.4991160  46.2785510  28.1543570  14.5628940  45.6024660  27.1754410
  29.9321980  44.8342490  30.2878020  29.7008070  44.6055240  29.3875970
  30.1926530  45.7542040  30.2422910  14.6834120  43.2767200  31.1805970
  13.7890170  43.2433960  31.5199680  15.2231670  43.4753990  31.9457220
  28.3710050  40.0598920  33.0657720  29.2480230  40.0682320  33.4491720
  28.3830890  39.3229760  32.4550070  13.3080270  43.1904470  18.6769540
  12.4044350  43.4534670  18.5021200  13.7920890  43.4615640  17.8969500
  29.8173320  43.9128460  23.9545740  30.3410800  43.4191110  23.3235910
  30.4032740  44.0478820  24.6993310  29.9963040  43.9968330  27.4765290
  29.0465750  43.9631870  27.5910280  30.1776050  44.9068440  27.2415060
  15.8507480  42.2470010  16.5863920  16.5599180  41.8253230  16.1011200
  15.1347420  42.3145240  15.9547270  15.4981640  38.3009340  15.6266570
  16.2209770  38.8418280  15.9447790  15.7706160  38.0272760  14.7508110
  29.3073290  43.1701810  19.8938150  29.8032410  42.9372680  20.6787030
  29.1089360  42.3313650  19.4775790  15.1873830  37.5515530  25.5289190
  15.8350020  37.0012910  25.0884350  15.6075670  37.8058680  26.3505000
  30.7360450  41.8062760  22.4275830  30.6259730  41.6518800  23.3658100
  31.4968040  41.2783700  22.1851240  29.0826170  37.7456890  28.8858830
  29.7198390  38.3591030  29.2518020  29.2301060  37.7817550  27.9408060
  31.6250720  39.6370680  15.6681970  32.5500030  39.5051860  15.4600260
  31.6026510  39.7163500  16.6218420  31.6989210  40.4081340  18.2938680
  30.9040710  40.3426460  18.8231590  31.9032490  41.3431980  18.2824030
  14.9405830  37.7071200  28.2714510  14.5920650  38.1635020  29.0372690
  14.6093530  36.8128330  28.3536940  16.5470200  50.8790800  32.4367700
  16.5039830  50.5083710  33.3182160  16.6781210  51.8168370  32.5769520
  20.2476230  52.4350390  28.0377420  20.0067590  52.7024950  27.1507940
  21.1878870  52.6056120  28.0928280  22.4530650  38.8983080  31.7933930
  22.3919540  39.4904910  32.5429340  23.3931030  38.7909040  31.6484190
  25.0905210  38.5553140  31.4326220  25.7045620  38.8732430  30.7707300
  25.6354770  38.0701730  32.0522080  15.6126470  37.2347400  31.5465280
  16.1609460  37.0535450  30.7831390  15.6781780  36.4441510  32.0821590
  16.3858230  53.8253050  29.5565480  15.7918550  53.6937750  30.2955520
  16.3782070  52.9891190  29.0907580  25.8313250  37.1185280  27.7595510
  24.9573090  37.4520390  27.5568440  25.7224000  36.6458460  28.5847380
  26.7385230  39.3256150  29.1437230  26.4098590  38.5107910  28.7638960
  27.6867530  39.2825960  29.0202920  16.0170460  51.1911430  28.5073520
  15.2904520  50.5716720  28.4399470  16.0779610  51.5852040  27.6371600
  19.6215560  53.4056430  25.2922930  20.1380580  52.7943790  24.7671190
  20.2712940  53.9085210  25.7833940  22.3611060  54.2964920  26.1191910
  22.6488870  54.0419220  25.2424920  22.8734280  53.7442280  26.7097480
  23.5788070  38.0355120  26.6988420  22.7959860  38.5100620  26.9785180
  23.2851000  37.1309950  26.5901600  28.1309140  38.7378220  24.7437510
  28.5717230  38.6823320  23.8959110  27.8616730  39.6536230  24.8147690
  29.9947710  38.3693460  22.7546330  29.9336110  37.4254680  22.6077350
  30.7739740  38.4773550  23.2999790  14.3000460  54.5085820  21.7170280
  14.1322500  53.8756500  22.4152170  13.4334970  54.7145220  21.3664470
  14.9228480  38.3402600  19.2202140  15.6807840  38.4531480  18.6466170
  14.4605650  39.1771800  19.1745570  21.4642290  40.4541870  22.2104450
  20.6516800  40.0798760  21.8700330  21.9683930  39.6986950  22.5125640
  25.9667270  37.1184320  23.4487520  26.5696640  37.6904530  23.9236040
  25.2260260  37.6823760  23.2261420  29.1101870  37.5205880  18.7227800
  29.3052500  38.4189330  18.9895230  28.3231740  37.2892960  19.2160750
  15.9063160  53.2019050  19.1620420  15.3810780  53.5827080  18.4582380
  15.8307740  53.8269820  19.8830130  17.2953630  38.8666650  17.7604110
  17.8246390  38.0796450  17.6312060  17.9281950  39.5457840  17.9939640
  19.4891470  38.6041790  20.8149500  18.8594210  37.9029100  20.9819630
  18.9496610  39.3645920  20.5982660  19.6147030  37.8825770  33.2501990
  19.3331300  38.3859370  32.4862810  19.9966730  37.0847520  32.8844120
  17.6670920  51.2666160  18.0416000  17.0379800  51.7351260  18.5901830
  17.7818750  50.4215380  18.4762190  26.2162490  37.2979350  33.8282460
  26.1027940  37.6173960  34.7233980  27.0332230  37.6991860  33.5319740
  25.1220640  45.3171820   4.1917200  25.0414690  44.4026430   3.9208910
  24.7085060  45.8138890   3.4856910  23.2538680  47.0950840   6.0726470
  22.4780780  46.6151280   6.3625040  23.9051610  46.4156490   5.8982630
  17.2704510  47.4070650   6.9502230  16.4389390  47.1519360   7.3498740
  17.8785490  47.4781420   7.6860150  27.2746110  51.5011030   4.8525600
  26.8127640  50.7298270   5.1812770  28.0871660  51.5277100   5.3578050
  17.2505770  51.4410740   7.1460250  17.5533810  50.5508480   6.9670470
  17.9949360  51.9980960   6.9182500  13.6429470  44.9678190   6.6184320
  14.2145580  44.2000390   6.6187960  13.6431010  45.2666950   5.7090930
  23.5009420  53.7869040   4.4729590  22.8820860  54.2426540   3.9024030
  24.3561200  53.9420500   4.0719290  22.6947670  49.7708030   6.0796630
  22.6255950  48.8297970   5.9185760  23.4567530  49.8609440   6.6519200
  14.8854340  40.3762550   8.4053250  14.7057180  39.4788300   8.6856010
  14.4834420  40.9234420   9.0800200  23.7252840  42.5778410   6.3065560
  24.1017660  41.7050290   6.1939230  23.6272350  42.9137110   5.4156000
  17.8557850  40.9504040   1.7683000  17.9624600  41.8507770   2.0751760
  16.9450210  40.9022010   1.4777650  27.5076960  40.0728850   3.2393900
  28.3286580  39.5825420   3.2819380  27.5411040  40.6626510   3.9925740
  15.5041010  42.8723050   7.0135590  16.1851120  43.1361420   7.6322990
  15.1889060  42.0323920   7.3473600  19.6965580  43.9190410   6.1008180
  20.2043800  44.4171380   6.7413200  20.2278820  43.1425610   5.9247540
  31.7976510  42.0895600   9.8037530  31.0928680  42.4777310   9.2852640
  32.0634430  42.7845890  10.4058460  17.9801680  38.5588970  10.3671600
  17.9820120  39.0761360   9.5617500  17.1505990  38.0819150  10.3441530
  19.2304530  48.1984150   8.5445100  18.8973910  48.8253070   9.1866170
  19.4071210  48.7246030   7.7646770  27.7438440  42.0129230   6.0121440
  27.0394010  42.3014120   6.5924550  28.1050600  42.8229340   5.6521000
  17.6617010  40.2698930   8.3742050  18.0033820  41.1140980   8.0795920
  16.7232820  40.4182670   8.4907390  18.4423630  50.1664950  10.3594280
  19.0597630  50.8416030  10.0778730  17.5816750  50.5752930  10.2681780
  29.3601220  51.6304360   8.2748920  28.6764740  52.3003470   8.2665590
  29.8995510  51.8285010   7.5093780  30.8125360  41.4584020   6.4030650
  29.8650270  41.4923000   6.5346080  31.1375350  42.2722970   6.7880010
  21.3444900  37.7581200   4.6986640  21.6519880  37.2028090   3.9822140
  20.4145600  37.8925660   4.5159630  26.8959960  53.4748490   6.9894100
  26.9087120  53.0710780   6.1216360  26.3435180  54.2495780   6.8855530
  28.1905380  50.1964710   2.0784270  28.0801710  49.2539040   2.2033690
  28.1873630  50.5580350   2.9647030  26.2945400  48.3778330   8.3176710
  26.7114190  48.1638440   7.4830170  27.0185220  48.6351120   8.8885330
  30.2407500  46.7765550   8.4092950  29.4126130  46.8458640   7.9343080
  30.8357980  47.3619860   7.9408780  27.2049510  43.5634870   9.3547820
  26.7920690  44.3888580   9.6087810  26.4725460  42.9779910   9.1624180
  19.3382300  46.3494770   4.2166490  18.9339300  45.6372020   3.7212390
  19.4245420  46.0048010   5.1054530  19.8064000  50.0362330   6.3805700
  19.5092290  49.4307800   5.7013480  20.7563820  50.0739640   6.2695060
  18.0510920  43.1237980   7.9965530  18.6025510  43.2333320   7.2218780
  18.5654430  43.4975580   8.7120760  27.8949610  53.6094200  10.0428800
  27.4180170  54.4166390   9.8501410  27.2111400  52.9572530  10.1955010
  18.8982430  49.7744020  13.0313500  18.0010960  49.9983990  13.2786900
  18.9235300  49.8978960  12.0824900  17.7253650  46.6457340  11.6070870
  17.5861420  47.5180140  11.9758270  16.8435010  46.3030150  11.4618810
  24.0483030  51.5633210   2.9136000  24.4878940  52.3057540   2.4991390
  23.9869920  51.8059780   3.8374960  19.5234000  52.5879040  13.8156020
  19.4949430  52.9921990  12.9484450  19.3598970  51.6589400  13.6527620
  31.4748820  53.3706140  15.1120190  31.9508540  53.8489030  15.7909270
  32.0955980  53.3023630  14.3865690  13.6772300  48.4154890   7.5241780
  13.7552720  48.5503660   6.5797500  14.2913980  47.7070780   7.7169900
  14.9219930  50.1155080   3.9347960  14.5148010  50.2569670   3.0801560
  15.8132940  49.8315240   3.7319170  30.8782070  50.5618990  12.2720200
  31.0045130  50.3230870  11.3537380  30.9203450  49.7303530  12.7442280
  24.7398810  54.2646990  10.8415010  25.2543480  54.1755000  11.6437440
  23.8967890  54.6106690  11.1342920  19.1941590  54.3300860   2.0470630
  19.0184070  53.4136400   1.8338430  18.3397330  54.6888150   2.2868430
  25.9829270  53.6852600   2.9045500  26.4386220  52.9041980   3.2184120
  26.3221790  54.3959420   3.4486680  30.7306080  42.6151450  13.2369940
  30.1150350  43.1231120  12.7085400  30.4102500  41.7149780  13.1795880
  13.7331820  49.4569060  10.0636240  13.8962860  48.9874420   9.2455610
  14.1984270  48.9492620  10.7285080  18.5050590  38.5874820   5.0996810
  18.0618740  39.3684360   4.7681330  19.0635580  38.9104710   5.8067750
  22.7920400  41.4543340  10.7032130  22.3299770  41.6626360  11.5152070
  22.3898510  40.6402690  10.4002800  27.7924910  42.6752290  11.8328790
  26.9418500  42.3758040  12.1537860  27.6326700  42.9194300  10.9212610
  24.8874620  44.1754040  13.9327580  25.2128030  43.3417790  13.5929810
  25.6754950  44.6982560  14.0805910  20.5426490  39.1322150   6.9586410
  20.8398820  40.0384980   6.8778430  21.0912050  38.6440930   6.3445980
  18.2964810  43.7108390   2.8278060  18.0705730  43.4945560   3.7324680
  17.5157340  44.1436850   2.4824030  20.7364020  44.6093970  13.4938330
  20.6407620  43.6688700  13.3438730  21.5796000  44.8309040  13.0986400
  24.1327440  42.3535300   3.4571990  24.5257010  42.6707500   2.6440680
  24.4944290  41.4747180   3.5716510  15.8674560  41.0207640  11.6472110
  15.4737950  41.8682850  11.8544890  15.1792960  40.3834010  11.8380750
  22.4419610  41.1042610  14.7168850  21.7517930  40.9114810  15.3514940
  23.1851910  41.3877250  15.2493150  13.1691610  38.9436100   5.6802190
  12.8804660  39.5138960   6.3927170  13.9137370  38.4640550   6.0433420
  24.7182580  44.9441050   7.5522770  23.9863700  45.4527860   7.9012870
  24.3206920  44.1271030   7.2511550  21.1559970  41.6195250   5.9575260
  21.1596030  41.1785200   5.1079800  22.0511090  41.9412580   6.0647080
  17.0062350  41.5021740   4.9169470  16.6662400  41.9796970   5.6736520
  16.2439670  41.0486860   4.5570570  25.1808490  40.3974730   6.9645710
  25.1981230  40.8483380   7.8087560  24.9324070  39.4980370   7.1779150
  28.6079240  37.8106910  12.8032090  28.9325010  37.0796570  13.3290070
  28.6435750  37.4920550  11.9013080  15.3070800  48.8320490  12.2232050
  14.9225590  48.1914160  12.8215010  15.6182990  49.5356610  12.7926780
  21.4567940  45.6797030   7.7040670  21.8238070  45.2055600   8.4502010
  21.2673000  46.5538600   8.0449010  14.3208430  40.4240720   3.8334140
  14.0355350  40.0596390   4.6712760  14.2587290  39.6921180   3.2197280
  19.2467310  44.7205670  10.0224880  18.9424380  45.5997650  10.2475240
  20.2013770  44.7805460  10.0582320  28.5337080  47.9232020   6.4118120
  29.2536200  48.4187310   6.0214230  28.3318900  47.2449910   5.7671990
  23.9155880  47.9941080  12.2987120  23.8493190  47.0736750  12.0444710
  23.2861020  48.0916520  13.0131760  17.8186500  48.5947040   4.2570540
  18.3365170  47.7915300   4.2027430  17.3670520  48.5326180   5.0987370
  15.3031040  45.5608410  11.1696240  14.9445980  46.2262260  11.7569580
  15.0085600  44.7291960  11.5408860  18.5044160  46.0192650  14.0535790
  18.2044300  46.1649830  13.1563610  19.2755400  45.4597940  13.9609180
  23.8472610  50.8161650  12.0490920  23.8617150  49.8842610  11.8309830
  23.1397710  50.9021410  12.6880690  30.0583820  47.4568990  11.3959500
  29.3332010  48.0497770  11.1988890  30.5859280  47.4492530  10.5972870
  25.5883410  49.1829160   4.8943350  25.9407230  48.5857290   4.2344720
  24.7045740  48.8573390   5.0651600  21.6746690  49.9426850   2.3013760
  22.3617820  50.4896060   2.6821350  20.8879110  50.4867580   2.3363370
  20.9773900  46.9472880   1.9139120  21.4336680  47.7578130   2.1399310
  20.6262110  46.6296020   2.7457610  23.2806510  52.4579220   9.1431420
  23.9248730  52.6638600   9.8204840  23.6435950  51.6967620   8.6902270
  16.8785680  37.2910530   2.3861640  16.7500310  37.2828430   3.3346560
  16.0547700  37.6293620   2.0352650  24.5538590  50.4611570   7.8608870
  25.1960820  49.7604730   7.9741040  25.0787940  51.2410010   7.6805760
  26.3276210  51.2606470  11.0644930  26.6632450  51.8473160  11.7422850
  25.4076550  51.1299180  11.2942720  13.8779610  39.0501650  11.8468340
  13.1638130  39.2498570  12.4520950  14.2974650  38.2741220  12.2183140
  14.1652200  53.0381910  12.8334870  14.2743320  52.0976650  12.6930260
  13.5132760  53.3036660  12.1848600  22.1564790  51.3097800  14.2332990
  21.8361660  50.5907040  14.7778680  21.4823150  51.9852870  14.3069050
  25.3718390  41.5423960   9.5969790  25.7399210  40.7219170   9.9249360
  24.5116590  41.6025850  10.0125440  20.7064450  42.7766850   1.8215230
  19.9980600  43.2453190   2.2628840  20.9908930  42.1188860   2.4560420
  22.3320380  44.1963550   9.8207760  22.8305630  44.6709370  10.4859610
  22.4743330  43.2727070  10.0277790  24.7379880  39.5017510   3.2611020
  24.6147660  39.5203640   2.3120530  25.6864440  39.5496450   3.3809420
  21.8256670  54.7372810   2.5339000  22.0798170  54.6994200   1.6118370
  20.8769150  54.6106140   2.5267250  29.5387240  40.4131510  10.6636150
  29.0360840  41.1536910  11.0029960  30.3543900  40.8015510  10.3472940
  27.8309250  45.6564690   4.1097510  26.8899390  45.6714920   4.2845200
  28.1453320  44.8700650   4.5557810  29.8334830  52.8273540   5.7851770
  29.9582250  53.6504710   6.2575580  30.7000390  52.6164270   5.4375920
  17.3052360  54.9204750   5.4568900  18.0414840  54.3720210   5.7277470
  17.6893280  55.7860760   5.3174890  16.3110640  54.1050820  14.6454480
  17.1123370  54.4262870  15.0589880  15.7962460  53.7446400  15.3674390
  25.1475270  50.2130690  14.5929890  24.5413430  50.2362290  13.8525640
  24.8429380  49.4813730  15.1297140  26.5775640  53.9410980  13.2039300
  27.5297390  53.8569000  13.1539540  26.4303860  54.6052690  13.8773090
  14.0308450  46.5924280  13.5890530  14.5347470  46.0131560  14.1606760
  13.2915870  46.8764510  14.1266900  21.0846390  47.9995270  13.1226050
  20.3192060  48.5680270  13.0380720  21.2662350  47.7071480  12.2294280
  28.2269740  49.7300600  13.6801070  28.9679210  50.0676360  13.1768530
  27.4642420  49.8992660  13.1270840  16.0631530  44.7353870  14.4840600
  16.1036870  44.4367740  15.3925830  16.9177030  45.1361480  14.3248120
  18.0037340  43.3145970  12.4515090  17.4733800  42.8236920  11.8238430
  18.6725410  43.7430170  11.9173020  26.9015400  47.7815430  12.2156280
  27.3156420  47.9360510  13.0646700  25.9666400  47.9070650  12.3782060
  27.3737570  45.1211590  14.2195430  27.9558340  44.3663910  14.1315910
  27.5499340  45.6519030  13.4426910  18.4909640  40.2808340  12.5312380
  18.3966510  39.6629090  11.8063250  17.9107030  41.0074630  12.3042290
  21.2571080  38.8381580   9.5639770  20.8088380  38.8605840   8.7185320
  20.6236280  38.4400600  10.1610070  21.6630630  47.7335910  10.1852210
  22.0818740  48.5768640  10.0128450  20.7439260  47.8707950   9.9558990
  23.9994530  45.4652090  11.5690050  24.1190740  44.8693230  12.3084890
  24.8588530  45.5021780  11.1491350  26.3382430  46.0189280  10.1452560
  25.8117650  46.5431900   9.5417700  26.6813770  46.6516670  10.7762290
  19.5138050  54.0388920  11.3009940  18.9759140  54.7634980  10.9818640
  19.7672010  53.5619260  10.5107280  20.7663300  42.0073440  12.8265870
  21.3562990  41.6989290  13.5143690  19.9483540  41.5353190  12.9825770
  25.5856730  41.6239250  13.0598890  24.8972250  40.9620790  12.9948880
  26.3062750  41.1777520  13.5047350  22.3700260  55.2740130  11.5596590
  22.2958960  56.1775270  11.8668960  21.4679100  54.9552030  11.5318660
  13.7727550  52.6014720   4.8630210  14.1030560  51.7335780   4.6308850
  14.2018550  52.8073240   5.6935170  18.3689470  50.9323730   2.5232180
  18.0685010  50.8088700   3.4236090  18.2626960  50.0732320   2.1147910
  14.2617760  53.4685310   7.6011840  13.8248750  53.6486110   8.4335990
  14.8295440  54.2259930   7.4593560  29.8979940  52.9702310  11.8889150
  29.2981930  53.0294870  11.1453070  30.0273840  52.0307290  12.0186000
  14.0942190  45.9805540   3.9600720  13.4391030  45.7117180   3.3160420
  14.9320140  45.8710020   3.5102700  31.5997820  48.3117710   4.5734990
  31.9706650  47.5285030   4.1670960  32.2399750  49.0006810   4.3952290
  28.5831580  49.6954290   9.9865310  27.7691420  50.1251450  10.2491100
  28.9905780  50.3072700   9.3734360  30.5422360  45.6870970   1.8795010
  30.1665960  44.9198900   1.4476300  29.8125480  46.0693670   2.3669940
  15.1318120  46.3658110   8.5004060  15.4991160  46.2785510   9.3800080
  14.5628940  45.6024660   8.4010920  29.9321980  44.8342490  11.5134530
  29.7008070  44.6055240  10.6132480  30.1926530  45.7542040  11.4679420
  14.6834120  43.2767200  12.4062480  13.7890170  43.2433960  12.7456190
  15.2231670  43.4753990  13.1713730  28.3710050  40.0598920  14.2914230
  29.2480230  40.0682320  14.6748230  28.3830890  39.3229760  13.6806580
  29.8173320  43.9128460   5.1802250  30.3410800  43.4191110   4.5492420
  30.4032740  44.0478820   5.9249820  29.9963040  43.9968330   8.7021800
  29.0465750  43.9631870   8.8166790  30.1776050  44.9068440   8.4671570
  15.1873830  37.5515530   6.7545700  15.8350020  37.0012910   6.3140860
  15.6075670  37.8058680   7.5761510  30.7360450  41.8062760   3.6532340
  30.6259730  41.6518800   4.5914610  31.4968040  41.2783700   3.4107750
  29.0826170  37.7456890  10.1115340  29.7198390  38.3591030  10.4774530
  29.2301060  37.7817550   9.1664570  28.6407630  54.4472890   3.5133580
  29.2366700  54.1257460   2.8368000  28.8985780  53.9744710   4.3046850
  14.9405830  37.7071200   9.4971020  14.5920650  38.1635020  10.2629200
  14.6093530  36.8128330   9.5793450  16.5470200  50.8790800  13.6624210
  16.5039830  50.5083710  14.5438670  16.6781210  51.8168370  13.8026030
  20.2476230  52.4350390   9.2633930  20.0067590  52.7024950   8.3764450
  21.1878870  52.6056120   9.3184790  22.4530650  38.8983080  13.0190440
  22.3919540  39.4904910  13.7685850  23.3931030  38.7909040  12.8740700
  25.0905210  38.5553140  12.6582730  25.7045620  38.8732430  11.9963810
  25.6354770  38.0701730  13.2778590  31.5080390  54.4544770  10.0644570
  31.0138670  54.8513640   9.3471700  30.8993680  53.8293980  10.4581850
  15.6126470  37.2347400  12.7721790  16.1609460  37.0535450  12.0087900
  15.6781780  36.4441510  13.3078100  16.3858230  53.8253050  10.7821990
  15.7918550  53.6937750  11.5212030  16.3782070  52.9891190  10.3164090
  25.8313250  37.1185280   8.9852020  24.9573090  37.4520390   8.7824950
  25.7224000  36.6458460   9.8103890  26.7385230  39.3256150  10.3693740
  26.4098590  38.5107910   9.9895470  27.6867530  39.2825960  10.2459430
  29.1919840  55.0968190   7.3431310  28.7322810  55.8484000   6.9689330
  28.5632300  54.3774660   7.2846110  16.0170460  51.1911430   9.7330030
  15.2904520  50.5716720   9.6655980  16.0779610  51.5852040   8.8628110
  19.6215560  53.4056430   6.5179440  20.1380580  52.7943790   5.9927700
  20.2712940  53.9085210   7.0090450  22.3611060  54.2964920   7.3448420
  22.6488870  54.0419220   6.4681430  22.8734280  53.7442280   7.9353990
  23.5788070  38.0355120   7.9244930  22.7959860  38.5100620   8.2041690
  23.2851000  37.1309950   7.8158110  28.1309140  38.7378220   5.9694020
  28.5717230  38.6823320   5.1215620  27.8616730  39.6536230   6.0404200
  29.9947710  38.3693460   3.9802840  29.9336110  37.4254680   3.8333860
  30.7739740  38.4773550   4.5256300  14.3000460  54.5085820   2.9426790
  14.1322500  53.8756500   3.6408680  13.4334970  54.7145220   2.5920980
  21.4642290  40.4541870   3.4360960  20.6516800  40.0798760   3.0956840
  21.9683930  39.6986950   3.7382150  25.9667270  37.1184320   4.6744030
  26.5696640  37.6904530   5.1492550  25.2260260  37.6823760   4.4517930
  19.4891470  38.6041790   2.0406010  18.8594210  37.9029100   2.2076140
  18.9496610  39.3645920   1.8239170  22.4283420  55.2181020  14.7116620
  23.3550730  54.9825290  14.7552580  22.4133850  56.0453020  14.2302650
  19.6147030  37.8825770  14.4758500  19.3331300  38.3859370  13.7119320
  19.9966730  37.0847520  14.1100630  26.2162490  37.2979350  15.0538970
  26.1027940  37.6173960  15.9490490  27.0332230  37.6991860  14.7576250
  28.9960980  54.4450880  14.5357660  29.7886300  53.9500110  14.3283620
  29.2894130  55.1241020  15.1433270  25.1220640  26.5428330  60.5147670
  25.0414690  25.6282940  60.2439380  24.7085060  27.0395400  59.8087380
  23.2538680  28.3207350  62.3956940  22.4780780  27.8407790  62.6855510
  23.9051610  27.6413000  62.2213100  17.2704510  28.6327160  63.2732700
  16.4389390  28.3775870  63.6729210  17.8785490  28.7037930  64.0090620
  27.2746110  32.7267540  61.1756070  26.8127640  31.9554780  61.5043240
  28.0871660  32.7533610  61.6808520  17.2505770  32.6667250  63.4690720
  17.5533810  31.7764990  63.2900940  17.9949360  33.2237470  63.2412970
  15.6796460  23.5929050  57.0575090  14.7913160  23.9345020  56.9554970
  15.9637650  23.3929370  56.1655920  13.6429470  26.1934700  62.9414790
  14.2145580  25.4256900  62.9418430  13.6431010  26.4923460  62.0321400
  23.5009420  35.0125550  60.7960060  22.8820860  35.4683050  60.2254500
  24.3561200  35.1677010  60.3949760  22.6947670  30.9964540  62.4027100
  22.6255950  30.0554480  62.2416230  23.4567530  31.0865950  62.9749670
  14.8854340  21.6019060  64.7283720  14.7057180  20.7044810  65.0086480
  14.4834420  22.1490930  65.4030670  23.7252840  23.8034920  62.6296030
  24.1017660  22.9306800  62.5169700  23.6272350  24.1393620  61.7386470
  17.8557850  22.1760550  58.0913470  17.9624600  23.0764280  58.3982230
  16.9450210  22.1278520  57.8008120  27.5076960  21.2985360  59.5624370
  28.3286580  20.8081930  59.6049850  27.5411040  21.8883020  60.3156210
  15.5041010  24.0979560  63.3366060  16.1851120  24.3617930  63.9553460
  15.1889060  23.2580430  63.6704070  19.6965580  25.1446920  62.4238650
  20.2043800  25.6427890  63.0643670  20.2278820  24.3682120  62.2478010
  24.3672770  29.8964790  58.1891970  23.7490040  30.3614240  57.6254690
  24.8796020  30.5892270  58.6061480  19.2304530  29.4240660  64.8675570
  18.8973910  30.0509580  65.5096640  19.4071210  29.9502540  64.0877240
  27.7438440  23.2385740  62.3351910  27.0394010  23.5270630  62.9155020
  28.1050600  24.0485850  61.9751470  17.6617010  21.4955440  64.6972520
  18.0033820  22.3397490  64.4026390  16.7232820  21.6439180  64.8137860
  13.7355970  30.5821320  55.5631600  13.3583950  31.0708420  54.8316500
  13.9929040  31.2546600  56.1938130  29.3601220  32.8560870  64.5979390
  28.6764740  33.5259980  64.5896060  29.8995510  33.0541520  63.8324250
  30.8125360  22.6840530  62.7261120  29.8650270  22.7179510  62.8576550
  31.1375350  23.4979480  63.1110480  21.3444900  18.9837710  61.0217110
  21.6519880  18.4284600  60.3052610  20.4145600  19.1182170  60.8390100
  26.8959960  34.7005000  63.3124570  26.9087120  34.2967290  62.4446830
  26.3435180  35.4752290  63.2086000  28.1905380  31.4221220  58.4014740
  28.0801710  30.4795550  58.5264160  28.1873630  31.7836860  59.2877500
  26.2945400  29.6034840  64.6407180  26.7114190  29.3894950  63.8060640
  27.0185220  29.8607630  65.2115800  23.7325660  27.0486540  57.7577230
  22.8054940  26.9823920  57.9865700  23.8850480  27.9866670  57.6432470
  23.7194740  23.3203540  54.7544390  22.7798410  23.4817500  54.8396850
  24.0378000  24.0389220  54.2080380  30.2407500  28.0022060  64.7323420
  29.4126130  28.0715150  64.2573550  30.8357980  28.5876370  64.2639250
  27.7622950  28.6106840  58.2612480  27.1435370  28.2726390  57.6138780
  27.7447400  27.9666600  58.9691670  27.2049510  24.7891380  65.6778290
  26.7920690  25.6145090  65.9318280  26.4725460  24.2036420  65.4854650
  19.3382300  27.5751280  60.5396960  18.9339300  26.8628530  60.0442860
  19.4245420  27.2304520  61.4285000  19.8064000  31.2618840  62.7036170
  19.5092290  30.6564310  62.0243950  20.7563820  31.2996150  62.5925530
  18.0510920  24.3494490  64.3196000  18.6025510  24.4589830  63.5449250
  18.5654430  24.7232090  65.0351230  27.8949610  34.8350710  66.3659270
  27.4180170  35.6422900  66.1731880  27.2111400  34.1829040  66.5185480
  25.9387650  27.8493650  55.2685230  26.3780930  27.0116080  55.1223050
  26.6516070  28.4823050  55.3549370  24.0483030  32.7889720  59.2366470
  24.4878940  33.5314050  58.8221860  23.9869920  33.0316290  60.1605430
  16.0386930  26.4696260  58.0403610  15.9184530  27.1958350  57.4284880
  15.7287820  25.6999170  57.5631520  13.6772300  29.6411400  63.8472250
  13.7552720  29.7760170  62.9027970  14.2913980  28.9327290  64.0400370
  14.9219930  31.3411590  60.2578430  14.5148010  31.4826180  59.4032030
  15.8132940  31.0571750  60.0549640  26.7153210  35.7758840  56.5929480
  26.5554350  35.4861780  57.4911310  26.5499920  34.9998970  56.0574710
  19.1941590  35.5557370  58.3701100  19.0184070  34.6392910  58.1568900
  18.3397330  35.9144660  58.6098900  26.4179340  33.2846400  55.1527480
  25.7244500  33.2823690  54.4929760  27.1602200  32.8605720  54.7221650
  25.9829270  34.9109110  59.2275970  26.4386220  34.1298490  59.5414590
  26.3221790  35.6215930  59.7717150  18.5050590  19.8131330  61.4227280
  18.0618740  20.5940870  61.0911800  19.0635580  20.1361220  62.1298220
  21.6209410  19.4342030  56.3033110  20.9963590  19.4301900  57.0286420
  21.5339530  18.5672990  55.9069080  20.5426490  20.3578660  63.2816880
  20.8398820  21.2641490  63.2008900  21.0912050  19.8697440  62.6676450
  18.2964810  24.9364900  59.1508530  18.0705730  24.7202070  60.0555150
  17.5157340  25.3693360  58.8054500  25.5262570  24.9428270  57.7499180
  24.9271460  25.6664070  57.5662800  26.0742180  24.8805050  56.9675630
  24.1327440  23.5791810  59.7802460  24.5257010  23.8964010  58.9671150
  24.4944290  22.7003690  59.8946980  13.1691610  20.1692610  62.0032660
  12.8804660  20.7395470  62.7157640  13.9137370  19.6897060  62.3663890
  13.3561840  24.1112730  53.2135380  13.2736510  25.0543490  53.3550370
  13.0044900  23.9687640  52.3347730  24.7182580  26.1697560  63.8753240
  23.9863700  26.6784370  64.2243340  24.3206920  25.3527540  63.5742020
  21.1559970  22.8451760  62.2805730  21.1596030  22.4041710  61.4310270
  22.0511090  23.1669090  62.3877550  17.0062350  22.7278250  61.2399940
  16.6662400  23.2053480  61.9966990  16.2439670  22.2743370  60.8801040
  21.2180120  23.8463840  55.2712490  21.3392940  23.8050320  56.2198310
  20.8328630  24.7087990  55.1159220  25.1808490  21.6231240  63.2876180
  25.1981230  22.0739890  64.1318030  24.9324070  20.7236880  63.5009620
  20.2301620  26.1564980  54.6695790  19.6618520  25.7083230  54.0431700
  20.9390620  26.5157760  54.1360940  21.4567940  26.9053540  64.0271140
  21.8238070  26.4312110  64.7732480  21.2673000  27.7795110  64.3679480
  14.3208430  21.6497230  60.1564610  14.0355350  21.2852900  60.9943230
  14.2587290  20.9177690  59.5427750  17.7749100  30.1523170  56.9422200
  17.0011360  29.6120790  56.7820920  18.5043730  29.6329780  56.6039960
  28.5337080  29.1488530  62.7348590  29.2536200  29.6443820  62.3444700
  28.3318900  28.4706420  62.0902460  23.9947020  20.5426490  56.8777980
  23.1811630  20.0439660  56.8023290  23.8008970  21.3824740  56.4614330
  26.7095410  24.9146140  55.1740140  27.5975030  25.2263370  54.9991480
  26.6800500  24.0418390  54.7820720  17.8186500  29.8203550  60.5801010
  18.3365170  29.0171810  60.5257900  17.3670520  29.7582690  61.4217840
  22.7056000  31.0869830  55.8528310  23.0471700  31.8312060  55.3571630
  21.8768710  31.4000950  56.2153140  28.9809680  26.2257980  54.6420000
  28.8973400  26.6572200  53.7916440  29.7003870  26.6856330  55.0746820
  30.0096930  33.0800240  57.3702130  29.3673090  32.4255860  57.6445850
  29.6227590  33.4855330  56.5942800  25.5883410  30.4085670  61.2173820
  25.9407230  29.8113800  60.5575190  24.7045740  30.0829900  61.3882070
  21.6746690  31.1683360  58.6244230  22.3617820  31.7152570  59.0051820
  20.8879110  31.7124090  58.6593840  13.8139090  26.7856180  54.1161310
  14.6833940  27.0680980  54.3997230  13.3229410  27.5992050  54.0010120
  20.9773900  28.1729390  58.2369590  21.4336680  28.9834640  58.4629780
  20.6262110  27.8552530  59.0688080  23.2806510  33.6835730  65.4661890
  23.9248730  33.8895110  66.1435310  23.6435950  32.9224130  65.0132740
  16.8785680  18.5167040  58.7092110  16.7500310  18.5084940  59.6577030
  16.0547700  18.8550130  58.3583120  24.5538590  31.6868080  64.1839340
  25.1960820  30.9861240  64.2971510  25.0787940  32.4666520  64.0036230
  28.3994310  31.9716700  53.9078480  28.1731890  31.2547140  54.5003120
  28.0090510  31.7229140  53.0700230  14.1810340  35.9983560  54.6822940
  14.5407980  36.5972900  54.0280210  14.0402680  36.5443450  55.4557970
  27.9810560  29.8888640  55.5692640  27.6932260  30.3501330  56.3570520
  28.7762730  29.4286410  55.8376860  20.1978960  33.3814760  55.4996610
  20.1889060  34.1144450  54.8841120  19.2777320  33.1346340  55.5923570
  15.7985600  28.6029650  56.2443370  15.1913550  29.3428550  56.2538670
  16.2734950  28.6929010  55.4181570  25.3718390  22.7680470  65.9200260
  25.7399210  21.9475680  66.2479830  24.5116590  22.8282360  66.3355910
  28.7380420  21.7237410  56.7287820  28.1093580  21.8283080  56.0146050
  28.2432340  21.9434190  57.5181700  23.1838560  33.4443000  54.1621800
  23.2850540  33.2406990  53.2323780  22.2840300  33.1901280  54.3669580
  20.7064450  24.0023360  58.1445700  19.9980600  24.4709700  58.5859310
  20.9908930  23.3445370  58.7790890  24.7379880  20.7274020  59.5841490
  24.6147660  20.7460150  58.6351000  25.6864440  20.7752960  59.7039890
  21.8256670  35.9629320  58.8569470  22.0798170  35.9250710  57.9348840
  20.8769150  35.8362650  58.8497720  18.9099470  22.3108440  55.5196410
  19.7590000  22.7478590  55.4536600  18.5430740  22.6228700  56.3468470
  27.8309250  26.8821200  60.4327980  26.8899390  26.8971430  60.6075670
  28.1453320  26.0957160  60.8788280  17.8090890  28.5640800  53.9931940
  18.5754160  28.4522160  54.5557370  17.8865580  27.8678770  53.3408710
  16.5037650  25.9965870  54.6764830  16.5841240  25.0493380  54.7882230
  17.3957400  26.3272750  54.7825490  29.8334830  34.0530050  62.1082240
  29.9582250  34.8761220  62.5806050  30.7000390  33.8420780  61.7606390
  17.3052360  36.1461260  61.7799370  18.0414840  35.5976720  62.0507940
  17.6893280  37.0117270  61.6405360  14.1897840  32.2134830  57.6540880
  13.2637620  32.4555970  57.6446290  14.6554270  33.0409090  57.5325630
  20.4154670  35.3191570  53.6024940  21.2083280  35.6080400  53.1506730
  19.8959020  34.8883740  52.9237420  29.4684840  34.5461700  55.0261680
  29.1826350  34.1326840  54.2115860  29.2704390  35.4749410  54.9062200
  20.9332070  30.5394980  53.4667290  20.8282710  29.9247330  54.1928670
  20.7656290  30.0160870  52.6830300  24.1734800  29.6015010  54.0709280
  23.6244900  30.0484310  54.7152020  24.7954060  29.0964260  54.5946950
  19.8409920  28.5605930  55.9674580  20.2626340  28.3945800  56.8105970
  19.9660760  27.7506160  55.4729720  22.3537560  27.5843540  53.2151680
  22.8743220  26.8692560  52.8492830  23.0005960  28.2229410  53.5152190
  21.2571080  20.0638090  65.8870240  20.8088380  20.0862350  65.0415790
  20.6236280  19.6657110  66.4840540  21.6630630  28.9592420  66.5082680
  22.0818740  29.8025150  66.3358920  20.7439260  29.0964460  66.2789460
  18.7368820  24.6339160  52.9132740  18.5357880  23.7706520  53.2746080
  18.5660870  24.5472520  51.9754340  26.2157130  19.4447390  55.4419620
  26.4959420  18.6015290  55.7979040  25.4422860  19.6770500  55.9558370
  17.5351620  21.7339780  52.9010620  17.8377520  21.7407210  51.9929770
  18.2746210  21.3837640  53.3978280  20.7536550  20.6774400  53.8866820
  20.4058550  19.9998390  53.3069270  20.9549320  20.2163910  54.7010210
  22.9185590  35.6655150  55.5053420  23.8136380  36.0040120  55.5272180
  22.9503220  34.9434560  54.8777700  16.5581750  31.0382200  53.7340420
  16.9956620  31.5811870  54.3898000  17.0429480  30.2129150  53.7436760
  13.7727550  33.8271230  61.1860680  14.1030560  32.9592290  60.9539320
  14.2018550  34.0329750  62.0165640  18.3689470  32.1580240  58.8462650
  18.0685010  32.0345210  59.7466560  18.2626960  31.2988830  58.4378380
  14.2617760  34.6941820  63.9242310  13.8248750  34.8742620  64.7566460
  14.8295440  35.4516440  63.7824030  31.1381390  31.9376640  53.5489330
  30.3074350  32.0053290  54.0196560  31.3153220  32.8280760  53.2456190
  30.5937850  28.6824120  56.0523530  31.3556760  29.2520770  56.1583220
  30.6092220  28.1151320  56.8231840  14.0942190  27.2062050  60.2831190
  13.4391030  26.9373690  59.6390890  14.9320140  27.0966530  59.8333170
  31.5997820  29.5374220  60.8965460  31.9706650  28.7541540  60.4901430
  32.2399750  30.2263320  60.7182760  30.6457020  28.9758490  53.2096050
  30.9205860  29.8837370  53.0815270  30.4567760  28.9121020  54.1458040
  27.0432630  22.0003340  54.5049680  27.4617510  21.8134320  53.6646340
  26.7368690  21.1482390  54.8152610  30.5422360  26.9127480  58.2025480
  30.1665960  26.1455410  57.7706770  29.8125480  27.2950180  58.6900410
  15.1318120  27.5914620  64.8234530  15.4991160  27.5042020  65.7030550
  14.5628940  26.8281170  64.7241390  13.3080270  24.4160980  56.2256520
  12.4044350  24.6791180  56.0508180  13.7920890  24.6872150  55.4456480
  29.8173320  25.1384970  61.5032720  30.3410800  24.6447620  60.8722890
  30.4032740  25.2735330  62.2480290  29.9963040  25.2224840  65.0252270
  29.0465750  25.1888380  65.1397260  30.1776050  26.1324950  64.7902040
  15.8507480  23.4726520  54.1350900  16.5599180  23.0509740  53.6498180
  15.1347420  23.5401750  53.5034250  15.4981640  19.5265850  53.1753550
  16.2209770  20.0674790  53.4934770  15.7706160  19.2529270  52.2995090
  29.3073290  24.3958320  57.4425130  29.8032410  24.1629190  58.2274010
  29.1089360  23.5570160  57.0262770  15.1873830  18.7772040  63.0776170
  15.8350020  18.2269420  62.6371330  15.6075670  19.0315190  63.8991980
  30.7360450  23.0319270  59.9762810  30.6259730  22.8775310  60.9145080
  31.4968040  22.5040210  59.7338220  31.6250720  20.8627190  53.2168950
  32.5500030  20.7308370  53.0087240  31.6026510  20.9420010  54.1705400
  31.6989210  21.6337850  55.8425660  30.9040710  21.5682970  56.3718570
  31.9032490  22.5688490  55.8311010  28.6407630  35.6729400  59.8364050
  29.2366700  35.3513970  59.1598470  28.8985780  35.2001220  60.6277320
  20.2476230  33.6606900  65.5864400  20.0067590  33.9281460  64.6994920
  21.1878870  33.8312630  65.6415260  25.8313250  18.3441790  65.3082490
  24.9573090  18.6776900  65.1055420  25.7224000  17.8714970  66.1334360
  29.1919840  36.3224700  63.6661780  28.7322810  37.0740510  63.2919800
  28.5632300  35.6031170  63.6076580  16.0170460  32.4167940  66.0560500
  15.2904520  31.7973230  65.9886450  16.0779610  32.8108550  65.1858580
  19.6215560  34.6312940  62.8409910  20.1380580  34.0200300  62.3158170
  20.2712940  35.1341720  63.3320920  22.3611060  35.5221430  63.6678890
  22.6488870  35.2675730  62.7911900  22.8734280  34.9698790  64.2584460
  23.5788070  19.2611630  64.2475400  22.7959860  19.7357130  64.5272160
  23.2851000  18.3566460  64.1388580  28.1309140  19.9634730  62.2924490
  28.5717230  19.9079830  61.4446090  27.8616730  20.8792740  62.3634670
  29.9947710  19.5949970  60.3033310  29.9336110  18.6511190  60.1564330
  30.7739740  19.7030060  60.8486770  14.3000460  35.7342330  59.2657260
  14.1322500  35.1013010  59.9639150  13.4334970  35.9401730  58.9151450
  14.9228480  19.5659110  56.7689120  15.6807840  19.6787990  56.1953150
  14.4605650  20.4028310  56.7232550  21.4642290  21.6798380  59.7591430
  20.6516800  21.3055270  59.4187310  21.9683930  20.9243460  60.0612620
  25.9667270  18.3440830  60.9974500  26.5696640  18.9161040  61.4723020
  25.2260260  18.9080270  60.7748400  29.1101870  18.7462390  56.2714780
  29.3052500  19.6445840  56.5382210  28.3231740  18.5149470  56.7647730
  15.9063160  34.4275560  56.7107400  15.3810780  34.8083590  56.0069360
  15.8307740  35.0526330  57.4317110  17.2953630  20.0923160  55.3091090
  17.8246390  19.3052960  55.1799040  17.9281950  20.7714350  55.5426620
  19.4891470  19.8298300  58.3636480  18.8594210  19.1285610  58.5306610
  18.9496610  20.5902430  58.1469640  30.6628480  35.9863100  58.0321340
  30.8380670  35.3000840  57.3882260  29.9650050  36.5110150  57.6398010
  18.5056130  36.3757940  55.5856650  19.2374950  36.0917220  55.0380540
  18.7649800  36.1371220  56.4756030  17.6670920  32.4922670  55.5902980
  17.0379800  32.9607770  56.1388810  17.7818750  31.6471890  56.0249170
  17.2704510  28.6327160  44.4989210  16.4389390  28.3775870  44.8985720
  17.8785490  28.7037930  45.2347130  17.2505770  32.6667250  44.6947230
  17.5533810  31.7764990  44.5157450  17.9949360  33.2237470  44.4669480
  15.6796460  23.5929050  38.2831600  14.7913160  23.9345020  38.1811480
  15.9637650  23.3929370  37.3912430  13.6429470  26.1934700  44.1671300
  14.2145580  25.4256900  44.1674940  13.6431010  26.4923460  43.2577910
  23.5009420  35.0125550  42.0216570  22.8820860  35.4683050  41.4511010
  24.3561200  35.1677010  41.6206270  22.6947670  30.9964540  43.6283610
  22.6255950  30.0554480  43.4672740  23.4567530  31.0865950  44.2006180
  14.8854340  21.6019060  45.9540230  14.7057180  20.7044810  46.2342990
  14.4834420  22.1490930  46.6287180  17.8557850  22.1760550  39.3169980
  17.9624600  23.0764280  39.6238740  16.9450210  22.1278520  39.0264630
  15.5041010  24.0979560  44.5622570  16.1851120  24.3617930  45.1809970
  15.1889060  23.2580430  44.8960580  19.6965580  25.1446920  43.6495160
  20.2043800  25.6427890  44.2900180  20.2278820  24.3682120  43.4734520
  19.2304530  29.4240660  46.0932080  18.8973910  30.0509580  46.7353150
  19.4071210  29.9502540  45.3133750  18.4423630  31.3921460  47.9081260
  19.0597630  32.0672540  47.6265710  17.5816750  31.8009440  47.8168760
  13.7355970  30.5821320  36.7888110  13.3583950  31.0708420  36.0573010
  13.9929040  31.2546600  37.4194640  26.8959960  34.7005000  44.5381080
  26.9087120  34.2967290  43.6703340  26.3435180  35.4752290  44.4342510
  23.7194740  23.3203540  35.9800900  22.7798410  23.4817500  36.0653360
  24.0378000  24.0389220  35.4336890  19.8064000  31.2618840  43.9292680
  19.5092290  30.6564310  43.2500460  20.7563820  31.2996150  43.8182040
  18.0510920  24.3494490  45.5452510  18.6025510  24.4589830  44.7705760
  18.5654430  24.7232090  46.2607740  27.8949610  34.8350710  47.5915780
  27.4180170  35.6422900  47.3988390  27.2111400  34.1829040  47.7441990
  18.8982430  31.0000530  50.5800480  18.0010960  31.2240500  50.8273880
  18.9235300  31.1235470  49.6311880  17.7253650  27.8713850  49.1557850
  17.5861420  28.7436650  49.5245250  16.8435010  27.5286660  49.0105790
  24.0483030  32.7889720  40.4622980  24.4878940  33.5314050  40.0478370
  23.9869920  33.0316290  41.3861940  19.5234000  33.8135550  51.3643000
  19.4949430  34.2178500  50.4971430  19.3598970  32.8845910  51.2014600
  29.5204790  19.1036460  34.8082780  29.2077450  19.1963290  35.7081850
  30.2817260  19.6817490  34.7580210  16.0386930  26.4696260  39.2660120
  15.9184530  27.1958350  38.6541390  15.7287820  25.6999170  38.7888030
  31.4748820  34.5962650  52.6607170  31.9508540  35.0745540  53.3396250
  32.0955980  34.5280140  51.9352670  13.6772300  29.6411400  45.0728760
  13.7552720  29.7760170  44.1284480  14.2913980  28.9327290  45.2656880
  14.9219930  31.3411590  41.4834940  14.5148010  31.4826180  40.6288540
  15.8132940  31.0571750  41.2806150  24.7398810  35.4903500  48.3901990
  25.2543480  35.4011510  49.1924420  23.8967890  35.8363200  48.6829900
  26.7153210  35.7758840  37.8185990  26.5554350  35.4861780  38.7167820
  26.5499920  34.9998970  37.2831220  19.1941590  35.5557370  39.5957610
  19.0184070  34.6392910  39.3825410  18.3397330  35.9144660  39.8355410
  26.4179340  33.2846400  36.3783990  25.7244500  33.2823690  35.7186270
  27.1602200  32.8605720  35.9478160  25.9829270  34.9109110  40.4532480
  26.4386220  34.1298490  40.7671100  26.3221790  35.6215930  40.9973660
  30.7306080  23.8407960  50.7856920  30.1150350  24.3487630  50.2572380
  30.4102500  22.9406290  50.7282860  13.7331820  30.6825570  47.6123220
  13.8962860  30.2130930  46.7942590  14.1984270  30.1749130  48.2772060
  24.8874620  25.4010550  51.4814560  25.2128030  24.5674300  51.1416790
  25.6754950  25.9239070  51.6292890  21.6209410  19.4342030  37.5289620
  20.9963590  19.4301900  38.2542930  21.5339530  18.5672990  37.1325590
  18.2964810  24.9364900  40.3765040  18.0705730  24.7202070  41.2811660
  17.5157340  25.3693360  40.0311010  20.7364020  25.8350480  51.0425310
  20.6407620  24.8945210  50.8925710  21.5796000  26.0565550  50.6473380
  15.8674560  22.2464150  49.1959090  15.4737950  23.0939360  49.4031870
  15.1792960  21.6090520  49.3867730  22.4419610  22.3299120  52.2655830
  21.7517930  22.1371320  52.9001920  23.1851910  22.6133760  52.7980130
  13.1691610  20.1692610  43.2289170  12.8804660  20.7395470  43.9414150
  13.9137370  19.6897060  43.5920400  13.3561840  24.1112730  34.4391890
  13.2736510  25.0543490  34.5806880  13.0044900  23.9687640  33.5604240
  21.2180120  23.8463840  36.4969000  21.3392940  23.8050320  37.4454820
  20.8328630  24.7087990  36.3415730  20.2301620  26.1564980  35.8952300
  19.6618520  25.7083230  35.2688210  20.9390620  26.5157760  35.3617450
  15.3070800  30.0577000  49.7719030  14.9225590  29.4170670  50.3701990
  15.6182990  30.7613120  50.3413760  21.4567940  26.9053540  45.2527650
  21.8238070  26.4312110  45.9988990  21.2673000  27.7795110  45.5935990
  14.3208430  21.6497230  41.3821120  14.0355350  21.2852900  42.2199740
  14.2587290  20.9177690  40.7684260  19.2467310  25.9462180  47.5711860
  18.9424380  26.8254160  47.7962220  20.2013770  26.0061970  47.6069300
  17.7749100  30.1523170  38.1678710  17.0011360  29.6120790  38.0077430
  18.5043730  29.6329780  37.8296470  23.9155880  29.2197590  49.8474100
  23.8493190  28.2993260  49.5931690  23.2861020  29.3173030  50.5618740
  17.8186500  29.8203550  41.8057520  18.3365170  29.0171810  41.7514410
  17.3670520  29.7582690  42.6474350  22.7056000  31.0869830  37.0784820
  23.0471700  31.8312060  36.5828140  21.8768710  31.4000950  37.4409650
  15.3031040  26.7864920  48.7183220  14.9445980  27.4518770  49.3056560
  15.0085600  25.9548470  49.0895840  18.5044160  27.2449160  51.6022770
  18.2044300  27.3906340  50.7050590  19.2755400  26.6854450  51.5096160
  23.8472610  32.0418160  49.5977900  23.8617150  31.1099120  49.3796810
  23.1397710  32.1277920  50.2367670  25.5883410  30.4085670  42.4430330
  25.9407230  29.8113800  41.7831700  24.7045740  30.0829900  42.6138580
  21.6746690  31.1683360  39.8500740  22.3617820  31.7152570  40.2308330
  20.8879110  31.7124090  39.8850350  13.8139090  26.7856180  35.3417820
  14.6833940  27.0680980  35.6253740  13.3229410  27.5992050  35.2266630
  23.2806510  33.6835730  46.6918400  23.9248730  33.8895110  47.3691820
  23.6435950  32.9224130  46.2389250  16.8785680  18.5167040  39.9348620
  16.7500310  18.5084940  40.8833540  16.0547700  18.8550130  39.5839630
  24.5538590  31.6868080  45.4095850  25.1960820  30.9861240  45.5228020
  25.0787940  32.4666520  45.2292740  28.3994310  31.9716700  35.1334990
  28.1731890  31.2547140  35.7259630  28.0090510  31.7229140  34.2956740
  26.3276210  32.4862980  48.6131910  26.6632450  33.0729670  49.2909830
  25.4076550  32.3555690  48.8429700  14.1810340  35.9983560  35.9079450
  14.5407980  36.5972900  35.2536720  14.0402680  36.5443450  36.6814480
  13.8779610  20.2758160  49.3955320  13.1638130  20.4755080  50.0007930
  14.2974650  19.4997730  49.7670120  14.1652200  34.2638420  50.3821850
  14.2743320  33.3233160  50.2417240  13.5132760  34.5293170  49.7335580
  22.1564790  32.5354310  51.7819970  21.8361660  31.8163550  52.3265660
  21.4823150  33.2109380  51.8556030  20.1978960  33.3814760  36.7253120
  20.1889060  34.1144450  36.1097630  19.2777320  33.1346340  36.8180080
  15.7985600  28.6029650  37.4699880  15.1913550  29.3428550  37.4795180
  16.2734950  28.6929010  36.6438080  23.1838560  33.4443000  35.3878310
  23.2850540  33.2406990  34.4580290  22.2840300  33.1901280  35.5926090
  20.7064450  24.0023360  39.3702210  19.9980600  24.4709700  39.8115820
  20.9908930  23.3445370  40.0047400  22.3320380  25.4220060  47.3694740
  22.8305630  25.8965880  48.0346590  22.4743330  24.4983580  47.5764770
  21.8256670  35.9629320  40.0825980  22.0798170  35.9250710  39.1605350
  20.8769150  35.8362650  40.0754230  18.9099470  22.3108440  36.7452920
  19.7590000  22.7478590  36.6793110  18.5430740  22.6228700  37.5724980
  17.8090890  28.5640800  35.2188450  18.5754160  28.4522160  35.7813880
  17.8865580  27.8678770  34.5665220  16.5037650  25.9965870  35.9021340
  16.5841240  25.0493380  36.0138740  17.3957400  26.3272750  36.0082000
  17.3052360  36.1461260  43.0055880  18.0414840  35.5976720  43.2764450
  17.6893280  37.0117270  42.8661870  14.1897840  32.2134830  38.8797390
  13.2637620  32.4555970  38.8702800  14.6554270  33.0409090  38.7582140
  16.3110640  35.3307330  52.1941460  17.1123370  35.6519380  52.6076860
  15.7962460  34.9702910  52.9161370  20.4154670  35.3191570  34.8281450
  21.2083280  35.6080400  34.3763240  19.8959020  34.8883740  34.1493930
  25.1475270  31.4387200  52.1416870  24.5413430  31.4618800  51.4012620
  24.8429380  30.7070240  52.6784120  26.5775640  35.1667490  50.7526280
  27.5297390  35.0825510  50.7026520  26.4303860  35.8309200  51.4260070
  14.0308450  27.8180790  51.1377510  14.5347470  27.2388070  51.7093740
  13.2915870  28.1021020  51.6753880  20.9332070  30.5394980  34.6923800
  20.8282710  29.9247330  35.4185180  20.7656290  30.0160870  33.9086810
  21.0846390  29.2251780  50.6713030  20.3192060  29.7936780  50.5867700
  21.2662350  28.9327990  49.7781260  24.1734800  29.6015010  35.2965790
  23.6244900  30.0484310  35.9408530  24.7954060  29.0964260  35.8203460
  28.2269740  30.9557110  51.2288050  28.9679210  31.2932870  50.7255510
  27.4642420  31.1249170  50.6757820  16.0631530  25.9610380  52.0327580
  16.1036870  25.6624250  52.9412810  16.9177030  26.3617990  51.8735100
  19.8409920  28.5605930  37.1931090  20.2626340  28.3945800  38.0362480
  19.9660760  27.7506160  36.6986230  18.0037340  24.5402480  50.0002070
  17.4733800  24.0493430  49.3725410  18.6725410  24.9686680  49.4660000
  22.3537560  27.5843540  34.4408190  22.8743220  26.8692560  34.0749340
  23.0005960  28.2229410  34.7408700  26.9015400  29.0071940  49.7643260
  27.3156420  29.1617020  50.6133680  25.9666400  29.1327160  49.9269040
  27.3737570  26.3468100  51.7682410  27.9558340  25.5920420  51.6802890
  27.5499340  26.8775540  50.9913890  18.4909640  21.5064850  50.0799360
  18.3966510  20.8885600  49.3550230  17.9107030  22.2331140  49.8529270
  21.6630630  28.9592420  47.7339190  22.0818740  29.8025150  47.5615430
  20.7439260  29.0964460  47.5045970  23.9994530  26.6908600  49.1177030
  24.1190740  26.0949740  49.8571870  24.8588530  26.7278290  48.6978330
  18.7368820  24.6339160  34.1389250  18.5357880  23.7706520  34.5002590
  18.5660870  24.5472520  33.2010850  19.5138050  35.2645430  48.8496920
  18.9759140  35.9891490  48.5305620  19.7672010  34.7875770  48.0594260
  20.7663300  23.2329950  50.3752850  21.3562990  22.9245800  51.0630670
  19.9483540  22.7609700  50.5312750  26.2157130  19.4447390  36.6676130
  26.4959420  18.6015290  37.0235550  25.4422860  19.6770500  37.1814880
  17.5351620  21.7339780  34.1267130  17.8377520  21.7407210  33.2186280
  18.2746210  21.3837640  34.6234790  22.3700260  36.4996640  49.1083570
  22.2958960  37.4031780  49.4155940  21.4679100  36.1808540  49.0805640
  20.7536550  20.6774400  35.1123330  20.4058550  19.9998390  34.5325780
  20.9549320  20.2163910  35.9266720  22.9185590  35.6655150  36.7309930
  23.8136380  36.0040120  36.7528690  22.9503220  34.9434560  36.1034210
  16.5581750  31.0382200  34.9596930  16.9956620  31.5811870  35.6154510
  17.0429480  30.2129150  34.9693270  13.7727550  33.8271230  42.4117190
  14.1030560  32.9592290  42.1795830  14.2018550  34.0329750  43.2422150
  18.3689470  32.1580240  40.0719160  18.0685010  32.0345210  40.9723070
  18.2626960  31.2988830  39.6634890  14.2617760  34.6941820  45.1498820
  13.8248750  34.8742620  45.9822970  14.8295440  35.4516440  45.0080540
  29.8979940  34.1958820  49.4376130  29.2981930  34.2551380  48.6940050
  30.0273840  33.2563800  49.5672980  14.0942190  27.2062050  41.5087700
  13.4391030  26.9373690  40.8647400  14.9320140  27.0966530  41.0589680
  27.0432630  22.0003340  35.7306190  27.4617510  21.8134320  34.8902850
  26.7368690  21.1482390  36.0409120  15.1318120  27.5914620  46.0491040
  15.4991160  27.5042020  46.9287060  14.5628940  26.8281170  45.9497900
  14.6834120  24.5023710  49.9549460  13.7890170  24.4690470  50.2943170
  15.2231670  24.7010500  50.7200710  13.3080270  24.4160980  37.4513030
  12.4044350  24.6791180  37.2764690  13.7920890  24.6872150  36.6712990
  15.8507480  23.4726520  35.3607410  16.5599180  23.0509740  34.8754690
  15.1347420  23.5401750  34.7290760  15.4981640  19.5265850  34.4010060
  16.2209770  20.0674790  34.7191280  15.7706160  19.2529270  33.5251600
  15.1873830  18.7772040  44.3032680  15.8350020  18.2269420  43.8627840
  15.6075670  19.0315190  45.1248490  31.6250720  20.8627190  34.4425460
  32.5500030  20.7308370  34.2343750  31.6026510  20.9420010  35.3961910
  31.6989210  21.6337850  37.0682170  30.9040710  21.5682970  37.5975080
  31.9032490  22.5688490  37.0567520  14.9405830  18.9327710  47.0458000
  14.5920650  19.3891530  47.8116180  14.6093530  18.0384840  47.1280430
  16.5470200  32.1047310  51.2111190  16.5039830  31.7340220  52.0925650
  16.6781210  33.0424880  51.3513010  20.2476230  33.6606900  46.8120910
  20.0067590  33.9281460  45.9251430  21.1878870  33.8312630  46.8671770
  31.5080390  35.6801280  47.6131550  31.0138670  36.0770150  46.8958680
  30.8993680  35.0550490  48.0068830  15.6126470  18.4603910  50.3208770
  16.1609460  18.2791960  49.5574880  15.6781780  17.6698020  50.8565080
  16.3858230  35.0509560  48.3308970  15.7918550  34.9194260  49.0699010
  16.3782070  34.2147700  47.8651070  29.1919840  36.3224700  44.8918290
  28.7322810  37.0740510  44.5176310  28.5632300  35.6031170  44.8333090
  16.0170460  32.4167940  47.2817010  15.2904520  31.7973230  47.2142960
  16.0779610  32.8108550  46.4115090  19.6215560  34.6312940  44.0666420
  20.1380580  34.0200300  43.5414680  20.2712940  35.1341720  44.5577430
  22.3611060  35.5221430  44.8935400  22.6488870  35.2675730  44.0168410
  22.8734280  34.9698790  45.4840970  14.3000460  35.7342330  40.4913770
  14.1322500  35.1013010  41.1895660  13.4334970  35.9401730  40.1407960
  14.9228480  19.5659110  37.9945630  15.6807840  19.6787990  37.4209660
  14.4605650  20.4028310  37.9489060  29.1101870  18.7462390  37.4971290
  29.3052500  19.6445840  37.7638720  28.3231740  18.5149470  37.9904240
  15.9063160  34.4275560  37.9363910  15.3810780  34.8083590  37.2325870
  15.8307740  35.0526330  38.6573620  17.2953630  20.0923160  36.5347600
  17.8246390  19.3052960  36.4055550  17.9281950  20.7714350  36.7683130
  22.4283420  36.4437530  52.2603600  23.3550730  36.2081800  52.3039560
  22.4133850  37.2709530  51.7789630  19.6147030  19.1082280  52.0245480
  19.3331300  19.6115880  51.2606300  19.9966730  18.3104030  51.6587610
  18.5056130  36.3757940  36.8113160  19.2374950  36.0917220  36.2637050
  18.7649800  36.1371220  37.7012540  17.6670920  32.4922670  36.8159490
  17.0379800  32.9607770  37.3645320  17.7818750  31.6471890  37.2505680
  28.9960980  35.6707390  52.0844640  29.7886300  35.1756620  51.8770600
  29.2894130  36.3497530  52.6920250  25.1220640  26.5428330  22.9660690
  25.0414690  25.6282940  22.6952400  24.7085060  27.0395400  22.2600400
  23.2538680  28.3207350  24.8469960  22.4780780  27.8407790  25.1368530
  23.9051610  27.6413000  24.6726120  17.2704510  28.6327160  25.7245720
  16.4389390  28.3775870  26.1242230  17.8785490  28.7037930  26.4603640
  27.2746110  32.7267540  23.6269090  26.8127640  31.9554780  23.9556260
  28.0871660  32.7533610  24.1321540  17.2505770  32.6667250  25.9203740
  17.5533810  31.7764990  25.7413960  17.9949360  33.2237470  25.6925990
  15.6796460  23.5929050  19.5088110  14.7913160  23.9345020  19.4067990
  15.9637650  23.3929370  18.6168940  13.6429470  26.1934700  25.3927810
  14.2145580  25.4256900  25.3931450  13.6431010  26.4923460  24.4834420
  23.5009420  35.0125550  23.2473080  22.8820860  35.4683050  22.6767520
  24.3561200  35.1677010  22.8462780  22.6947670  30.9964540  24.8540120
  22.6255950  30.0554480  24.6929250  23.4567530  31.0865950  25.4262690
  14.8854340  21.6019060  27.1796740  14.7057180  20.7044810  27.4599500
  14.4834420  22.1490930  27.8543690  23.7252840  23.8034920  25.0809050
  24.1017660  22.9306800  24.9682720  23.6272350  24.1393620  24.1899490
  17.8557850  22.1760550  20.5426490  17.9624600  23.0764280  20.8495250
  16.9450210  22.1278520  20.2521140  27.5076960  21.2985360  22.0137390
  28.3286580  20.8081930  22.0562870  27.5411040  21.8883020  22.7669230
  15.5041010  24.0979560  25.7879080  16.1851120  24.3617930  26.4066480
  15.1889060  23.2580430  26.1217090  19.6965580  25.1446920  24.8751670
  20.2043800  25.6427890  25.5156690  20.2278820  24.3682120  24.6991030
  31.7976510  23.3152110  28.5781020  31.0928680  23.7033820  28.0596130
  32.0634430  24.0102400  29.1801950  17.9801680  19.7845480  29.1415090
  17.9820120  20.3017870  28.3360990  17.1505990  19.3075660  29.1185020
  24.3672770  29.8964790  20.6404990  23.7490040  30.3614240  20.0767710
  24.8796020  30.5892270  21.0574500  19.2304530  29.4240660  27.3188590
  18.8973910  30.0509580  27.9609660  19.4071210  29.9502540  26.5390260
  27.7438440  23.2385740  24.7864930  27.0394010  23.5270630  25.3668040
  28.1050600  24.0485850  24.4264490  17.6617010  21.4955440  27.1485540
  18.0033820  22.3397490  26.8539410  16.7232820  21.6439180  27.2650880
  18.4423630  31.3921460  29.1337770  19.0597630  32.0672540  28.8522220
  17.5816750  31.8009440  29.0425270  13.7355970  30.5821320  18.0144620
  13.3583950  31.0708420  17.2829520  13.9929040  31.2546600  18.6451150
  29.3601220  32.8560870  27.0492410  28.6764740  33.5259980  27.0409080
  29.8995510  33.0541520  26.2837270  30.8125360  22.6840530  25.1774140
  29.8650270  22.7179510  25.3089570  31.1375350  23.4979480  25.5623500
  21.3444900  18.9837710  23.4730130  21.6519880  18.4284600  22.7565630
  20.4145600  19.1182170  23.2903120  26.8959960  34.7005000  25.7637590
  26.9087120  34.2967290  24.8959850  26.3435180  35.4752290  25.6599020
  28.1905380  31.4221220  20.8527760  28.0801710  30.4795550  20.9777180
  28.1873630  31.7836860  21.7390520  26.2945400  29.6034840  27.0920200
  26.7114190  29.3894950  26.2573660  27.0185220  29.8607630  27.6628820
  23.7325660  27.0486540  20.2090250  22.8054940  26.9823920  20.4378720
  23.8850480  27.9866670  20.0945490  23.7194740  23.3203540  17.2057410
  22.7798410  23.4817500  17.2909870  24.0378000  24.0389220  16.6593400
  30.2407500  28.0022060  27.1836440  29.4126130  28.0715150  26.7086570
  30.8357980  28.5876370  26.7152270  27.7622950  28.6106840  20.7125500
  27.1435370  28.2726390  20.0651800  27.7447400  27.9666600  21.4204690
  27.2049510  24.7891380  28.1291310  26.7920690  25.6145090  28.3831300
  26.4725460  24.2036420  27.9367670  19.3382300  27.5751280  22.9909980
  18.9339300  26.8628530  22.4955880  19.4245420  27.2304520  23.8798020
  19.8064000  31.2618840  25.1549190  19.5092290  30.6564310  24.4756970
  20.7563820  31.2996150  25.0438550  18.0510920  24.3494490  26.7709020
  18.6025510  24.4589830  25.9962270  18.5654430  24.7232090  27.4864250
  27.8949610  34.8350710  28.8172290  27.4180170  35.6422900  28.6244900
  27.2111400  34.1829040  28.9698500  18.8982430  31.0000530  31.8056990
  18.0010960  31.2240500  32.0530390  18.9235300  31.1235470  30.8568390
  25.9387650  27.8493650  17.7198250  26.3780930  27.0116080  17.5736070
  26.6516070  28.4823050  17.8062390  17.7253650  27.8713850  30.3814360
  17.5861420  28.7436650  30.7501760  16.8435010  27.5286660  30.2362300
  24.0483030  32.7889720  21.6879490  24.4878940  33.5314050  21.2734880
  23.9869920  33.0316290  22.6118450  19.5234000  33.8135550  32.5899510
  19.4949430  34.2178500  31.7227940  19.3598970  32.8845910  32.4271110
  29.5204790  19.1036460  16.0339290  29.2077450  19.1963290  16.9338360
  30.2817260  19.6817490  15.9836720  16.0386930  26.4696260  20.4916630
  15.9184530  27.1958350  19.8797900  15.7287820  25.6999170  20.0144540
  13.6772300  29.6411400  26.2985270  13.7552720  29.7760170  25.3540990
  14.2913980  28.9327290  26.4913390  14.9219930  31.3411590  22.7091450
  14.5148010  31.4826180  21.8545050  15.8132940  31.0571750  22.5062660
  24.7398810  35.4903500  29.6158500  25.2543480  35.4011510  30.4180930
  23.8967890  35.8363200  29.9086410  26.7153210  35.7758840  19.0442500
  26.5554350  35.4861780  19.9424330  26.5499920  34.9998970  18.5087730
  19.1941590  35.5557370  20.8214120  19.0184070  34.6392910  20.6081920
  18.3397330  35.9144660  21.0611920  26.4179340  33.2846400  17.6040500
  25.7244500  33.2823690  16.9442780  27.1602200  32.8605720  17.1734670
  25.9829270  34.9109110  21.6788990  26.4386220  34.1298490  21.9927610
  26.3221790  35.6215930  22.2230170  30.7306080  23.8407960  32.0113430
  30.1150350  24.3487630  31.4828890  30.4102500  22.9406290  31.9539370
  13.7331820  30.6825570  28.8379730  13.8962860  30.2130930  28.0199100
  14.1984270  30.1749130  29.5028570  18.5050590  19.8131330  23.8740300
  18.0618740  20.5940870  23.5424820  19.0635580  20.1361220  24.5811240
  22.7920400  22.6799850  29.4775620  22.3299770  22.8882870  30.2895560
  22.3898510  21.8659200  29.1746290  27.7924910  23.9008800  30.6072280
  26.9418500  23.6014550  30.9281350  27.6326700  24.1450810  29.6956100
  24.8874620  25.4010550  32.7071070  25.2128030  24.5674300  32.3673300
  25.6754950  25.9239070  32.8549400  21.6209410  19.4342030  18.7546130
  20.9963590  19.4301900  19.4799440  21.5339530  18.5672990  18.3582100
  20.5426490  20.3578660  25.7329900  20.8398820  21.2641490  25.6521920
  21.0912050  19.8697440  25.1189470  18.2964810  24.9364900  21.6021550
  18.0705730  24.7202070  22.5068170  17.5157340  25.3693360  21.2567520
  25.5262570  24.9428270  20.2012200  24.9271460  25.6664070  20.0175820
  26.0742180  24.8805050  19.4188650  20.7364020  25.8350480  32.2681820
  20.6407620  24.8945210  32.1182220  21.5796000  26.0565550  31.8729890
  24.1327440  23.5791810  22.2315480  24.5257010  23.8964010  21.4184170
  24.4944290  22.7003690  22.3460000  15.8674560  22.2464150  30.4215600
  15.4737950  23.0939360  30.6288380  15.1792960  21.6090520  30.6124240
  22.4419610  22.3299120  33.4912340  21.7517930  22.1371320  34.1258430
  23.1851910  22.6133760  34.0236640  13.1691610  20.1692610  24.4545680
  12.8804660  20.7395470  25.1670660  13.9137370  19.6897060  24.8176910
  13.3561840  24.1112730  15.6648400  13.2736510  25.0543490  15.8063390
  13.0044900  23.9687640  14.7860750  24.7182580  26.1697560  26.3266260
  23.9863700  26.6784370  26.6756360  24.3206920  25.3527540  26.0255040
  21.1559970  22.8451760  24.7318750  21.1596030  22.4041710  23.8823290
  22.0511090  23.1669090  24.8390570  17.0062350  22.7278250  23.6912960
  16.6662400  23.2053480  24.4480010  16.2439670  22.2743370  23.3314060
  21.2180120  23.8463840  17.7225510  21.3392940  23.8050320  18.6711330
  20.8328630  24.7087990  17.5672240  25.1808490  21.6231240  25.7389200
  25.1981230  22.0739890  26.5831050  24.9324070  20.7236880  25.9522640
  20.2301620  26.1564980  17.1208810  19.6618520  25.7083230  16.4944720
  20.9390620  26.5157760  16.5873960  28.6079240  19.0363420  31.5775580
  28.9325010  18.3053080  32.1033560  28.6435750  18.7177060  30.6756570
  15.3070800  30.0577000  30.9975540  14.9225590  29.4170670  31.5958500
  15.6182990  30.7613120  31.5670270  21.4567940  26.9053540  26.4784160
  21.8238070  26.4312110  27.2245500  21.2673000  27.7795110  26.8192500
  14.3208430  21.6497230  22.6077630  14.0355350  21.2852900  23.4456250
  14.2587290  20.9177690  21.9940770  19.2467310  25.9462180  28.7968370
  18.9424380  26.8254160  29.0218730  20.2013770  26.0061970  28.8325810
  17.7749100  30.1523170  19.3935220  17.0011360  29.6120790  19.2333940
  18.5043730  29.6329780  19.0552980  28.5337080  29.1488530  25.1861610
  29.2536200  29.6443820  24.7957720  28.3318900  28.4706420  24.5415480
  23.9947020  20.5426490  19.3291000  23.1811630  20.0439660  19.2536310
  23.8008970  21.3824740  18.9127350  23.9155880  29.2197590  31.0730610
  23.8493190  28.2993260  30.8188200  23.2861020  29.3173030  31.7875250
  26.7095410  24.9146140  17.6253160  27.5975030  25.2263370  17.4504500
  26.6800500  24.0418390  17.2333740  17.8186500  29.8203550  23.0314030
  18.3365170  29.0171810  22.9770920  17.3670520  29.7582690  23.8730860
  22.7056000  31.0869830  18.3041330  23.0471700  31.8312060  17.8084650
  21.8768710  31.4000950  18.6666160  15.3031040  26.7864920  29.9439730
  14.9445980  27.4518770  30.5313070  15.0085600  25.9548470  30.3152350
  18.5044160  27.2449160  32.8279280  18.2044300  27.3906340  31.9307100
  19.2755400  26.6854450  32.7352670  23.8472610  32.0418160  30.8234410
  23.8617150  31.1099120  30.6053320  23.1397710  32.1277920  31.4624180
  28.9809680  26.2257980  17.0933020  28.8973400  26.6572200  16.2429460
  29.7003870  26.6856330  17.5259840  30.0583820  28.6825500  30.1702990
  29.3332010  29.2754280  29.9732380  30.5859280  28.6749040  29.3716360
  30.0096930  33.0800240  19.8215150  29.3673090  32.4255860  20.0958870
  29.6227590  33.4855330  19.0455820  25.5883410  30.4085670  23.6686840
  25.9407230  29.8113800  23.0088210  24.7045740  30.0829900  23.8395090
  21.6746690  31.1683360  21.0757250  22.3617820  31.7152570  21.4564840
  20.8879110  31.7124090  21.1106860  13.8139090  26.7856180  16.5674330
  14.6833940  27.0680980  16.8510250  13.3229410  27.5992050  16.4523140
  20.9773900  28.1729390  20.6882610  21.4336680  28.9834640  20.9142800
  20.6262110  27.8552530  21.5201100  23.2806510  33.6835730  27.9174910
  23.9248730  33.8895110  28.5948330  23.6435950  32.9224130  27.4645760
  16.8785680  18.5167040  21.1605130  16.7500310  18.5084940  22.1090050
  16.0547700  18.8550130  20.8096140  24.5538590  31.6868080  26.6352360
  25.1960820  30.9861240  26.7484530  25.0787940  32.4666520  26.4549250
  28.3994310  31.9716700  16.3591500  28.1731890  31.2547140  16.9516140
  28.0090510  31.7229140  15.5213250  26.3276210  32.4862980  29.8388420
  26.6632450  33.0729670  30.5166340  25.4076550  32.3555690  30.0686210
  14.1810340  35.9983560  17.1335960  14.5407980  36.5972900  16.4793230
  14.0402680  36.5443450  17.9070990  13.8779610  20.2758160  30.6211830
  13.1638130  20.4755080  31.2264440  14.2974650  19.4997730  30.9926630
  27.9810560  29.8888640  18.0205660  27.6932260  30.3501330  18.8083540
  28.7762730  29.4286410  18.2889880  14.1652200  34.2638420  31.6078360
  14.2743320  33.3233160  31.4673750  13.5132760  34.5293170  30.9592090
  22.1564790  32.5354310  33.0076480  21.8361660  31.8163550  33.5522170
  21.4823150  33.2109380  33.0812540  20.1978960  33.3814760  17.9509630
  20.1889060  34.1144450  17.3354140  19.2777320  33.1346340  18.0436590
  15.7985600  28.6029650  18.6956390  15.1913550  29.3428550  18.7051690
  16.2734950  28.6929010  17.8694590  25.3718390  22.7680470  28.3713280
  25.7399210  21.9475680  28.6992850  24.5116590  22.8282360  28.7868930
  28.7380420  21.7237410  19.1800840  28.1093580  21.8283080  18.4659070
  28.2432340  21.9434190  19.9694720  23.1838560  33.4443000  16.6134820
  23.2850540  33.2406990  15.6836800  22.2840300  33.1901280  16.8182600
  20.7064450  24.0023360  20.5958720  19.9980600  24.4709700  21.0372330
  20.9908930  23.3445370  21.2303910  22.3320380  25.4220060  28.5951250
  22.8305630  25.8965880  29.2603100  22.4743330  24.4983580  28.8021280
  24.7379880  20.7274020  22.0354510  24.6147660  20.7460150  21.0864020
  25.6864440  20.7752960  22.1552910  21.8256670  35.9629320  21.3082490
  22.0798170  35.9250710  20.3861860  20.8769150  35.8362650  21.3010740
  18.9099470  22.3108440  17.9709430  19.7590000  22.7478590  17.9049620
  18.5430740  22.6228700  18.7981490  29.5387240  21.6388020  29.4379640
  29.0360840  22.3793420  29.7773450  30.3543900  22.0272020  29.1216430
  27.8309250  26.8821200  22.8841000  26.8899390  26.8971430  23.0588690
  28.1453320  26.0957160  23.3301300  17.8090890  28.5640800  16.4444960
  18.5754160  28.4522160  17.0070390  17.8865580  27.8678770  15.7921730
  16.5037650  25.9965870  17.1277850  16.5841240  25.0493380  17.2395250
  17.3957400  26.3272750  17.2338510  29.8334830  34.0530050  24.5595260
  29.9582250  34.8761220  25.0319070  30.7000390  33.8420780  24.2119410
  17.3052360  36.1461260  24.2312390  18.0414840  35.5976720  24.5020960
  17.6893280  37.0117270  24.0918380  14.1897840  32.2134830  20.1053900
  13.2637620  32.4555970  20.0959310  14.6554270  33.0409090  19.9838650
  16.3110640  35.3307330  33.4197970  17.1123370  35.6519380  33.8333370
  15.7962460  34.9702910  34.1417880  20.4154670  35.3191570  16.0537960
  21.2083280  35.6080400  15.6019750  19.8959020  34.8883740  15.3750440
  25.1475270  31.4387200  33.3673380  24.5413430  31.4618800  32.6269130
  24.8429380  30.7070240  33.9040630  26.5775640  35.1667490  31.9782790
  27.5297390  35.0825510  31.9283030  26.4303860  35.8309200  32.6516580
  29.4684840  34.5461700  17.4774700  29.1826350  34.1326840  16.6628880
  29.2704390  35.4749410  17.3575220  14.0308450  27.8180790  32.3634020
  14.5347470  27.2388070  32.9350250  13.2915870  28.1021020  32.9010390
  20.9332070  30.5394980  15.9180310  20.8282710  29.9247330  16.6441690
  20.7656290  30.0160870  15.1343320  21.0846390  29.2251780  31.8969540
  20.3192060  29.7936780  31.8124210  21.2662350  28.9327990  31.0037770
  24.1734800  29.6015010  16.5222300  23.6244900  30.0484310  17.1665040
  24.7954060  29.0964260  17.0459970  16.0631530  25.9610380  33.2584090
  16.1036870  25.6624250  34.1669320  16.9177030  26.3617990  33.0991610
  19.8409920  28.5605930  18.4187600  20.2626340  28.3945800  19.2618990
  19.9660760  27.7506160  17.9242740  18.0037340  24.5402480  31.2258580
  17.4733800  24.0493430  30.5981920  18.6725410  24.9686680  30.6916510
  22.3537560  27.5843540  15.6664700  22.8743220  26.8692560  15.3005850
  23.0005960  28.2229410  15.9665210  26.9015400  29.0071940  30.9899770
  27.3156420  29.1617020  31.8390190  25.9666400  29.1327160  31.1525550
  27.3737570  26.3468100  32.9938920  27.9558340  25.5920420  32.9059400
  27.5499340  26.8775540  32.2170400  18.4909640  21.5064850  31.3055870
  18.3966510  20.8885600  30.5806740  17.9107030  22.2331140  31.0785780
  21.2571080  20.0638090  28.3383260  20.8088380  20.0862350  27.4928810
  20.6236280  19.6657110  28.9353560  21.6630630  28.9592420  28.9595700
  22.0818740  29.8025150  28.7871940  20.7439260  29.0964460  28.7302480
  23.9994530  26.6908600  30.3433540  24.1190740  26.0949740  31.0828380
  24.8588530  26.7278290  29.9234840  26.3382430  27.2445790  28.9196050
  25.8117650  27.7688410  28.3161190  26.6813770  27.8773180  29.5505780
  18.7368820  24.6339160  15.3645760  18.5357880  23.7706520  15.7259100
  18.5660870  24.5472520  14.4267360  19.5138050  35.2645430  30.0753430
  18.9759140  35.9891490  29.7562130  19.7672010  34.7875770  29.2850770
  20.7663300  23.2329950  31.6009360  21.3562990  22.9245800  32.2887180
  19.9483540  22.7609700  31.7569260  25.5856730  22.8495760  31.8342380
  24.8972250  22.1877300  31.7692370  26.3062750  22.4034030  32.2790840
  26.2157130  19.4447390  17.8932640  26.4959420  18.6015290  18.2492060
  25.4422860  19.6770500  18.4071390  17.5351620  21.7339780  15.3523640
  17.8377520  21.7407210  14.4442790  18.2746210  21.3837640  15.8491300
  22.3700260  36.4996640  30.3340080  22.2958960  37.4031780  30.6412450
  21.4679100  36.1808540  30.3062150  20.7536550  20.6774400  16.3379840
  20.4058550  19.9998390  15.7582290  20.9549320  20.2163910  17.1523230
  22.9185590  35.6655150  17.9566440  23.8136380  36.0040120  17.9785200
  22.9503220  34.9434560  17.3290720  16.5581750  31.0382200  16.1853440
  16.9956620  31.5811870  16.8411020  17.0429480  30.2129150  16.1949780
  13.7727550  33.8271230  23.6373700  14.1030560  32.9592290  23.4052340
  14.2018550  34.0329750  24.4678660  18.3689470  32.1580240  21.2975670
  18.0685010  32.0345210  22.1979580  18.2626960  31.2988830  20.8891400
  14.2617760  34.6941820  26.3755330  13.8248750  34.8742620  27.2079480
  14.8295440  35.4516440  26.2337050  31.1381390  31.9376640  16.0002350
  30.3074350  32.0053290  16.4709580  31.3153220  32.8280760  15.6969210
  30.5937850  28.6824120  18.5036550  31.3556760  29.2520770  18.6096240
  30.6092220  28.1151320  19.2744860  14.0942190  27.2062050  22.7344210
  13.4391030  26.9373690  22.0903910  14.9320140  27.0966530  22.2846190
  31.5997820  29.5374220  23.3478480  31.9706650  28.7541540  22.9414450
  32.2399750  30.2263320  23.1695780  28.5831580  30.9210800  28.7608800
  27.7691420  31.3507960  29.0234590  28.9905780  31.5329210  28.1477850
  30.6457020  28.9758490  15.6609070  30.9205860  29.8837370  15.5328290
  30.4567760  28.9121020  16.5971060  27.0432630  22.0003340  16.9562700
  27.4617510  21.8134320  16.1159360  26.7368690  21.1482390  17.2665630
  30.5422360  26.9127480  20.6538500  30.1665960  26.1455410  20.2219790
  29.8125480  27.2950180  21.1413430  15.1318120  27.5914620  27.2747550
  15.4991160  27.5042020  28.1543570  14.5628940  26.8281170  27.1754410
  29.9321980  26.0599000  30.2878020  29.7008070  25.8311750  29.3875970
  30.1926530  26.9798550  30.2422910  14.6834120  24.5023710  31.1805970
  13.7890170  24.4690470  31.5199680  15.2231670  24.7010500  31.9457220
  28.3710050  21.2855430  33.0657720  29.2480230  21.2938830  33.4491720
  28.3830890  20.5486270  32.4550070  13.3080270  24.4160980  18.6769540
  12.4044350  24.6791180  18.5021200  13.7920890  24.6872150  17.8969500
  29.8173320  25.1384970  23.9545740  30.3410800  24.6447620  23.3235910
  30.4032740  25.2735330  24.6993310  29.9963040  25.2224840  27.4765290
  29.0465750  25.1888380  27.5910280  30.1776050  26.1324950  27.2415060
  15.8507480  23.4726520  16.5863920  16.5599180  23.0509740  16.1011200
  15.1347420  23.5401750  15.9547270  15.4981640  19.5265850  15.6266570
  16.2209770  20.0674790  15.9447790  15.7706160  19.2529270  14.7508110
  29.3073290  24.3958320  19.8938150  29.8032410  24.1629190  20.6787030
  29.1089360  23.5570160  19.4775790  15.1873830  18.7772040  25.5289190
  15.8350020  18.2269420  25.0884350  15.6075670  19.0315190  26.3505000
  30.7360450  23.0319270  22.4275830  30.6259730  22.8775310  23.3658100
  31.4968040  22.5040210  22.1851240  29.0826170  18.9713400  28.8858830
  29.7198390  19.5847540  29.2518020  29.2301060  19.0074060  27.9408060
  31.6250720  20.8627190  15.6681970  32.5500030  20.7308370  15.4600260
  31.6026510  20.9420010  16.6218420  31.6989210  21.6337850  18.2938680
  30.9040710  21.5682970  18.8231590  31.9032490  22.5688490  18.2824030
  28.6407630  35.6729400  22.2877070  29.2366700  35.3513970  21.6111490
  28.8985780  35.2001220  23.0790340  14.9405830  18.9327710  28.2714510
  14.5920650  19.3891530  29.0372690  14.6093530  18.0384840  28.3536940
  16.5470200  32.1047310  32.4367700  16.5039830  31.7340220  33.3182160
  16.6781210  33.0424880  32.5769520  20.2476230  33.6606900  28.0377420
  20.0067590  33.9281460  27.1507940  21.1878870  33.8312630  28.0928280
  22.4530650  20.1239590  31.7933930  22.3919540  20.7161420  32.5429340
  23.3931030  20.0165550  31.6484190  25.0905210  19.7809650  31.4326220
  25.7045620  20.0988940  30.7707300  25.6354770  19.2958240  32.0522080
  15.6126470  18.4603910  31.5465280  16.1609460  18.2791960  30.7831390
  15.6781780  17.6698020  32.0821590  16.3858230  35.0509560  29.5565480
  15.7918550  34.9194260  30.2955520  16.3782070  34.2147700  29.0907580
  25.8313250  18.3441790  27.7595510  24.9573090  18.6776900  27.5568440
  25.7224000  17.8714970  28.5847380  26.7385230  20.5512660  29.1437230
  26.4098590  19.7364420  28.7638960  27.6867530  20.5082470  29.0202920
  29.1919840  36.3224700  26.1174800  28.7322810  37.0740510  25.7432820
  28.5632300  35.6031170  26.0589600  16.0170460  32.4167940  28.5073520
  15.2904520  31.7973230  28.4399470  16.0779610  32.8108550  27.6371600
  19.6215560  34.6312940  25.2922930  20.1380580  34.0200300  24.7671190
  20.2712940  35.1341720  25.7833940  22.3611060  35.5221430  26.1191910
  22.6488870  35.2675730  25.2424920  22.8734280  34.9698790  26.7097480
  23.5788070  19.2611630  26.6988420  22.7959860  19.7357130  26.9785180
  23.2851000  18.3566460  26.5901600  28.1309140  19.9634730  24.7437510
  28.5717230  19.9079830  23.8959110  27.8616730  20.8792740  24.8147690
  29.9947710  19.5949970  22.7546330  29.9336110  18.6511190  22.6077350
  30.7739740  19.7030060  23.2999790  14.3000460  35.7342330  21.7170280
  14.1322500  35.1013010  22.4152170  13.4334970  35.9401730  21.3664470
  14.9228480  19.5659110  19.2202140  15.6807840  19.6787990  18.6466170
  14.4605650  20.4028310  19.1745570  21.4642290  21.6798380  22.2104450
  20.6516800  21.3055270  21.8700330  21.9683930  20.9243460  22.5125640
  25.9667270  18.3440830  23.4487520  26.5696640  18.9161040  23.9236040
  25.2260260  18.9080270  23.2261420  29.1101870  18.7462390  18.7227800
  29.3052500  19.6445840  18.9895230  28.3231740  18.5149470  19.2160750
  15.9063160  34.4275560  19.1620420  15.3810780  34.8083590  18.4582380
  15.8307740  35.0526330  19.8830130  17.2953630  20.0923160  17.7604110
  17.8246390  19.3052960  17.6312060  17.9281950  20.7714350  17.9939640
  19.4891470  19.8298300  20.8149500  18.8594210  19.1285610  20.9819630
  18.9496610  20.5902430  20.5982660  22.4283420  36.4437530  33.4860110
  23.3550730  36.2081800  33.5296070  22.4133850  37.2709530  33.0046140
  30.6628480  35.9863100  20.4834360  30.8380670  35.3000840  19.8395280
  29.9650050  36.5110150  20.0911030  19.6147030  19.1082280  33.2501990
  19.3331300  19.6115880  32.4862810  19.9966730  18.3104030  32.8844120
  18.5056130  36.3757940  18.0369670  19.2374950  36.0917220  17.4893560
  18.7649800  36.1371220  18.9269050  17.6670920  32.4922670  18.0416000
  17.0379800  32.9607770  18.5901830  17.7818750  31.6471890  18.4762190
  26.2162490  18.5235860  33.8282460  26.1027940  18.8430470  34.7233980
  27.0332230  18.9248370  33.5319740  25.1220640  26.5428330   4.1917200
  25.0414690  25.6282940   3.9208910  24.7085060  27.0395400   3.4856910
  23.2538680  28.3207350   6.0726470  22.4780780  27.8407790   6.3625040
  23.9051610  27.6413000   5.8982630  17.2704510  28.6327160   6.9502230
  16.4389390  28.3775870   7.3498740  17.8785490  28.7037930   7.6860150
  27.2746110  32.7267540   4.8525600  26.8127640  31.9554780   5.1812770
  28.0871660  32.7533610   5.3578050  17.2505770  32.6667250   7.1460250
  17.5533810  31.7764990   6.9670470  17.9949360  33.2237470   6.9182500
  13.6429470  26.1934700   6.6184320  14.2145580  25.4256900   6.6187960
  13.6431010  26.4923460   5.7090930  23.5009420  35.0125550   4.4729590
  22.8820860  35.4683050   3.9024030  24.3561200  35.1677010   4.0719290
  22.6947670  30.9964540   6.0796630  22.6255950  30.0554480   5.9185760
  23.4567530  31.0865950   6.6519200  14.8854340  21.6019060   8.4053250
  14.7057180  20.7044810   8.6856010  14.4834420  22.1490930   9.0800200
  23.7252840  23.8034920   6.3065560  24.1017660  22.9306800   6.1939230
  23.6272350  24.1393620   5.4156000  17.8557850  22.1760550   1.7683000
  17.9624600  23.0764280   2.0751760  16.9450210  22.1278520   1.4777650
  27.5076960  21.2985360   3.2393900  28.3286580  20.8081930   3.2819380
  27.5411040  21.8883020   3.9925740  15.5041010  24.0979560   7.0135590
  16.1851120  24.3617930   7.6322990  15.1889060  23.2580430   7.3473600
  19.6965580  25.1446920   6.1008180  20.2043800  25.6427890   6.7413200
  20.2278820  24.3682120   5.9247540  31.7976510  23.3152110   9.8037530
  31.0928680  23.7033820   9.2852640  32.0634430  24.0102400  10.4058460
  17.9801680  19.7845480  10.3671600  17.9820120  20.3017870   9.5617500
  17.1505990  19.3075660  10.3441530  19.2304530  29.4240660   8.5445100
  18.8973910  30.0509580   9.1866170  19.4071210  29.9502540   7.7646770
  27.7438440  23.2385740   6.0121440  27.0394010  23.5270630   6.5924550
  28.1050600  24.0485850   5.6521000  17.6617010  21.4955440   8.3742050
  18.0033820  22.3397490   8.0795920  16.7232820  21.6439180   8.4907390
  18.4423630  31.3921460  10.3594280  19.0597630  32.0672540  10.0778730
  17.5816750  31.8009440  10.2681780  29.3601220  32.8560870   8.2748920
  28.6764740  33.5259980   8.2665590  29.8995510  33.0541520   7.5093780
  30.8125360  22.6840530   6.4030650  29.8650270  22.7179510   6.5346080
  31.1375350  23.4979480   6.7880010  21.3444900  18.9837710   4.6986640
  21.6519880  18.4284600   3.9822140  20.4145600  19.1182170   4.5159630
  26.8959960  34.7005000   6.9894100  26.9087120  34.2967290   6.1216360
  26.3435180  35.4752290   6.8855530  28.1905380  31.4221220   2.0784270
  28.0801710  30.4795550   2.2033690  28.1873630  31.7836860   2.9647030
  26.2945400  29.6034840   8.3176710  26.7114190  29.3894950   7.4830170
  27.0185220  29.8607630   8.8885330  30.2407500  28.0022060   8.4092950
  29.4126130  28.0715150   7.9343080  30.8357980  28.5876370   7.9408780
  27.2049510  24.7891380   9.3547820  26.7920690  25.6145090   9.6087810
  26.4725460  24.2036420   9.1624180  19.3382300  27.5751280   4.2166490
  18.9339300  26.8628530   3.7212390  19.4245420  27.2304520   5.1054530
  19.8064000  31.2618840   6.3805700  19.5092290  30.6564310   5.7013480
  20.7563820  31.2996150   6.2695060  18.0510920  24.3494490   7.9965530
  18.6025510  24.4589830   7.2218780  18.5654430  24.7232090   8.7120760
  27.8949610  34.8350710  10.0428800  27.4180170  35.6422900   9.8501410
  27.2111400  34.1829040  10.1955010  18.8982430  31.0000530  13.0313500
  18.0010960  31.2240500  13.2786900  18.9235300  31.1235470  12.0824900
  17.7253650  27.8713850  11.6070870  17.5861420  28.7436650  11.9758270
  16.8435010  27.5286660  11.4618810  24.0483030  32.7889720   2.9136000
  24.4878940  33.5314050   2.4991390  23.9869920  33.0316290   3.8374960
  19.5234000  33.8135550  13.8156020  19.4949430  34.2178500  12.9484450
  19.3598970  32.8845910  13.6527620  31.4748820  34.5962650  15.1120190
  31.9508540  35.0745540  15.7909270  32.0955980  34.5280140  14.3865690
  13.6772300  29.6411400   7.5241780  13.7552720  29.7760170   6.5797500
  14.2913980  28.9327290   7.7169900  14.9219930  31.3411590   3.9347960
  14.5148010  31.4826180   3.0801560  15.8132940  31.0571750   3.7319170
  30.8782070  31.7875500  12.2720200  31.0045130  31.5487380  11.3537380
  30.9203450  30.9560040  12.7442280  24.7398810  35.4903500  10.8415010
  25.2543480  35.4011510  11.6437440  23.8967890  35.8363200  11.1342920
  19.1941590  35.5557370   2.0470630  19.0184070  34.6392910   1.8338430
  18.3397330  35.9144660   2.2868430  25.9829270  34.9109110   2.9045500
  26.4386220  34.1298490   3.2184120  26.3221790  35.6215930   3.4486680
  30.7306080  23.8407960  13.2369940  30.1150350  24.3487630  12.7085400
  30.4102500  22.9406290  13.1795880  13.7331820  30.6825570  10.0636240
  13.8962860  30.2130930   9.2455610  14.1984270  30.1749130  10.7285080
  18.5050590  19.8131330   5.0996810  18.0618740  20.5940870   4.7681330
  19.0635580  20.1361220   5.8067750  22.7920400  22.6799850  10.7032130
  22.3299770  22.8882870  11.5152070  22.3898510  21.8659200  10.4002800
  27.7924910  23.9008800  11.8328790  26.9418500  23.6014550  12.1537860
  27.6326700  24.1450810  10.9212610  24.8874620  25.4010550  13.9327580
  25.2128030  24.5674300  13.5929810  25.6754950  25.9239070  14.0805910
  20.5426490  20.3578660   6.9586410  20.8398820  21.2641490   6.8778430
  21.0912050  19.8697440   6.3445980  18.2964810  24.9364900   2.8278060
  18.0705730  24.7202070   3.7324680  17.5157340  25.3693360   2.4824030
  20.7364020  25.8350480  13.4938330  20.6407620  24.8945210  13.3438730
  21.5796000  26.0565550  13.0986400  24.1327440  23.5791810   3.4571990
  24.5257010  23.8964010   2.6440680  24.4944290  22.7003690   3.5716510
  15.8674560  22.2464150  11.6472110  15.4737950  23.0939360  11.8544890
  15.1792960  21.6090520  11.8380750  22.4419610  22.3299120  14.7168850
  21.7517930  22.1371320  15.3514940  23.1851910  22.6133760  15.2493150
  13.1691610  20.1692610   5.6802190  12.8804660  20.7395470   6.3927170
  13.9137370  19.6897060   6.0433420  24.7182580  26.1697560   7.5522770
  23.9863700  26.6784370   7.9012870  24.3206920  25.3527540   7.2511550
  21.1559970  22.8451760   5.9575260  21.1596030  22.4041710   5.1079800
  22.0511090  23.1669090   6.0647080  17.0062350  22.7278250   4.9169470
  16.6662400  23.2053480   5.6736520  16.2439670  22.2743370   4.5570570
  25.1808490  21.6231240   6.9645710  25.1981230  22.0739890   7.8087560
  24.9324070  20.7236880   7.1779150  28.6079240  19.0363420  12.8032090
  28.9325010  18.3053080  13.3290070  28.6435750  18.7177060  11.9013080
  15.3070800  30.0577000  12.2232050  14.9225590  29.4170670  12.8215010
  15.6182990  30.7613120  12.7926780  21.4567940  26.9053540   7.7040670
  21.8238070  26.4312110   8.4502010  21.2673000  27.7795110   8.0449010
  14.3208430  21.6497230   3.8334140  14.0355350  21.2852900   4.6712760
  14.2587290  20.9177690   3.2197280  19.2467310  25.9462180  10.0224880
  18.9424380  26.8254160  10.2475240  20.2013770  26.0061970  10.0582320
  28.5337080  29.1488530   6.4118120  29.2536200  29.6443820   6.0214230
  28.3318900  28.4706420   5.7671990  23.9155880  29.2197590  12.2987120
  23.8493190  28.2993260  12.0444710  23.2861020  29.3173030  13.0131760
  17.8186500  29.8203550   4.2570540  18.3365170  29.0171810   4.2027430
  17.3670520  29.7582690   5.0987370  15.3031040  26.7864920  11.1696240
  14.9445980  27.4518770  11.7569580  15.0085600  25.9548470  11.5408860
  18.5044160  27.2449160  14.0535790  18.2044300  27.3906340  13.1563610
  19.2755400  26.6854450  13.9609180  23.8472610  32.0418160  12.0490920
  23.8617150  31.1099120  11.8309830  23.1397710  32.1277920  12.6880690
  30.0583820  28.6825500  11.3959500  29.3332010  29.2754280  11.1988890
  30.5859280  28.6749040  10.5972870  25.5883410  30.4085670   4.8943350
  25.9407230  29.8113800   4.2344720  24.7045740  30.0829900   5.0651600
  21.6746690  31.1683360   2.3013760  22.3617820  31.7152570   2.6821350
  20.8879110  31.7124090   2.3363370  20.9773900  28.1729390   1.9139120
  21.4336680  28.9834640   2.1399310  20.6262110  27.8552530   2.7457610
  23.2806510  33.6835730   9.1431420  23.9248730  33.8895110   9.8204840
  23.6435950  32.9224130   8.6902270  16.8785680  18.5167040   2.3861640
  16.7500310  18.5084940   3.3346560  16.0547700  18.8550130   2.0352650
  24.5538590  31.6868080   7.8608870  25.1960820  30.9861240   7.9741040
  25.0787940  32.4666520   7.6805760  26.3276210  32.4862980  11.0644930
  26.6632450  33.0729670  11.7422850  25.4076550  32.3555690  11.2942720
  13.8779610  20.2758160  11.8468340  13.1638130  20.4755080  12.4520950
  14.2974650  19.4997730  12.2183140  14.1652200  34.2638420  12.8334870
  14.2743320  33.3233160  12.6930260  13.5132760  34.5293170  12.1848600
  22.1564790  32.5354310  14.2332990  21.8361660  31.8163550  14.7778680
  21.4823150  33.2109380  14.3069050  25.3718390  22.7680470   9.5969790
  25.7399210  21.9475680   9.9249360  24.5116590  22.8282360  10.0125440
  20.7064450  24.0023360   1.8215230  19.9980600  24.4709700   2.2628840
  20.9908930  23.3445370   2.4560420  22.3320380  25.4220060   9.8207760
  22.8305630  25.8965880  10.4859610  22.4743330  24.4983580  10.0277790
  24.7379880  20.7274020   3.2611020  24.6147660  20.7460150   2.3120530
  25.6864440  20.7752960   3.3809420  21.8256670  35.9629320   2.5339000
  22.0798170  35.9250710   1.6118370  20.8769150  35.8362650   2.5267250
  29.5387240  21.6388020  10.6636150  29.0360840  22.3793420  11.0029960
  30.3543900  22.0272020  10.3472940  27.8309250  26.8821200   4.1097510
  26.8899390  26.8971430   4.2845200  28.1453320  26.0957160   4.5557810
  29.8334830  34.0530050   5.7851770  29.9582250  34.8761220   6.2575580
  30.7000390  33.8420780   5.4375920  17.3052360  36.1461260   5.4568900
  18.0414840  35.5976720   5.7277470  17.6893280  37.0117270   5.3174890
  16.3110640  35.3307330  14.6454480  17.1123370  35.6519380  15.0589880
  15.7962460  34.9702910  15.3674390  25.1475270  31.4387200  14.5929890
  24.5413430  31.4618800  13.8525640  24.8429380  30.7070240  15.1297140
  26.5775640  35.1667490  13.2039300  27.5297390  35.0825510  13.1539540
  26.4303860  35.8309200  13.8773090  14.0308450  27.8180790  13.5890530
  14.5347470  27.2388070  14.1606760  13.2915870  28.1021020  14.1266900
  21.0846390  29.2251780  13.1226050  20.3192060  29.7936780  13.0380720
  21.2662350  28.9327990  12.2294280  28.2269740  30.9557110  13.6801070
  28.9679210  31.2932870  13.1768530  27.4642420  31.1249170  13.1270840
  16.0631530  25.9610380  14.4840600  16.1036870  25.6624250  15.3925830
  16.9177030  26.3617990  14.3248120  18.0037340  24.5402480  12.4515090
  17.4733800  24.0493430  11.8238430  18.6725410  24.9686680  11.9173020
  26.9015400  29.0071940  12.2156280  27.3156420  29.1617020  13.0646700
  25.9666400  29.1327160  12.3782060  27.3737570  26.3468100  14.2195430
  27.9558340  25.5920420  14.1315910  27.5499340  26.8775540  13.4426910
  18.4909640  21.5064850  12.5312380  18.3966510  20.8885600  11.8063250
  17.9107030  22.2331140  12.3042290  21.2571080  20.0638090   9.5639770
  20.8088380  20.0862350   8.7185320  20.6236280  19.6657110  10.1610070
  21.6630630  28.9592420  10.1852210  22.0818740  29.8025150  10.0128450
  20.7439260  29.0964460   9.9558990  23.9994530  26.6908600  11.5690050
  24.1190740  26.0949740  12.3084890  24.8588530  26.7278290  11.1491350
  26.3382430  27.2445790  10.1452560  25.8117650  27.7688410   9.5417700
  26.6813770  27.8773180  10.7762290  19.5138050  35.2645430  11.3009940
  18.9759140  35.9891490  10.9818640  19.7672010  34.7875770  10.5107280
  20.7663300  23.2329950  12.8265870  21.3562990  22.9245800  13.5143690
  19.9483540  22.7609700  12.9825770  25.5856730  22.8495760  13.0598890
  24.8972250  22.1877300  12.9948880  26.3062750  22.4034030  13.5047350
  22.3700260  36.4996640  11.5596590  22.2958960  37.4031780  11.8668960
  21.4679100  36.1808540  11.5318660  13.7727550  33.8271230   4.8630210
  14.1030560  32.9592290   4.6308850  14.2018550  34.0329750   5.6935170
  18.3689470  32.1580240   2.5232180  18.0685010  32.0345210   3.4236090
  18.2626960  31.2988830   2.1147910  14.2617760  34.6941820   7.6011840
  13.8248750  34.8742620   8.4335990  14.8295440  35.4516440   7.4593560
  29.8979940  34.1958820  11.8889150  29.2981930  34.2551380  11.1453070
  30.0273840  33.2563800  12.0186000  14.0942190  27.2062050   3.9600720
  13.4391030  26.9373690   3.3160420  14.9320140  27.0966530   3.5102700
  31.5997820  29.5374220   4.5734990  31.9706650  28.7541540   4.1670960
  32.2399750  30.2263320   4.3952290  28.5831580  30.9210800   9.9865310
  27.7691420  31.3507960  10.2491100  28.9905780  31.5329210   9.3734360
  30.5422360  26.9127480   1.8795010  30.1665960  26.1455410   1.4476300
  29.8125480  27.2950180   2.3669940  15.1318120  27.5914620   8.5004060
  15.4991160  27.5042020   9.3800080  14.5628940  26.8281170   8.4010920
  29.9321980  26.0599000  11.5134530  29.7008070  25.8311750  10.6132480
  30.1926530  26.9798550  11.4679420  14.6834120  24.5023710  12.4062480
  13.7890170  24.4690470  12.7456190  15.2231670  24.7010500  13.1713730
  28.3710050  21.2855430  14.2914230  29.2480230  21.2938830  14.6748230
  28.3830890  20.5486270  13.6806580  29.8173320  25.1384970   5.1802250
  30.3410800  24.6447620   4.5492420  30.4032740  25.2735330   5.9249820
  29.9963040  25.2224840   8.7021800  29.0465750  25.1888380   8.8166790
  30.1776050  26.1324950   8.4671570  15.1873830  18.7772040   6.7545700
  15.8350020  18.2269420   6.3140860  15.6075670  19.0315190   7.5761510
  30.7360450  23.0319270   3.6532340  30.6259730  22.8775310   4.5914610
  31.4968040  22.5040210   3.4107750  29.0826170  18.9713400  10.1115340
  29.7198390  19.5847540  10.4774530  29.2301060  19.0074060   9.1664570
  28.6407630  35.6729400   3.5133580  29.2366700  35.3513970   2.8368000
  28.8985780  35.2001220   4.3046850  14.9405830  18.9327710   9.4971020
  14.5920650  19.3891530  10.2629200  14.6093530  18.0384840   9.5793450
  16.5470200  32.1047310  13.6624210  16.5039830  31.7340220  14.5438670
  16.6781210  33.0424880  13.8026030  20.2476230  33.6606900   9.2633930
  20.0067590  33.9281460   8.3764450  21.1878870  33.8312630   9.3184790
  22.4530650  20.1239590  13.0190440  22.3919540  20.7161420  13.7685850
  23.3931030  20.0165550  12.8740700  25.0905210  19.7809650  12.6582730
  25.7045620  20.0988940  11.9963810  25.6354770  19.2958240  13.2778590
  31.5080390  35.6801280  10.0644570  31.0138670  36.0770150   9.3471700
  30.8993680  35.0550490  10.4581850  15.6126470  18.4603910  12.7721790
  16.1609460  18.2791960  12.0087900  15.6781780  17.6698020  13.3078100
  16.3858230  35.0509560  10.7821990  15.7918550  34.9194260  11.5212030
  16.3782070  34.2147700  10.3164090  25.8313250  18.3441790   8.9852020
  24.9573090  18.6776900   8.7824950  25.7224000  17.8714970   9.8103890
  26.7385230  20.5512660  10.3693740  26.4098590  19.7364420   9.9895470
  27.6867530  20.5082470  10.2459430  29.1919840  36.3224700   7.3431310
  28.7322810  37.0740510   6.9689330  28.5632300  35.6031170   7.2846110
  16.0170460  32.4167940   9.7330030  15.2904520  31.7973230   9.6655980
  16.0779610  32.8108550   8.8628110  19.6215560  34.6312940   6.5179440
  20.1380580  34.0200300   5.9927700  20.2712940  35.1341720   7.0090450
  22.3611060  35.5221430   7.3448420  22.6488870  35.2675730   6.4681430
  22.8734280  34.9698790   7.9353990  23.5788070  19.2611630   7.9244930
  22.7959860  19.7357130   8.2041690  23.2851000  18.3566460   7.8158110
  28.1309140  19.9634730   5.9694020  28.5717230  19.9079830   5.1215620
  27.8616730  20.8792740   6.0404200  29.9947710  19.5949970   3.9802840
  29.9336110  18.6511190   3.8333860  30.7739740  19.7030060   4.5256300
  14.3000460  35.7342330   2.9426790  14.1322500  35.1013010   3.6408680
  13.4334970  35.9401730   2.5920980  21.4642290  21.6798380   3.4360960
  20.6516800  21.3055270   3.0956840  21.9683930  20.9243460   3.7382150
  25.9667270  18.3440830   4.6744030  26.5696640  18.9161040   5.1492550
  25.2260260  18.9080270   4.4517930  19.4891470  19.8298300   2.0406010
  18.8594210  19.1285610   2.2076140  18.9496610  20.5902430   1.8239170
  22.4283420  36.4437530  14.7116620  23.3550730  36.2081800  14.7552580
  22.4133850  37.2709530  14.2302650  19.6147030  19.1082280  14.4758500
  19.3331300  19.6115880  13.7119320  19.9966730  18.3104030  14.1100630
  26.2162490  18.5235860  15.0538970  26.1027940  18.8430470  15.9490490
  27.0332230  18.9248370  14.7576250  28.9960980  35.6707390  14.5357660
  29.7886300  35.1756620  14.3283620  29.2894130  36.3497530  15.1433270
  25.1220640   7.7684840  60.5147670  25.0414690   6.8539450  60.2439380
  24.7085060   8.2651910  59.8087380  23.2538680   9.5463860  62.3956940
  22.4780780   9.0664300  62.6855510  23.9051610   8.8669510  62.2213100
  17.2704510   9.8583670  63.2732700  16.4389390   9.6032380  63.6729210
  17.8785490   9.9294440  64.0090620  27.2746110  13.9524050  61.1756070
  26.8127640  13.1811290  61.5043240  28.0871660  13.9790120  61.6808520
  17.2505770  13.8923760  63.4690720  17.5533810  13.0021500  63.2900940
  17.9949360  14.4493980  63.2412970  15.6796460   4.8185560  57.0575090
  14.7913160   5.1601530  56.9554970  15.9637650   4.6185880  56.1655920
  13.6429470   7.4191210  62.9414790  14.2145580   6.6513410  62.9418430
  13.6431010   7.7179970  62.0321400  23.5009420  16.2382060  60.7960060
  22.8820860  16.6939560  60.2254500  24.3561200  16.3933520  60.3949760
  22.6947670  12.2221050  62.4027100  22.6255950  11.2810990  62.2416230
  23.4567530  12.3122460  62.9749670  14.8854340   2.8275570  64.7283720
  14.7057180   1.9301320  65.0086480  14.4834420   3.3747440  65.4030670
  23.7252840   5.0291430  62.6296030  24.1017660   4.1563310  62.5169700
  23.6272350   5.3650130  61.7386470  17.8557850   3.4017060  58.0913470
  17.9624600   4.3020790  58.3982230  16.9450210   3.3535030  57.8008120
  27.5076960   2.5241870  59.5624370  28.3286580   2.0338440  59.6049850
  27.5411040   3.1139530  60.3156210  15.5041010   5.3236070  63.3366060
  16.1851120   5.5874440  63.9553460  15.1889060   4.4836940  63.6704070
  19.6965580   6.3703430  62.4238650  20.2043800   6.8684400  63.0643670
  20.2278820   5.5938630  62.2478010  24.3672770  11.1221300  58.1891970
  23.7490040  11.5870750  57.6254690  24.8796020  11.8148780  58.6061480
  19.2304530  10.6497170  64.8675570  18.8973910  11.2766090  65.5096640
  19.4071210  11.1759050  64.0877240  27.7438440   4.4642250  62.3351910
  27.0394010   4.7527140  62.9155020  28.1050600   5.2742360  61.9751470
  17.6617010   2.7211950  64.6972520  18.0033820   3.5654000  64.4026390
  16.7232820   2.8695690  64.8137860  13.7355970  11.8077830  55.5631600
  13.3583950  12.2964930  54.8316500  13.9929040  12.4803110  56.1938130
  29.3601220  14.0817380  64.5979390  28.6764740  14.7516490  64.5896060
  29.8995510  14.2798030  63.8324250  30.8125360   3.9097040  62.7261120
  29.8650270   3.9436020  62.8576550  31.1375350   4.7235990  63.1110480
  26.8959960  15.9261510  63.3124570  26.9087120  15.5223800  62.4446830
  26.3435180  16.7008800  63.2086000  28.1905380  12.6477730  58.4014740
  28.0801710  11.7052060  58.5264160  28.1873630  13.0093370  59.2877500
  26.2945400  10.8291350  64.6407180  26.7114190  10.6151460  63.8060640
  27.0185220  11.0864140  65.2115800  23.7325660   8.2743050  57.7577230
  22.8054940   8.2080430  57.9865700  23.8850480   9.2123180  57.6432470
  23.7194740   4.5460050  54.7544390  22.7798410   4.7074010  54.8396850
  24.0378000   5.2645730  54.2080380  30.2407500   9.2278570  64.7323420
  29.4126130   9.2971660  64.2573550  30.8357980   9.8132880  64.2639250
  27.7622950   9.8363350  58.2612480  27.1435370   9.4982900  57.6138780
  27.7447400   9.1923110  58.9691670  27.2049510   6.0147890  65.6778290
  26.7920690   6.8401600  65.9318280  26.4725460   5.4292930  65.4854650
  19.3382300   8.8007790  60.5396960  18.9339300   8.0885040  60.0442860
  19.4245420   8.4561030  61.4285000  19.8064000  12.4875350  62.7036170
  19.5092290  11.8820820  62.0243950  20.7563820  12.5252660  62.5925530
  18.0510920   5.5751000  64.3196000  18.6025510   5.6846340  63.5449250
  18.5654430   5.9488600  65.0351230  27.8949610  16.0607220  66.3659270
  27.4180170  16.8679410  66.1731880  27.2111400  15.4085550  66.5185480
  25.9387650   9.0750160  55.2685230  26.3780930   8.2372590  55.1223050
  26.6516070   9.7079560  55.3549370  24.0483030  14.0146230  59.2366470
  24.4878940  14.7570560  58.8221860  23.9869920  14.2572800  60.1605430
  16.0386930   7.6952770  58.0403610  15.9184530   8.4214860  57.4284880
  15.7287820   6.9255680  57.5631520  13.6772300  10.8667910  63.8472250
  13.7552720  11.0016680  62.9027970  14.2913980  10.1583800  64.0400370
  14.9219930  12.5668100  60.2578430  14.5148010  12.7082690  59.4032030
  15.8132940  12.2828260  60.0549640  26.7153210  17.0015350  56.5929480
  26.5554350  16.7118290  57.4911310  26.5499920  16.2255480  56.0574710
  19.1941590  16.7813880  58.3701100  19.0184070  15.8649420  58.1568900
  18.3397330  17.1401170  58.6098900  26.4179340  14.5102910  55.1527480
  25.7244500  14.5080200  54.4929760  27.1602200  14.0862230  54.7221650
  25.9829270  16.1365620  59.2275970  26.4386220  15.3555000  59.5414590
  26.3221790  16.8472440  59.7717150  18.2964810   6.1621410  59.1508530
  18.0705730   5.9458580  60.0555150  17.5157340   6.5949870  58.8054500
  25.5262570   6.1684780  57.7499180  24.9271460   6.8920580  57.5662800
  26.0742180   6.1061560  56.9675630  24.1327440   4.8048320  59.7802460
  24.5257010   5.1220520  58.9671150  24.4944290   3.9260200  59.8946980
  13.3561840   5.3369240  53.2135380  13.2736510   6.2800000  53.3550370
  13.0044900   5.1944150  52.3347730  24.7182580   7.3954070  63.8753240
  23.9863700   7.9040880  64.2243340  24.3206920   6.5784050  63.5742020
  21.1559970   4.0708270  62.2805730  21.1596030   3.6298220  61.4310270
  22.0511090   4.3925600  62.3877550  17.0062350   3.9534760  61.2399940
  16.6662400   4.4309990  61.9966990  16.2439670   3.4999880  60.8801040
  21.2180120   5.0720350  55.2712490  21.3392940   5.0306830  56.2198310
  20.8328630   5.9344500  55.1159220  25.1808490   2.8487750  63.2876180
  25.1981230   3.2996400  64.1318030  24.9324070   1.9493390  63.5009620
  20.2301620   7.3821490  54.6695790  19.6618520   6.9339740  54.0431700
  20.9390620   7.7414270  54.1360940  21.4567940   8.1310050  64.0271140
  21.8238070   7.6568620  64.7732480  21.2673000   9.0051620  64.3679480
  14.3208430   2.8753740  60.1564610  14.0355350   2.5109410  60.9943230
  14.2587290   2.1434200  59.5427750  17.7749100  11.3779680  56.9422200
  17.0011360  10.8377300  56.7820920  18.5043730  10.8586290  56.6039960
  28.5337080  10.3745040  62.7348590  29.2536200  10.8700330  62.3444700
  28.3318900   9.6962930  62.0902460  23.9947020   1.7683000  56.8777980
  23.1811630   1.2696170  56.8023290  23.8008970   2.6081250  56.4614330
  26.7095410   6.1402650  55.1740140  27.5975030   6.4519880  54.9991480
  26.6800500   5.2674900  54.7820720  17.8186500  11.0460060  60.5801010
  18.3365170  10.2428320  60.5257900  17.3670520  10.9839200  61.4217840
  22.7056000  12.3126340  55.8528310  23.0471700  13.0568570  55.3571630
  21.8768710  12.6257460  56.2153140  28.9809680   7.4514490  54.6420000
  28.8973400   7.8828710  53.7916440  29.7003870   7.9112840  55.0746820
  30.0096930  14.3056750  57.3702130  29.3673090  13.6512370  57.6445850
  29.6227590  14.7111840  56.5942800  25.5883410  11.6342180  61.2173820
  25.9407230  11.0370310  60.5575190  24.7045740  11.3086410  61.3882070
  21.6746690  12.3939870  58.6244230  22.3617820  12.9409080  59.0051820
  20.8879110  12.9380600  58.6593840  13.8139090   8.0112690  54.1161310
  14.6833940   8.2937490  54.3997230  13.3229410   8.8248560  54.0010120
  20.9773900   9.3985900  58.2369590  21.4336680  10.2091150  58.4629780
  20.6262110   9.0809040  59.0688080  23.2806510  14.9092240  65.4661890
  23.9248730  15.1151620  66.1435310  23.6435950  14.1480640  65.0132740
  24.5538590  12.9124590  64.1839340  25.1960820  12.2117750  64.2971510
  25.0787940  13.6923030  64.0036230  14.1810340  17.2240070  54.6822940
  14.5407980  17.8229410  54.0280210  14.0402680  17.7699960  55.4557970
  27.9810560  11.1145150  55.5692640  27.6932260  11.5757840  56.3570520
  28.7762730  10.6542920  55.8376860  20.1978960  14.6071270  55.4996610
  20.1889060  15.3400960  54.8841120  19.2777320  14.3602850  55.5923570
  15.7985600   9.8286160  56.2443370  15.1913550  10.5685060  56.2538670
  16.2734950   9.9185520  55.4181570  25.3718390   3.9936980  65.9200260
  25.7399210   3.1732190  66.2479830  24.5116590   4.0538870  66.3355910
  28.7380420   2.9493920  56.7287820  28.1093580   3.0539590  56.0146050
  28.2432340   3.1690700  57.5181700  23.1838560  14.6699510  54.1621800
  23.2850540  14.4663500  53.2323780  22.2840300  14.4157790  54.3669580
  20.7064450   5.2279870  58.1445700  19.9980600   5.6966210  58.5859310
  20.9908930   4.5701880  58.7790890  24.7379880   1.9530530  59.5841490
  24.6147660   1.9716660  58.6351000  25.6864440   2.0009470  59.7039890
  21.8256670  17.1885830  58.8569470  22.0798170  17.1507220  57.9348840
  20.8769150  17.0619160  58.8497720  18.9099470   3.5364950  55.5196410
  19.7590000   3.9735100  55.4536600  18.5430740   3.8485210  56.3468470
  27.8309250   8.1077710  60.4327980  26.8899390   8.1227940  60.6075670
  28.1453320   7.3213670  60.8788280  17.8090890   9.7897310  53.9931940
  18.5754160   9.6778670  54.5557370  17.8865580   9.0935280  53.3408710
  16.5037650   7.2222380  54.6764830  16.5841240   6.2749890  54.7882230
  17.3957400   7.5529260  54.7825490  29.8334830  15.2786560  62.1082240
  29.9582250  16.1017730  62.5806050  30.7000390  15.0677290  61.7606390
  17.3052360  17.3717770  61.7799370  18.0414840  16.8233230  62.0507940
  17.6893280  18.2373780  61.6405360  14.1897840  13.4391340  57.6540880
  13.2637620  13.6812480  57.6446290  14.6554270  14.2665600  57.5325630
  20.4154670  16.5448080  53.6024940  21.2083280  16.8336910  53.1506730
  19.8959020  16.1140250  52.9237420  20.9332070  11.7651490  53.4667290
  20.8282710  11.1503840  54.1928670  20.7656290  11.2417380  52.6830300
  24.1734800  10.8271520  54.0709280  23.6244900  11.2740820  54.7152020
  24.7954060  10.3220770  54.5946950  19.8409920   9.7862440  55.9674580
  20.2626340   9.6202310  56.8105970  19.9660760   8.9762670  55.4729720
  22.3537560   8.8100050  53.2151680  22.8743220   8.0949070  52.8492830
  23.0005960   9.4485920  53.5152190  21.6630630  10.1848930  66.5082680
  22.0818740  11.0281660  66.3358920  20.7439260  10.3220970  66.2789460
  18.7368820   5.8595670  52.9132740  18.5357880   4.9963030  53.2746080
  18.5660870   5.7729030  51.9754340  17.5351620   2.9596290  52.9010620
  17.8377520   2.9663720  51.9929770  18.2746210   2.6094150  53.3978280
  22.9185590  16.8911660  55.5053420  23.8136380  17.2296630  55.5272180
  22.9503220  16.1691070  54.8777700  16.5581750  12.2638710  53.7340420
  16.9956620  12.8068380  54.3898000  17.0429480  11.4385660  53.7436760
  13.7727550  15.0527740  61.1860680  14.1030560  14.1848800  60.9539320
  14.2018550  15.2586260  62.0165640  18.3689470  13.3836750  58.8462650
  18.0685010  13.2601720  59.7466560  18.2626960  12.5245340  58.4378380
  14.2617760  15.9198330  63.9242310  13.8248750  16.0999130  64.7566460
  14.8295440  16.6772950  63.7824030  31.1381390  13.1633150  53.5489330
  30.3074350  13.2309800  54.0196560  31.3153220  14.0537270  53.2456190
  30.5937850   9.9080630  56.0523530  31.3556760  10.4777280  56.1583220
  30.6092220   9.3407830  56.8231840  14.0942190   8.4318560  60.2831190
  13.4391030   8.1630200  59.6390890  14.9320140   8.3223040  59.8333170
  31.5997820  10.7630730  60.8965460  31.9706650   9.9798050  60.4901430
  32.2399750  11.4519830  60.7182760  30.6457020  10.2015000  53.2096050
  30.9205860  11.1093880  53.0815270  30.4567760  10.1377530  54.1458040
  27.0432630   3.2259850  54.5049680  27.4617510   3.0390830  53.6646340
  26.7368690   2.3738900  54.8152610  30.5422360   8.1383990  58.2025480
  30.1665960   7.3711920  57.7706770  29.8125480   8.5206690  58.6900410
  15.1318120   8.8171130  64.8234530  15.4991160   8.7298530  65.7030550
  14.5628940   8.0537680  64.7241390  13.3080270   5.6417490  56.2256520
  12.4044350   5.9047690  56.0508180  13.7920890   5.9128660  55.4456480
  29.8173320   6.3641480  61.5032720  30.3410800   5.8704130  60.8722890
  30.4032740   6.4991840  62.2480290  29.9963040   6.4481350  65.0252270
  29.0465750   6.4144890  65.1397260  30.1776050   7.3581460  64.7902040
  15.8507480   4.6983030  54.1350900  16.5599180   4.2766250  53.6498180
  15.1347420   4.7658260  53.5034250  29.3073290   5.6214830  57.4425130
  29.8032410   5.3885700  58.2274010  29.1089360   4.7826670  57.0262770
  30.7360450   4.2575780  59.9762810  30.6259730   4.1031820  60.9145080
  31.4968040   3.7296720  59.7338220  31.6250720   2.0883700  53.2168950
  32.5500030   1.9564880  53.0087240  31.6026510   2.1676520  54.1705400
  31.6989210   2.8594360  55.8425660  30.9040710   2.7939480  56.3718570
  31.9032490   3.7945000  55.8311010  28.6407630  16.8985910  59.8364050
  29.2366700  16.5770480  59.1598470  28.8985780  16.4257730  60.6277320
  20.2476230  14.8863410  65.5864400  20.0067590  15.1537970  64.6994920
  21.1878870  15.0569140  65.6415260  29.1919840  17.5481210  63.6661780
  28.7322810  18.2997020  63.2919800  28.5632300  16.8287680  63.6076580
  16.0170460  13.6424450  66.0560500  15.2904520  13.0229740  65.9886450
  16.0779610  14.0365060  65.1858580  19.6215560  15.8569450  62.8409910
  20.1380580  15.2456810  62.3158170  20.2712940  16.3598230  63.3320920
  22.3611060  16.7477940  63.6678890  22.6488870  16.4932240  62.7911900
  22.8734280  16.1955300  64.2584460  14.3000460  16.9598840  59.2657260
  14.1322500  16.3269520  59.9639150  13.4334970  17.1658240  58.9151450
  21.4642290   2.9054890  59.7591430  20.6516800   2.5311780  59.4187310
  21.9683930   2.1499970  60.0612620  15.9063160  15.6532070  56.7107400
  15.3810780  16.0340100  56.0069360  15.8307740  16.2782840  57.4317110
  30.6628480  17.2119610  58.0321340  30.8380670  16.5257350  57.3882260
  29.9650050  17.7366660  57.6398010  18.5056130  17.6014450  55.5856650
  19.2374950  17.3173730  55.0380540  18.7649800  17.3627730  56.4756030
  17.6670920  13.7179180  55.5902980  17.0379800  14.1864280  56.1388810
  17.7818750  12.8728400  56.0249170  25.1220640   7.7684840  41.7404180
  25.0414690   6.8539450  41.4695890  24.7085060   8.2651910  41.0343890
  23.2538680   9.5463860  43.6213450  22.4780780   9.0664300  43.9112020
  23.9051610   8.8669510  43.4469610  17.2704510   9.8583670  44.4989210
  16.4389390   9.6032380  44.8985720  17.8785490   9.9294440  45.2347130
  27.2746110  13.9524050  42.4012580  26.8127640  13.1811290  42.7299750
  28.0871660  13.9790120  42.9065030  17.2505770  13.8923760  44.6947230
  17.5533810  13.0021500  44.5157450  17.9949360  14.4493980  44.4669480
  15.6796460   4.8185560  38.2831600  14.7913160   5.1601530  38.1811480
  15.9637650   4.6185880  37.3912430  13.6429470   7.4191210  44.1671300
  14.2145580   6.6513410  44.1674940  13.6431010   7.7179970  43.2577910
  22.6947670  12.2221050  43.6283610  22.6255950  11.2810990  43.4672740
  23.4567530  12.3122460  44.2006180  14.8854340   2.8275570  45.9540230
  14.7057180   1.9301320  46.2342990  14.4834420   3.3747440  46.6287180
  23.7252840   5.0291430  43.8552540  24.1017660   4.1563310  43.7426210
  23.6272350   5.3650130  42.9642980  17.8557850   3.4017060  39.3169980
  17.9624600   4.3020790  39.6238740  16.9450210   3.3535030  39.0264630
  27.5076960   2.5241870  40.7880880  28.3286580   2.0338440  40.8306360
  27.5411040   3.1139530  41.5412720  15.5041010   5.3236070  44.5622570
  16.1851120   5.5874440  45.1809970  15.1889060   4.4836940  44.8960580
  19.6965580   6.3703430  43.6495160  20.2043800   6.8684400  44.2900180
  20.2278820   5.5938630  43.4734520  31.7976510   4.5408620  47.3524510
  31.0928680   4.9290330  46.8339620  32.0634430   5.2358910  47.9545440
  24.3672770  11.1221300  39.4148480  23.7490040  11.5870750  38.8511200
  24.8796020  11.8148780  39.8317990  19.2304530  10.6497170  46.0932080
  18.8973910  11.2766090  46.7353150  19.4071210  11.1759050  45.3133750
  27.7438440   4.4642250  43.5608420  27.0394010   4.7527140  44.1411530
  28.1050600   5.2742360  43.2007980  17.6617010   2.7211950  45.9229030
  18.0033820   3.5654000  45.6282900  16.7232820   2.8695690  46.0394370
  18.4423630  12.6177970  47.9081260  19.0597630  13.2929050  47.6265710
  17.5816750  13.0265950  47.8168760  13.7355970  11.8077830  36.7888110
  13.3583950  12.2964930  36.0573010  13.9929040  12.4803110  37.4194640
  29.3601220  14.0817380  45.8235900  28.6764740  14.7516490  45.8152570
  29.8995510  14.2798030  45.0580760  30.8125360   3.9097040  43.9517630
  29.8650270   3.9436020  44.0833060  31.1375350   4.7235990  44.3366990
  28.1905380  12.6477730  39.6271250  28.0801710  11.7052060  39.7520670
  28.1873630  13.0093370  40.5134010  26.2945400  10.8291350  45.8663690
  26.7114190  10.6151460  45.0317150  27.0185220  11.0864140  46.4372310
  23.7325660   8.2743050  38.9833740  22.8054940   8.2080430  39.2122210
  23.8850480   9.2123180  38.8688980  23.7194740   4.5460050  35.9800900
  22.7798410   4.7074010  36.0653360  24.0378000   5.2645730  35.4336890
  30.2407500   9.2278570  45.9579930  29.4126130   9.2971660  45.4830060
  30.8357980   9.8132880  45.4895760  27.7622950   9.8363350  39.4868990
  27.1435370   9.4982900  38.8395290  27.7447400   9.1923110  40.1948180
  27.2049510   6.0147890  46.9034800  26.7920690   6.8401600  47.1574790
  26.4725460   5.4292930  46.7111160  19.3382300   8.8007790  41.7653470
  18.9339300   8.0885040  41.2699370  19.4245420   8.4561030  42.6541510
  19.8064000  12.4875350  43.9292680  19.5092290  11.8820820  43.2500460
  20.7563820  12.5252660  43.8182040  18.0510920   5.5751000  45.5452510
  18.6025510   5.6846340  44.7705760  18.5654430   5.9488600  46.2607740
  18.8982430  12.2257040  50.5800480  18.0010960  12.4497010  50.8273880
  18.9235300  12.3491980  49.6311880  25.9387650   9.0750160  36.4941740
  26.3780930   8.2372590  36.3479560  26.6516070   9.7079560  36.5805880
  17.7253650   9.0970360  49.1557850  17.5861420   9.9693160  49.5245250
  16.8435010   8.7543170  49.0105790  19.5234000  15.0392060  51.3643000
  19.4949430  15.4435010  50.4971430  19.3598970  14.1102420  51.2014600
  16.0386930   7.6952770  39.2660120  15.9184530   8.4214860  38.6541390
  15.7287820   6.9255680  38.7888030  13.6772300  10.8667910  45.0728760
  13.7552720  11.0016680  44.1284480  14.2913980  10.1583800  45.2656880
  14.9219930  12.5668100  41.4834940  14.5148010  12.7082690  40.6288540
  15.8132940  12.2828260  41.2806150  30.8782070  13.0132010  49.8207180
  31.0045130  12.7743890  48.9024360  30.9203450  12.1816550  50.2929260
  26.7153210  17.0015350  37.8185990  26.5554350  16.7118290  38.7167820
  26.5499920  16.2255480  37.2831220  26.4179340  14.5102910  36.3783990
  25.7244500  14.5080200  35.7186270  27.1602200  14.0862230  35.9478160
  25.9829270  16.1365620  40.4532480  26.4386220  15.3555000  40.7671100
  26.3221790  16.8472440  40.9973660  30.7306080   5.0664470  50.7856920
  30.1150350   5.5744140  50.2572380  30.4102500   4.1662800  50.7282860
  13.7331820  11.9082080  47.6123220  13.8962860  11.4387440  46.7942590
  14.1984270  11.4005640  48.2772060  22.7920400   3.9056360  48.2519110
  22.3299770   4.1139380  49.0639050  22.3898510   3.0915710  47.9489780
  27.7924910   5.1265310  49.3815770  26.9418500   4.8271060  49.7024840
  27.6326700   5.3707320  48.4699590  24.8874620   6.6267060  51.4814560
  25.2128030   5.7930810  51.1416790  25.6754950   7.1495580  51.6292890
  18.2964810   6.1621410  40.3765040  18.0705730   5.9458580  41.2811660
  17.5157340   6.5949870  40.0311010  25.5262570   6.1684780  38.9755690
  24.9271460   6.8920580  38.7919310  26.0742180   6.1061560  38.1932140
  20.7364020   7.0606990  51.0425310  20.6407620   6.1201720  50.8925710
  21.5796000   7.2822060  50.6473380  24.1327440   4.8048320  41.0058970
  24.5257010   5.1220520  40.1927660  24.4944290   3.9260200  41.1203490
  15.8674560   3.4720660  49.1959090  15.4737950   4.3195870  49.4031870
  15.1792960   2.8347030  49.3867730  22.4419610   3.5555630  52.2655830
  21.7517930   3.3627830  52.9001920  23.1851910   3.8390270  52.7980130
  13.3561840   5.3369240  34.4391890  13.2736510   6.2800000  34.5806880
  13.0044900   5.1944150  33.5604240  24.7182580   7.3954070  45.1009750
  23.9863700   7.9040880  45.4499850  24.3206920   6.5784050  44.7998530
  21.1559970   4.0708270  43.5062240  21.1596030   3.6298220  42.6566780
  22.0511090   4.3925600  43.6134060  17.0062350   3.9534760  42.4656450
  16.6662400   4.4309990  43.2223500  16.2439670   3.4999880  42.1057550
  21.2180120   5.0720350  36.4969000  21.3392940   5.0306830  37.4454820
  20.8328630   5.9344500  36.3415730  25.1808490   2.8487750  44.5132690
  25.1981230   3.2996400  45.3574540  24.9324070   1.9493390  44.7266130
  20.2301620   7.3821490  35.8952300  19.6618520   6.9339740  35.2688210
  20.9390620   7.7414270  35.3617450  15.3070800  11.2833510  49.7719030
  14.9225590  10.6427180  50.3701990  15.6182990  11.9869630  50.3413760
  21.4567940   8.1310050  45.2527650  21.8238070   7.6568620  45.9988990
  21.2673000   9.0051620  45.5935990  14.3208430   2.8753740  41.3821120
  14.0355350   2.5109410  42.2199740  14.2587290   2.1434200  40.7684260
  19.2467310   7.1718690  47.5711860  18.9424380   8.0510670  47.7962220
  20.2013770   7.2318480  47.6069300  17.7749100  11.3779680  38.1678710
  17.0011360  10.8377300  38.0077430  18.5043730  10.8586290  37.8296470
  28.5337080  10.3745040  43.9605100  29.2536200  10.8700330  43.5701210
  28.3318900   9.6962930  43.3158970  23.9947020   1.7683000  38.1034490
  23.1811630   1.2696170  38.0279800  23.8008970   2.6081250  37.6870840
  23.9155880  10.4454100  49.8474100  23.8493190   9.5249770  49.5931690
  23.2861020  10.5429540  50.5618740  26.7095410   6.1402650  36.3996650
  27.5975030   6.4519880  36.2247990  26.6800500   5.2674900  36.0077230
  17.8186500  11.0460060  41.8057520  18.3365170  10.2428320  41.7514410
  17.3670520  10.9839200  42.6474350  22.7056000  12.3126340  37.0784820
  23.0471700  13.0568570  36.5828140  21.8768710  12.6257460  37.4409650
  15.3031040   8.0121430  48.7183220  14.9445980   8.6775280  49.3056560
  15.0085600   7.1804980  49.0895840  18.5044160   8.4705670  51.6022770
  18.2044300   8.6162850  50.7050590  19.2755400   7.9110960  51.5096160
  28.9809680   7.4514490  35.8676510  28.8973400   7.8828710  35.0172950
  29.7003870   7.9112840  36.3003330  30.0583820   9.9082010  48.9446480
  29.3332010  10.5010790  48.7475870  30.5859280   9.9005550  48.1459850
  30.0096930  14.3056750  38.5958640  29.3673090  13.6512370  38.8702360
  29.6227590  14.7111840  37.8199310  25.5883410  11.6342180  42.4430330
  25.9407230  11.0370310  41.7831700  24.7045740  11.3086410  42.6138580
  21.6746690  12.3939870  39.8500740  22.3617820  12.9409080  40.2308330
  20.8879110  12.9380600  39.8850350  13.8139090   8.0112690  35.3417820
  14.6833940   8.2937490  35.6253740  13.3229410   8.8248560  35.2266630
  20.9773900   9.3985900  39.4626100  21.4336680  10.2091150  39.6886290
  20.6262110   9.0809040  40.2944590  28.3994310  13.1973210  35.1334990
  28.1731890  12.4803650  35.7259630  28.0090510  12.9485650  34.2956740
  14.1810340  17.2240070  35.9079450  14.5407980  17.8229410  35.2536720
  14.0402680  17.7699960  36.6814480  27.9810560  11.1145150  36.7949150
  27.6932260  11.5757840  37.5827030  28.7762730  10.6542920  37.0633370
  14.1652200  15.4894930  50.3821850  14.2743320  14.5489670  50.2417240
  13.5132760  15.7549680  49.7335580  22.1564790  13.7610820  51.7819970
  21.8361660  13.0420060  52.3265660  21.4823150  14.4365890  51.8556030
  20.1978960  14.6071270  36.7253120  20.1889060  15.3400960  36.1097630
  19.2777320  14.3602850  36.8180080  15.7985600   9.8286160  37.4699880
  15.1913550  10.5685060  37.4795180  16.2734950   9.9185520  36.6438080
  25.3718390   3.9936980  47.1456770  25.7399210   3.1732190  47.4736340
  24.5116590   4.0538870  47.5612420  28.7380420   2.9493920  37.9544330
  28.1093580   3.0539590  37.2402560  28.2432340   3.1690700  38.7438210
  23.1838560  14.6699510  35.3878310  23.2850540  14.4663500  34.4580290
  22.2840300  14.4157790  35.5926090  20.7064450   5.2279870  39.3702210
  19.9980600   5.6966210  39.8115820  20.9908930   4.5701880  40.0047400
  22.3320380   6.6476570  47.3694740  22.8305630   7.1222390  48.0346590
  22.4743330   5.7240090  47.5764770  24.7379880   1.9530530  40.8098000
  24.6147660   1.9716660  39.8607510  25.6864440   2.0009470  40.9296400
  18.9099470   3.5364950  36.7452920  19.7590000   3.9735100  36.6793110
  18.5430740   3.8485210  37.5724980  29.5387240   2.8644530  48.2123130
  29.0360840   3.6049930  48.5516940  30.3543900   3.2528530  47.8959920
  27.8309250   8.1077710  41.6584490  26.8899390   8.1227940  41.8332180
  28.1453320   7.3213670  42.1044790  17.8090890   9.7897310  35.2188450
  18.5754160   9.6778670  35.7813880  17.8865580   9.0935280  34.5665220
  16.5037650   7.2222380  35.9021340  16.5841240   6.2749890  36.0138740
  17.3957400   7.5529260  36.0082000  29.8334830  15.2786560  43.3338750
  29.9582250  16.1017730  43.8062560  30.7000390  15.0677290  42.9862900
  14.1897840  13.4391340  38.8797390  13.2637620  13.6812480  38.8702800
  14.6554270  14.2665600  38.7582140  16.3110640  16.5563840  52.1941460
  17.1123370  16.8775890  52.6076860  15.7962460  16.1959420  52.9161370
  20.4154670  16.5448080  34.8281450  21.2083280  16.8336910  34.3763240
  19.8959020  16.1140250  34.1493930  29.4684840  15.7718210  36.2518190
  29.1826350  15.3583350  35.4372370  29.2704390  16.7005920  36.1318710
  14.0308450   9.0437300  51.1377510  14.5347470   8.4644580  51.7093740
  13.2915870   9.3277530  51.6753880  20.9332070  11.7651490  34.6923800
  20.8282710  11.1503840  35.4185180  20.7656290  11.2417380  33.9086810
  21.0846390  10.4508290  50.6713030  20.3192060  11.0193290  50.5867700
  21.2662350  10.1584500  49.7781260  24.1734800  10.8271520  35.2965790
  23.6244900  11.2740820  35.9408530  24.7954060  10.3220770  35.8203460
  28.2269740  12.1813620  51.2288050  28.9679210  12.5189380  50.7255510
  27.4642420  12.3505680  50.6757820  16.0631530   7.1866890  52.0327580
  16.1036870   6.8880760  52.9412810  16.9177030   7.5874500  51.8735100
  19.8409920   9.7862440  37.1931090  20.2626340   9.6202310  38.0362480
  19.9660760   8.9762670  36.6986230  18.0037340   5.7658990  50.0002070
  17.4733800   5.2749940  49.3725410  18.6725410   6.1943190  49.4660000
  22.3537560   8.8100050  34.4408190  22.8743220   8.0949070  34.0749340
  23.0005960   9.4485920  34.7408700  26.9015400  10.2328450  49.7643260
  27.3156420  10.3873530  50.6133680  25.9666400  10.3583670  49.9269040
  27.3737570   7.5724610  51.7682410  27.9558340   6.8176930  51.6802890
  27.5499340   8.1032050  50.9913890  18.4909640   2.7321360  50.0799360
  18.3966510   2.1142110  49.3550230  17.9107030   3.4587650  49.8529270
  21.6630630  10.1848930  47.7339190  22.0818740  11.0281660  47.5615430
  20.7439260  10.3220970  47.5045970  23.9994530   7.9165110  49.1177030
  24.1190740   7.3206250  49.8571870  24.8588530   7.9534800  48.6978330
  26.3382430   8.4702300  47.6939540  25.8117650   8.9944920  47.0904680
  26.6813770   9.1029690  48.3249270  18.7368820   5.8595670  34.1389250
  18.5357880   4.9963030  34.5002590  18.5660870   5.7729030  33.2010850
  19.5138050  16.4901940  48.8496920  18.9759140  17.2148000  48.5305620
  19.7672010  16.0132280  48.0594260  20.7663300   4.4586460  50.3752850
  21.3562990   4.1502310  51.0630670  19.9483540   3.9866210  50.5312750
  25.5856730   4.0752270  50.6085870  24.8972250   3.4133810  50.5435860
  26.3062750   3.6290540  51.0534330  17.5351620   2.9596290  34.1267130
  17.8377520   2.9663720  33.2186280  18.2746210   2.6094150  34.6234790
  22.9185590  16.8911660  36.7309930  23.8136380  17.2296630  36.7528690
  22.9503220  16.1691070  36.1034210  16.5581750  12.2638710  34.9596930
  16.9956620  12.8068380  35.6154510  17.0429480  11.4385660  34.9693270
  13.7727550  15.0527740  42.4117190  14.1030560  14.1848800  42.1795830
  14.2018550  15.2586260  43.2422150  18.3689470  13.3836750  40.0719160
  18.0685010  13.2601720  40.9723070  18.2626960  12.5245340  39.6634890
  14.2617760  15.9198330  45.1498820  13.8248750  16.0999130  45.9822970
  14.8295440  16.6772950  45.0080540  31.1381390  13.1633150  34.7745840
  30.3074350  13.2309800  35.2453070  31.3153220  14.0537270  34.4712700
  30.5937850   9.9080630  37.2780040  31.3556760  10.4777280  37.3839730
  30.6092220   9.3407830  38.0488350  14.0942190   8.4318560  41.5087700
  13.4391030   8.1630200  40.8647400  14.9320140   8.3223040  41.0589680
  31.5997820  10.7630730  42.1221970  31.9706650   9.9798050  41.7157940
  32.2399750  11.4519830  41.9439270  28.5831580  12.1467310  47.5352290
  27.7691420  12.5764470  47.7978080  28.9905780  12.7585720  46.9221340
  30.6457020  10.2015000  34.4352560  30.9205860  11.1093880  34.3071780
  30.4567760  10.1377530  35.3714550  27.0432630   3.2259850  35.7306190
  27.4617510   3.0390830  34.8902850  26.7368690   2.3738900  36.0409120
  30.5422360   8.1383990  39.4281990  30.1665960   7.3711920  38.9963280
  29.8125480   8.5206690  39.9156920  15.1318120   8.8171130  46.0491040
  15.4991160   8.7298530  46.9287060  14.5628940   8.0537680  45.9497900
  29.9321980   7.2855510  49.0621510  29.7008070   7.0568260  48.1619460
  30.1926530   8.2055060  49.0166400  14.6834120   5.7280220  49.9549460
  13.7890170   5.6946980  50.2943170  15.2231670   5.9267010  50.7200710
  28.3710050   2.5111940  51.8401210  29.2480230   2.5195340  52.2235210
  28.3830890   1.7742780  51.2293560  13.3080270   5.6417490  37.4513030
  12.4044350   5.9047690  37.2764690  13.7920890   5.9128660  36.6712990
  29.8173320   6.3641480  42.7289230  30.3410800   5.8704130  42.0979400
  30.4032740   6.4991840  43.4736800  29.9963040   6.4481350  46.2508780
  29.0465750   6.4144890  46.3653770  30.1776050   7.3581460  46.0158550
  15.8507480   4.6983030  35.3607410  16.5599180   4.2766250  34.8754690
  15.1347420   4.7658260  34.7290760  29.3073290   5.6214830  38.6681640
  29.8032410   5.3885700  39.4530520  29.1089360   4.7826670  38.2519280
  30.7360450   4.2575780  41.2019320  30.6259730   4.1031820  42.1401590
  31.4968040   3.7296720  40.9594730  31.6250720   2.0883700  34.4425460
  32.5500030   1.9564880  34.2343750  31.6026510   2.1676520  35.3961910
  31.6989210   2.8594360  37.0682170  30.9040710   2.7939480  37.5975080
  31.9032490   3.7945000  37.0567520  28.6407630  16.8985910  41.0620560
  29.2366700  16.5770480  40.3854980  28.8985780  16.4257730  41.8533830
  16.5470200  13.3303820  51.2111190  16.5039830  12.9596730  52.0925650
  16.6781210  14.2681390  51.3513010  16.3858230  16.2766070  48.3308970
  15.7918550  16.1450770  49.0699010  16.3782070  15.4404210  47.8651070
  16.0170460  13.6424450  47.2817010  15.2904520  13.0229740  47.2142960
  16.0779610  14.0365060  46.4115090  14.3000460  16.9598840  40.4913770
  14.1322500  16.3269520  41.1895660  13.4334970  17.1658240  40.1407960
  21.4642290   2.9054890  40.9847940  20.6516800   2.5311780  40.6443820
  21.9683930   2.1499970  41.2869130  15.9063160  15.6532070  37.9363910
  15.3810780  16.0340100  37.2325870  15.8307740  16.2782840  38.6573620
  30.6628480  17.2119610  39.2577850  30.8380670  16.5257350  38.6138770
  29.9650050  17.7366660  38.8654520  18.5056130  17.6014450  36.8113160
  19.2374950  17.3173730  36.2637050  18.7649800  17.3627730  37.7012540
  17.6670920  13.7179180  36.8159490  17.0379800  14.1864280  37.3645320
  17.7818750  12.8728400  37.2505680  25.1220640   7.7684840  22.9660690
  25.0414690   6.8539450  22.6952400  24.7085060   8.2651910  22.2600400
  23.2538680   9.5463860  24.8469960  22.4780780   9.0664300  25.1368530
  23.9051610   8.8669510  24.6726120  17.2704510   9.8583670  25.7245720
  16.4389390   9.6032380  26.1242230  17.8785490   9.9294440  26.4603640
  27.2746110  13.9524050  23.6269090  26.8127640  13.1811290  23.9556260
  28.0871660  13.9790120  24.1321540  17.2505770  13.8923760  25.9203740
  17.5533810  13.0021500  25.7413960  17.9949360  14.4493980  25.6925990
  15.6796460   4.8185560  19.5088110  14.7913160   5.1601530  19.4067990
  15.9637650   4.6185880  18.6168940  13.6429470   7.4191210  25.3927810
  14.2145580   6.6513410  25.3931450  13.6431010   7.7179970  24.4834420
  23.5009420  16.2382060  23.2473080  22.8820860  16.6939560  22.6767520
  24.3561200  16.3933520  22.8462780  22.6947670  12.2221050  24.8540120
  22.6255950  11.2810990  24.6929250  23.4567530  12.3122460  25.4262690
  14.8854340   2.8275570  27.1796740  14.7057180   1.9301320  27.4599500
  14.4834420   3.3747440  27.8543690  23.7252840   5.0291430  25.0809050
  24.1017660   4.1563310  24.9682720  23.6272350   5.3650130  24.1899490
  17.8557850   3.4017060  20.5426490  17.9624600   4.3020790  20.8495250
  16.9450210   3.3535030  20.2521140  27.5076960   2.5241870  22.0137390
  28.3286580   2.0338440  22.0562870  27.5411040   3.1139530  22.7669230
  15.5041010   5.3236070  25.7879080  16.1851120   5.5874440  26.4066480
  15.1889060   4.4836940  26.1217090  19.6965580   6.3703430  24.8751670
  20.2043800   6.8684400  25.5156690  20.2278820   5.5938630  24.6991030
  31.7976510   4.5408620  28.5781020  31.0928680   4.9290330  28.0596130
  32.0634430   5.2358910  29.1801950  24.3672770  11.1221300  20.6404990
  23.7490040  11.5870750  20.0767710  24.8796020  11.8148780  21.0574500
  19.2304530  10.6497170  27.3188590  18.8973910  11.2766090  27.9609660
  19.4071210  11.1759050  26.5390260  27.7438440   4.4642250  24.7864930
  27.0394010   4.7527140  25.3668040  28.1050600   5.2742360  24.4264490
  17.6617010   2.7211950  27.1485540  18.0033820   3.5654000  26.8539410
  16.7232820   2.8695690  27.2650880  18.4423630  12.6177970  29.1337770
  19.0597630  13.2929050  28.8522220  17.5816750  13.0265950  29.0425270
  13.7355970  11.8077830  18.0144620  13.3583950  12.2964930  17.2829520
  13.9929040  12.4803110  18.6451150  29.3601220  14.0817380  27.0492410
  28.6764740  14.7516490  27.0409080  29.8995510  14.2798030  26.2837270
  30.8125360   3.9097040  25.1774140  29.8650270   3.9436020  25.3089570
  31.1375350   4.7235990  25.5623500  26.8959960  15.9261510  25.7637590
  26.9087120  15.5223800  24.8959850  26.3435180  16.7008800  25.6599020
  28.1905380  12.6477730  20.8527760  28.0801710  11.7052060  20.9777180
  28.1873630  13.0093370  21.7390520  26.2945400  10.8291350  27.0920200
  26.7114190  10.6151460  26.2573660  27.0185220  11.0864140  27.6628820
  23.7325660   8.2743050  20.2090250  22.8054940   8.2080430  20.4378720
  23.8850480   9.2123180  20.0945490  23.7194740   4.5460050  17.2057410
  22.7798410   4.7074010  17.2909870  24.0378000   5.2645730  16.6593400
  30.2407500   9.2278570  27.1836440  29.4126130   9.2971660  26.7086570
  30.8357980   9.8132880  26.7152270  27.7622950   9.8363350  20.7125500
  27.1435370   9.4982900  20.0651800  27.7447400   9.1923110  21.4204690
  27.2049510   6.0147890  28.1291310  26.7920690   6.8401600  28.3831300
  26.4725460   5.4292930  27.9367670  19.3382300   8.8007790  22.9909980
  18.9339300   8.0885040  22.4955880  19.4245420   8.4561030  23.8798020
  19.8064000  12.4875350  25.1549190  19.5092290  11.8820820  24.4756970
  20.7563820  12.5252660  25.0438550  18.0510920   5.5751000  26.7709020
  18.6025510   5.6846340  25.9962270  18.5654430   5.9488600  27.4864250
  27.8949610  16.0607220  28.8172290  27.4180170  16.8679410  28.6244900
  27.2111400  15.4085550  28.9698500  18.8982430  12.2257040  31.8056990
  18.0010960  12.4497010  32.0530390  18.9235300  12.3491980  30.8568390
  25.9387650   9.0750160  17.7198250  26.3780930   8.2372590  17.5736070
  26.6516070   9.7079560  17.8062390  17.7253650   9.0970360  30.3814360
  17.5861420   9.9693160  30.7501760  16.8435010   8.7543170  30.2362300
  24.0483030  14.0146230  21.6879490  24.4878940  14.7570560  21.2734880
  23.9869920  14.2572800  22.6118450  19.5234000  15.0392060  32.5899510
  19.4949430  15.4435010  31.7227940  19.3598970  14.1102420  32.4271110
  16.0386930   7.6952770  20.4916630  15.9184530   8.4214860  19.8797900
  15.7287820   6.9255680  20.0144540  31.4748820  15.8219160  33.8863680
  31.9508540  16.3002050  34.5652760  32.0955980  15.7536650  33.1609180
  13.6772300  10.8667910  26.2985270  13.7552720  11.0016680  25.3540990
  14.2913980  10.1583800  26.4913390  14.9219930  12.5668100  22.7091450
  14.5148010  12.7082690  21.8545050  15.8132940  12.2828260  22.5062660
  30.8782070  13.0132010  31.0463690  31.0045130  12.7743890  30.1280870
  30.9203450  12.1816550  31.5185770  24.7398810  16.7160010  29.6158500
  25.2543480  16.6268020  30.4180930  23.8967890  17.0619710  29.9086410
  26.7153210  17.0015350  19.0442500  26.5554350  16.7118290  19.9424330
  26.5499920  16.2255480  18.5087730  19.1941590  16.7813880  20.8214120
  19.0184070  15.8649420  20.6081920  18.3397330  17.1401170  21.0611920
  26.4179340  14.5102910  17.6040500  25.7244500  14.5080200  16.9442780
  27.1602200  14.0862230  17.1734670  25.9829270  16.1365620  21.6788990
  26.4386220  15.3555000  21.9927610  26.3221790  16.8472440  22.2230170
  30.7306080   5.0664470  32.0113430  30.1150350   5.5744140  31.4828890
  30.4102500   4.1662800  31.9539370  13.7331820  11.9082080  28.8379730
  13.8962860  11.4387440  28.0199100  14.1984270  11.4005640  29.5028570
  22.7920400   3.9056360  29.4775620  22.3299770   4.1139380  30.2895560
  22.3898510   3.0915710  29.1746290  27.7924910   5.1265310  30.6072280
  26.9418500   4.8271060  30.9281350  27.6326700   5.3707320  29.6956100
  24.8874620   6.6267060  32.7071070  25.2128030   5.7930810  32.3673300
  25.6754950   7.1495580  32.8549400  18.2964810   6.1621410  21.6021550
  18.0705730   5.9458580  22.5068170  17.5157340   6.5949870  21.2567520
  25.5262570   6.1684780  20.2012200  24.9271460   6.8920580  20.0175820
  26.0742180   6.1061560  19.4188650  20.7364020   7.0606990  32.2681820
  20.6407620   6.1201720  32.1182220  21.5796000   7.2822060  31.8729890
  24.1327440   4.8048320  22.2315480  24.5257010   5.1220520  21.4184170
  24.4944290   3.9260200  22.3460000  15.8674560   3.4720660  30.4215600
  15.4737950   4.3195870  30.6288380  15.1792960   2.8347030  30.6124240
  22.4419610   3.5555630  33.4912340  21.7517930   3.3627830  34.1258430
  23.1851910   3.8390270  34.0236640  13.3561840   5.3369240  15.6648400
  13.2736510   6.2800000  15.8063390  13.0044900   5.1944150  14.7860750
  24.7182580   7.3954070  26.3266260  23.9863700   7.9040880  26.6756360
  24.3206920   6.5784050  26.0255040  21.1559970   4.0708270  24.7318750
  21.1596030   3.6298220  23.8823290  22.0511090   4.3925600  24.8390570
  17.0062350   3.9534760  23.6912960  16.6662400   4.4309990  24.4480010
  16.2439670   3.4999880  23.3314060  21.2180120   5.0720350  17.7225510
  21.3392940   5.0306830  18.6711330  20.8328630   5.9344500  17.5672240
  25.1808490   2.8487750  25.7389200  25.1981230   3.2996400  26.5831050
  24.9324070   1.9493390  25.9522640  20.2301620   7.3821490  17.1208810
  19.6618520   6.9339740  16.4944720  20.9390620   7.7414270  16.5873960
  15.3070800  11.2833510  30.9975540  14.9225590  10.6427180  31.5958500
  15.6182990  11.9869630  31.5670270  21.4567940   8.1310050  26.4784160
  21.8238070   7.6568620  27.2245500  21.2673000   9.0051620  26.8192500
  14.3208430   2.8753740  22.6077630  14.0355350   2.5109410  23.4456250
  14.2587290   2.1434200  21.9940770  19.2467310   7.1718690  28.7968370
  18.9424380   8.0510670  29.0218730  20.2013770   7.2318480  28.8325810
  17.7749100  11.3779680  19.3935220  17.0011360  10.8377300  19.2333940
  18.5043730  10.8586290  19.0552980  28.5337080  10.3745040  25.1861610
  29.2536200  10.8700330  24.7957720  28.3318900   9.6962930  24.5415480
  23.9947020   1.7683000  19.3291000  23.1811630   1.2696170  19.2536310
  23.8008970   2.6081250  18.9127350  23.9155880  10.4454100  31.0730610
  23.8493190   9.5249770  30.8188200  23.2861020  10.5429540  31.7875250
  26.7095410   6.1402650  17.6253160  27.5975030   6.4519880  17.4504500
  26.6800500   5.2674900  17.2333740  17.8186500  11.0460060  23.0314030
  18.3365170  10.2428320  22.9770920  17.3670520  10.9839200  23.8730860
  22.7056000  12.3126340  18.3041330  23.0471700  13.0568570  17.8084650
  21.8768710  12.6257460  18.6666160  15.3031040   8.0121430  29.9439730
  14.9445980   8.6775280  30.5313070  15.0085600   7.1804980  30.3152350
  18.5044160   8.4705670  32.8279280  18.2044300   8.6162850  31.9307100
  19.2755400   7.9110960  32.7352670  23.8472610  13.2674670  30.8234410
  23.8617150  12.3355630  30.6053320  23.1397710  13.3534430  31.4624180
  28.9809680   7.4514490  17.0933020  28.8973400   7.8828710  16.2429460
  29.7003870   7.9112840  17.5259840  30.0583820   9.9082010  30.1702990
  29.3332010  10.5010790  29.9732380  30.5859280   9.9005550  29.3716360
  30.0096930  14.3056750  19.8215150  29.3673090  13.6512370  20.0958870
  29.6227590  14.7111840  19.0455820  25.5883410  11.6342180  23.6686840
  25.9407230  11.0370310  23.0088210  24.7045740  11.3086410  23.8395090
  21.6746690  12.3939870  21.0757250  22.3617820  12.9409080  21.4564840
  20.8879110  12.9380600  21.1106860  13.8139090   8.0112690  16.5674330
  14.6833940   8.2937490  16.8510250  13.3229410   8.8248560  16.4523140
  20.9773900   9.3985900  20.6882610  21.4336680  10.2091150  20.9142800
  20.6262110   9.0809040  21.5201100  23.2806510  14.9092240  27.9174910
  23.9248730  15.1151620  28.5948330  23.6435950  14.1480640  27.4645760
  24.5538590  12.9124590  26.6352360  25.1960820  12.2117750  26.7484530
  25.0787940  13.6923030  26.4549250  28.3994310  13.1973210  16.3591500
  28.1731890  12.4803650  16.9516140  28.0090510  12.9485650  15.5213250
  26.3276210  13.7119490  29.8388420  26.6632450  14.2986180  30.5166340
  25.4076550  13.5812200  30.0686210  14.1810340  17.2240070  17.1335960
  14.5407980  17.8229410  16.4793230  14.0402680  17.7699960  17.9070990
  27.9810560  11.1145150  18.0205660  27.6932260  11.5757840  18.8083540
  28.7762730  10.6542920  18.2889880  14.1652200  15.4894930  31.6078360
  14.2743320  14.5489670  31.4673750  13.5132760  15.7549680  30.9592090
  22.1564790  13.7610820  33.0076480  21.8361660  13.0420060  33.5522170
  21.4823150  14.4365890  33.0812540  20.1978960  14.6071270  17.9509630
  20.1889060  15.3400960  17.3354140  19.2777320  14.3602850  18.0436590
  15.7985600   9.8286160  18.6956390  15.1913550  10.5685060  18.7051690
  16.2734950   9.9185520  17.8694590  25.3718390   3.9936980  28.3713280
  25.7399210   3.1732190  28.6992850  24.5116590   4.0538870  28.7868930
  28.7380420   2.9493920  19.1800840  28.1093580   3.0539590  18.4659070
  28.2432340   3.1690700  19.9694720  23.1838560  14.6699510  16.6134820
  23.2850540  14.4663500  15.6836800  22.2840300  14.4157790  16.8182600
  20.7064450   5.2279870  20.5958720  19.9980600   5.6966210  21.0372330
  20.9908930   4.5701880  21.2303910  22.3320380   6.6476570  28.5951250
  22.8305630   7.1222390  29.2603100  22.4743330   5.7240090  28.8021280
  24.7379880   1.9530530  22.0354510  24.6147660   1.9716660  21.0864020
  25.6864440   2.0009470  22.1552910  21.8256670  17.1885830  21.3082490
  22.0798170  17.1507220  20.3861860  20.8769150  17.0619160  21.3010740
  18.9099470   3.5364950  17.9709430  19.7590000   3.9735100  17.9049620
  18.5430740   3.8485210  18.7981490  29.5387240   2.8644530  29.4379640
  29.0360840   3.6049930  29.7773450  30.3543900   3.2528530  29.1216430
  27.8309250   8.1077710  22.8841000  26.8899390   8.1227940  23.0588690
  28.1453320   7.3213670  23.3301300  17.8090890   9.7897310  16.4444960
  18.5754160   9.6778670  17.0070390  17.8865580   9.0935280  15.7921730
  16.5037650   7.2222380  17.1277850  16.5841240   6.2749890  17.2395250
  17.3957400   7.5529260  17.2338510  29.8334830  15.2786560  24.5595260
  29.9582250  16.1017730  25.0319070  30.7000390  15.0677290  24.2119410
  17.3052360  17.3717770  24.2312390  18.0414840  16.8233230  24.5020960
  17.6893280  18.2373780  24.0918380  14.1897840  13.4391340  20.1053900
  13.2637620  13.6812480  20.0959310  14.6554270  14.2665600  19.9838650
  16.3110640  16.5563840  33.4197970  17.1123370  16.8775890  33.8333370
  15.7962460  16.1959420  34.1417880  20.4154670  16.5448080  16.0537960
  21.2083280  16.8336910  15.6019750  19.8959020  16.1140250  15.3750440
  25.1475270  12.6643710  33.3673380  24.5413430  12.6875310  32.6269130
  24.8429380  11.9326750  33.9040630  26.5775640  16.3924000  31.9782790
  27.5297390  16.3082020  31.9283030  26.4303860  17.0565710  32.6516580
  29.4684840  15.7718210  17.4774700  29.1826350  15.3583350  16.6628880
  29.2704390  16.7005920  17.3575220  14.0308450   9.0437300  32.3634020
  14.5347470   8.4644580  32.9350250  13.2915870   9.3277530  32.9010390
  20.9332070  11.7651490  15.9180310  20.8282710  11.1503840  16.6441690
  20.7656290  11.2417380  15.1343320  21.0846390  10.4508290  31.8969540
  20.3192060  11.0193290  31.8124210  21.2662350  10.1584500  31.0037770
  24.1734800  10.8271520  16.5222300  23.6244900  11.2740820  17.1665040
  24.7954060  10.3220770  17.0459970  28.2269740  12.1813620  32.4544560
  28.9679210  12.5189380  31.9512020  27.4642420  12.3505680  31.9014330
  16.0631530   7.1866890  33.2584090  16.1036870   6.8880760  34.1669320
  16.9177030   7.5874500  33.0991610  19.8409920   9.7862440  18.4187600
  20.2626340   9.6202310  19.2618990  19.9660760   8.9762670  17.9242740
  18.0037340   5.7658990  31.2258580  17.4733800   5.2749940  30.5981920
  18.6725410   6.1943190  30.6916510  22.3537560   8.8100050  15.6664700
  22.8743220   8.0949070  15.3005850  23.0005960   9.4485920  15.9665210
  26.9015400  10.2328450  30.9899770  27.3156420  10.3873530  31.8390190
  25.9666400  10.3583670  31.1525550  27.3737570   7.5724610  32.9938920
  27.9558340   6.8176930  32.9059400  27.5499340   8.1032050  32.2170400
  18.4909640   2.7321360  31.3055870  18.3966510   2.1142110  30.5806740
  17.9107030   3.4587650  31.0785780  21.6630630  10.1848930  28.9595700
  22.0818740  11.0281660  28.7871940  20.7439260  10.3220970  28.7302480
  23.9994530   7.9165110  30.3433540  24.1190740   7.3206250  31.0828380
  24.8588530   7.9534800  29.9234840  26.3382430   8.4702300  28.9196050
  25.8117650   8.9944920  28.3161190  26.6813770   9.1029690  29.5505780
  18.7368820   5.8595670  15.3645760  18.5357880   4.9963030  15.7259100
  18.5660870   5.7729030  14.4267360  19.5138050  16.4901940  30.0753430
  18.9759140  17.2148000  29.7562130  19.7672010  16.0132280  29.2850770
  20.7663300   4.4586460  31.6009360  21.3562990   4.1502310  32.2887180
  19.9483540   3.9866210  31.7569260  25.5856730   4.0752270  31.8342380
  24.8972250   3.4133810  31.7692370  26.3062750   3.6290540  32.2790840
  17.5351620   2.9596290  15.3523640  17.8377520   2.9663720  14.4442790
  18.2746210   2.6094150  15.8491300  22.3700260  17.7253150  30.3340080
  22.2958960  18.6288290  30.6412450  21.4679100  17.4065050  30.3062150
  22.9185590  16.8911660  17.9566440  23.8136380  17.2296630  17.9785200
  22.9503220  16.1691070  17.3290720  16.5581750  12.2638710  16.1853440
  16.9956620  12.8068380  16.8411020  17.0429480  11.4385660  16.1949780
  13.7727550  15.0527740  23.6373700  14.1030560  14.1848800  23.4052340
  14.2018550  15.2586260  24.4678660  18.3689470  13.3836750  21.2975670
  18.0685010  13.2601720  22.1979580  18.2626960  12.5245340  20.8891400
  14.2617760  15.9198330  26.3755330  13.8248750  16.0999130  27.2079480
  14.8295440  16.6772950  26.2337050  29.8979940  15.4215330  30.6632640
  29.2981930  15.4807890  29.9196560  30.0273840  14.4820310  30.7929490
  31.1381390  13.1633150  16.0002350  30.3074350  13.2309800  16.4709580
  31.3153220  14.0537270  15.6969210  30.5937850   9.9080630  18.5036550
  31.3556760  10.4777280  18.6096240  30.6092220   9.3407830  19.2744860
  14.0942190   8.4318560  22.7344210  13.4391030   8.1630200  22.0903910
  14.9320140   8.3223040  22.2846190  31.5997820  10.7630730  23.3478480
  31.9706650   9.9798050  22.9414450  32.2399750  11.4519830  23.1695780
  28.5831580  12.1467310  28.7608800  27.7691420  12.5764470  29.0234590
  28.9905780  12.7585720  28.1477850  30.6457020  10.2015000  15.6609070
  30.9205860  11.1093880  15.5328290  30.4567760  10.1377530  16.5971060
  27.0432630   3.2259850  16.9562700  27.4617510   3.0390830  16.1159360
  26.7368690   2.3738900  17.2665630  30.5422360   8.1383990  20.6538500
  30.1665960   7.3711920  20.2219790  29.8125480   8.5206690  21.1413430
  15.1318120   8.8171130  27.2747550  15.4991160   8.7298530  28.1543570
  14.5628940   8.0537680  27.1754410  29.9321980   7.2855510  30.2878020
  29.7008070   7.0568260  29.3875970  30.1926530   8.2055060  30.2422910
  14.6834120   5.7280220  31.1805970  13.7890170   5.6946980  31.5199680
  15.2231670   5.9267010  31.9457220  28.3710050   2.5111940  33.0657720
  29.2480230   2.5195340  33.4491720  28.3830890   1.7742780  32.4550070
  13.3080270   5.6417490  18.6769540  12.4044350   5.9047690  18.5021200
  13.7920890   5.9128660  17.8969500  29.8173320   6.3641480  23.9545740
  30.3410800   5.8704130  23.3235910  30.4032740   6.4991840  24.6993310
  29.9963040   6.4481350  27.4765290  29.0465750   6.4144890  27.5910280
  30.1776050   7.3581460  27.2415060  15.8507480   4.6983030  16.5863920
  16.5599180   4.2766250  16.1011200  15.1347420   4.7658260  15.9547270
  29.3073290   5.6214830  19.8938150  29.8032410   5.3885700  20.6787030
  29.1089360   4.7826670  19.4775790  30.7360450   4.2575780  22.4275830
  30.6259730   4.1031820  23.3658100  31.4968040   3.7296720  22.1851240
  31.6250720   2.0883700  15.6681970  32.5500030   1.9564880  15.4600260
  31.6026510   2.1676520  16.6218420  31.6989210   2.8594360  18.2938680
  30.9040710   2.7939480  18.8231590  31.9032490   3.7945000  18.2824030
  28.6407630  16.8985910  22.2877070  29.2366700  16.5770480  21.6111490
  28.8985780  16.4257730  23.0790340  16.5470200  13.3303820  32.4367700
  16.5039830  12.9596730  33.3182160  16.6781210  14.2681390  32.5769520
  20.2476230  14.8863410  28.0377420  20.0067590  15.1537970  27.1507940
  21.1878870  15.0569140  28.0928280  31.5080390  16.9057790  28.8388060
  31.0138670  17.3026660  28.1215190  30.8993680  16.2807000  29.2325340
  16.3858230  16.2766070  29.5565480  15.7918550  16.1450770  30.2955520
  16.3782070  15.4404210  29.0907580  29.1919840  17.5481210  26.1174800
  28.7322810  18.2997020  25.7432820  28.5632300  16.8287680  26.0589600
  16.0170460  13.6424450  28.5073520  15.2904520  13.0229740  28.4399470
  16.0779610  14.0365060  27.6371600  19.6215560  15.8569450  25.2922930
  20.1380580  15.2456810  24.7671190  20.2712940  16.3598230  25.7833940
  22.3611060  16.7477940  26.1191910  22.6488870  16.4932240  25.2424920
  22.8734280  16.1955300  26.7097480  14.3000460  16.9598840  21.7170280
  14.1322500  16.3269520  22.4152170  13.4334970  17.1658240  21.3664470
  21.4642290   2.9054890  22.2104450  20.6516800   2.5311780  21.8700330
  21.9683930   2.1499970  22.5125640  15.9063160  15.6532070  19.1620420
  15.3810780  16.0340100  18.4582380  15.8307740  16.2782840  19.8830130
  22.4283420  17.6694040  33.4860110  23.3550730  17.4338310  33.5296070
  22.4133850  18.4966040  33.0046140  30.6628480  17.2119610  20.4834360
  30.8380670  16.5257350  19.8395280  29.9650050  17.7366660  20.0911030
  18.5056130  17.6014450  18.0369670  19.2374950  17.3173730  17.4893560
  18.7649800  17.3627730  18.9269050  17.6670920  13.7179180  18.0416000
  17.0379800  14.1864280  18.5901830  17.7818750  12.8728400  18.4762190
  28.9960980  16.8963900  33.3101150  29.7886300  16.4013130  33.1027110
  29.2894130  17.5754040  33.9176760  25.1220640   7.7684840   4.1917200
  25.0414690   6.8539450   3.9208910  24.7085060   8.2651910   3.4856910
  23.2538680   9.5463860   6.0726470  22.4780780   9.0664300   6.3625040
  23.9051610   8.8669510   5.8982630  17.2704510   9.8583670   6.9502230
  16.4389390   9.6032380   7.3498740  17.8785490   9.9294440   7.6860150
  27.2746110  13.9524050   4.8525600  26.8127640  13.1811290   5.1812770
  28.0871660  13.9790120   5.3578050  17.2505770  13.8923760   7.1460250
  17.5533810  13.0021500   6.9670470  17.9949360  14.4493980   6.9182500
  13.6429470   7.4191210   6.6184320  14.2145580   6.6513410   6.6187960
  13.6431010   7.7179970   5.7090930  23.5009420  16.2382060   4.4729590
  22.8820860  16.6939560   3.9024030  24.3561200  16.3933520   4.0719290
  22.6947670  12.2221050   6.0796630  22.6255950  11.2810990   5.9185760
  23.4567530  12.3122460   6.6519200  14.8854340   2.8275570   8.4053250
  14.7057180   1.9301320   8.6856010  14.4834420   3.3747440   9.0800200
  23.7252840   5.0291430   6.3065560  24.1017660   4.1563310   6.1939230
  23.6272350   5.3650130   5.4156000  17.8557850   3.4017060   1.7683000
  17.9624600   4.3020790   2.0751760  16.9450210   3.3535030   1.4777650
  27.5076960   2.5241870   3.2393900  28.3286580   2.0338440   3.2819380
  27.5411040   3.1139530   3.9925740  15.5041010   5.3236070   7.0135590
  16.1851120   5.5874440   7.6322990  15.1889060   4.4836940   7.3473600
  19.6965580   6.3703430   6.1008180  20.2043800   6.8684400   6.7413200
  20.2278820   5.5938630   5.9247540  31.7976510   4.5408620   9.8037530
  31.0928680   4.9290330   9.2852640  32.0634430   5.2358910  10.4058460
  19.2304530  10.6497170   8.5445100  18.8973910  11.2766090   9.1866170
  19.4071210  11.1759050   7.7646770  27.7438440   4.4642250   6.0121440
  27.0394010   4.7527140   6.5924550  28.1050600   5.2742360   5.6521000
  17.6617010   2.7211950   8.3742050  18.0033820   3.5654000   8.0795920
  16.7232820   2.8695690   8.4907390  18.4423630  12.6177970  10.3594280
  19.0597630  13.2929050  10.0778730  17.5816750  13.0265950  10.2681780
  29.3601220  14.0817380   8.2748920  28.6764740  14.7516490   8.2665590
  29.8995510  14.2798030   7.5093780  30.8125360   3.9097040   6.4030650
  29.8650270   3.9436020   6.5346080  31.1375350   4.7235990   6.7880010
  26.8959960  15.9261510   6.9894100  26.9087120  15.5223800   6.1216360
  26.3435180  16.7008800   6.8855530  28.1905380  12.6477730   2.0784270
  28.0801710  11.7052060   2.2033690  28.1873630  13.0093370   2.9647030
  26.2945400  10.8291350   8.3176710  26.7114190  10.6151460   7.4830170
  27.0185220  11.0864140   8.8885330  30.2407500   9.2278570   8.4092950
  29.4126130   9.2971660   7.9343080  30.8357980   9.8132880   7.9408780
  27.2049510   6.0147890   9.3547820  26.7920690   6.8401600   9.6087810
  26.4725460   5.4292930   9.1624180  19.3382300   8.8007790   4.2166490
  18.9339300   8.0885040   3.7212390  19.4245420   8.4561030   5.1054530
  19.8064000  12.4875350   6.3805700  19.5092290  11.8820820   5.7013480
  20.7563820  12.5252660   6.2695060  18.0510920   5.5751000   7.9965530
  18.6025510   5.6846340   7.2218780  18.5654430   5.9488600   8.7120760
  27.8949610  16.0607220  10.0428800  27.4180170  16.8679410   9.8501410
  27.2111400  15.4085550  10.1955010  18.8982430  12.2257040  13.0313500
  18.0010960  12.4497010  13.2786900  18.9235300  12.3491980  12.0824900
  17.7253650   9.0970360  11.6070870  17.5861420   9.9693160  11.9758270
  16.8435010   8.7543170  11.4618810  24.0483030  14.0146230   2.9136000
  24.4878940  14.7570560   2.4991390  23.9869920  14.2572800   3.8374960
  19.5234000  15.0392060  13.8156020  19.4949430  15.4435010  12.9484450
  19.3598970  14.1102420  13.6527620  31.4748820  15.8219160  15.1120190
  31.9508540  16.3002050  15.7909270  32.0955980  15.7536650  14.3865690
  13.6772300  10.8667910   7.5241780  13.7552720  11.0016680   6.5797500
  14.2913980  10.1583800   7.7169900  14.9219930  12.5668100   3.9347960
  14.5148010  12.7082690   3.0801560  15.8132940  12.2828260   3.7319170
  30.8782070  13.0132010  12.2720200  31.0045130  12.7743890  11.3537380
  30.9203450  12.1816550  12.7442280  24.7398810  16.7160010  10.8415010
  25.2543480  16.6268020  11.6437440  23.8967890  17.0619710  11.1342920
  19.1941590  16.7813880   2.0470630  19.0184070  15.8649420   1.8338430
  18.3397330  17.1401170   2.2868430  25.9829270  16.1365620   2.9045500
  26.4386220  15.3555000   3.2184120  26.3221790  16.8472440   3.4486680
  30.7306080   5.0664470  13.2369940  30.1150350   5.5744140  12.7085400
  30.4102500   4.1662800  13.1795880  13.7331820  11.9082080  10.0636240
  13.8962860  11.4387440   9.2455610  14.1984270  11.4005640  10.7285080
  22.7920400   3.9056360  10.7032130  22.3299770   4.1139380  11.5152070
  22.3898510   3.0915710  10.4002800  27.7924910   5.1265310  11.8328790
  26.9418500   4.8271060  12.1537860  27.6326700   5.3707320  10.9212610
  24.8874620   6.6267060  13.9327580  25.2128030   5.7930810  13.5929810
  25.6754950   7.1495580  14.0805910  18.2964810   6.1621410   2.8278060
  18.0705730   5.9458580   3.7324680  17.5157340   6.5949870   2.4824030
  20.7364020   7.0606990  13.4938330  20.6407620   6.1201720  13.3438730
  21.5796000   7.2822060  13.0986400  24.1327440   4.8048320   3.4571990
  24.5257010   5.1220520   2.6440680  24.4944290   3.9260200   3.5716510
  15.8674560   3.4720660  11.6472110  15.4737950   4.3195870  11.8544890
  15.1792960   2.8347030  11.8380750  22.4419610   3.5555630  14.7168850
  21.7517930   3.3627830  15.3514940  23.1851910   3.8390270  15.2493150
  24.7182580   7.3954070   7.5522770  23.9863700   7.9040880   7.9012870
  24.3206920   6.5784050   7.2511550  21.1559970   4.0708270   5.9575260
  21.1596030   3.6298220   5.1079800  22.0511090   4.3925600   6.0647080
  17.0062350   3.9534760   4.9169470  16.6662400   4.4309990   5.6736520
  16.2439670   3.4999880   4.5570570  25.1808490   2.8487750   6.9645710
  25.1981230   3.2996400   7.8087560  24.9324070   1.9493390   7.1779150
  15.3070800  11.2833510  12.2232050  14.9225590  10.6427180  12.8215010
  15.6182990  11.9869630  12.7926780  21.4567940   8.1310050   7.7040670
  21.8238070   7.6568620   8.4502010  21.2673000   9.0051620   8.0449010
  14.3208430   2.8753740   3.8334140  14.0355350   2.5109410   4.6712760
  14.2587290   2.1434200   3.2197280  19.2467310   7.1718690  10.0224880
  18.9424380   8.0510670  10.2475240  20.2013770   7.2318480  10.0582320
  28.5337080  10.3745040   6.4118120  29.2536200  10.8700330   6.0214230
  28.3318900   9.6962930   5.7671990  23.9155880  10.4454100  12.2987120
  23.8493190   9.5249770  12.0444710  23.2861020  10.5429540  13.0131760
  17.8186500  11.0460060   4.2570540  18.3365170  10.2428320   4.2027430
  17.3670520  10.9839200   5.0987370  15.3031040   8.0121430  11.1696240
  14.9445980   8.6775280  11.7569580  15.0085600   7.1804980  11.5408860
  18.5044160   8.4705670  14.0535790  18.2044300   8.6162850  13.1563610
  19.2755400   7.9110960  13.9609180  23.8472610  13.2674670  12.0490920
  23.8617150  12.3355630  11.8309830  23.1397710  13.3534430  12.6880690
  30.0583820   9.9082010  11.3959500  29.3332010  10.5010790  11.1988890
  30.5859280   9.9005550  10.5972870  25.5883410  11.6342180   4.8943350
  25.9407230  11.0370310   4.2344720  24.7045740  11.3086410   5.0651600
  21.6746690  12.3939870   2.3013760  22.3617820  12.9409080   2.6821350
  20.8879110  12.9380600   2.3363370  20.9773900   9.3985900   1.9139120
  21.4336680  10.2091150   2.1399310  20.6262110   9.0809040   2.7457610
  23.2806510  14.9092240   9.1431420  23.9248730  15.1151620   9.8204840
  23.6435950  14.1480640   8.6902270  24.5538590  12.9124590   7.8608870
  25.1960820  12.2117750   7.9741040  25.0787940  13.6923030   7.6805760
  26.3276210  13.7119490  11.0644930  26.6632450  14.2986180  11.7422850
  25.4076550  13.5812200  11.2942720  14.1652200  15.4894930  12.8334870
  14.2743320  14.5489670  12.6930260  13.5132760  15.7549680  12.1848600
  22.1564790  13.7610820  14.2332990  21.8361660  13.0420060  14.7778680
  21.4823150  14.4365890  14.3069050  25.3718390   3.9936980   9.5969790
  25.7399210   3.1732190   9.9249360  24.5116590   4.0538870  10.0125440
  20.7064450   5.2279870   1.8215230  19.9980600   5.6966210   2.2628840
  20.9908930   4.5701880   2.4560420  22.3320380   6.6476570   9.8207760
  22.8305630   7.1222390  10.4859610  22.4743330   5.7240090  10.0277790
  24.7379880   1.9530530   3.2611020  24.6147660   1.9716660   2.3120530
  25.6864440   2.0009470   3.3809420  21.8256670  17.1885830   2.5339000
  22.0798170  17.1507220   1.6118370  20.8769150  17.0619160   2.5267250
  29.5387240   2.8644530  10.6636150  29.0360840   3.6049930  11.0029960
  30.3543900   3.2528530  10.3472940  27.8309250   8.1077710   4.1097510
  26.8899390   8.1227940   4.2845200  28.1453320   7.3213670   4.5557810
  29.8334830  15.2786560   5.7851770  29.9582250  16.1017730   6.2575580
  30.7000390  15.0677290   5.4375920  17.3052360  17.3717770   5.4568900
  18.0414840  16.8233230   5.7277470  17.6893280  18.2373780   5.3174890
  16.3110640  16.5563840  14.6454480  17.1123370  16.8775890  15.0589880
  15.7962460  16.1959420  15.3674390  25.1475270  12.6643710  14.5929890
  24.5413430  12.6875310  13.8525640  24.8429380  11.9326750  15.1297140
  26.5775640  16.3924000  13.2039300  27.5297390  16.3082020  13.1539540
  26.4303860  17.0565710  13.8773090  14.0308450   9.0437300  13.5890530
  14.5347470   8.4644580  14.1606760  13.2915870   9.3277530  14.1266900
  21.0846390  10.4508290  13.1226050  20.3192060  11.0193290  13.0380720
  21.2662350  10.1584500  12.2294280  28.2269740  12.1813620  13.6801070
  28.9679210  12.5189380  13.1768530  27.4642420  12.3505680  13.1270840
  16.0631530   7.1866890  14.4840600  16.1036870   6.8880760  15.3925830
  16.9177030   7.5874500  14.3248120  18.0037340   5.7658990  12.4515090
  17.4733800   5.2749940  11.8238430  18.6725410   6.1943190  11.9173020
  26.9015400  10.2328450  12.2156280  27.3156420  10.3873530  13.0646700
  25.9666400  10.3583670  12.3782060  27.3737570   7.5724610  14.2195430
  27.9558340   6.8176930  14.1315910  27.5499340   8.1032050  13.4426910
  18.4909640   2.7321360  12.5312380  18.3966510   2.1142110  11.8063250
  17.9107030   3.4587650  12.3042290  21.6630630  10.1848930  10.1852210
  22.0818740  11.0281660  10.0128450  20.7439260  10.3220970   9.9558990
  23.9994530   7.9165110  11.5690050  24.1190740   7.3206250  12.3084890
  24.8588530   7.9534800  11.1491350  26.3382430   8.4702300  10.1452560
  25.8117650   8.9944920   9.5417700  26.6813770   9.1029690  10.7762290
  19.5138050  16.4901940  11.3009940  18.9759140  17.2148000  10.9818640
  19.7672010  16.0132280  10.5107280  20.7663300   4.4586460  12.8265870
  21.3562990   4.1502310  13.5143690  19.9483540   3.9866210  12.9825770
  25.5856730   4.0752270  13.0598890  24.8972250   3.4133810  12.9948880
  26.3062750   3.6290540  13.5047350  22.3700260  17.7253150  11.5596590
  22.2958960  18.6288290  11.8668960  21.4679100  17.4065050  11.5318660
  13.7727550  15.0527740   4.8630210  14.1030560  14.1848800   4.6308850
  14.2018550  15.2586260   5.6935170  18.3689470  13.3836750   2.5232180
  18.0685010  13.2601720   3.4236090  18.2626960  12.5245340   2.1147910
  14.2617760  15.9198330   7.6011840  13.8248750  16.0999130   8.4335990
  14.8295440  16.6772950   7.4593560  29.8979940  15.4215330  11.8889150
  29.2981930  15.4807890  11.1453070  30.0273840  14.4820310  12.0186000
  14.0942190   8.4318560   3.9600720  13.4391030   8.1630200   3.3160420
  14.9320140   8.3223040   3.5102700  31.5997820  10.7630730   4.5734990
  31.9706650   9.9798050   4.1670960  32.2399750  11.4519830   4.3952290
  28.5831580  12.1467310   9.9865310  27.7691420  12.5764470  10.2491100
  28.9905780  12.7585720   9.3734360  30.5422360   8.1383990   1.8795010
  30.1665960   7.3711920   1.4476300  29.8125480   8.5206690   2.3669940
  15.1318120   8.8171130   8.5004060  15.4991160   8.7298530   9.3800080
  14.5628940   8.0537680   8.4010920  29.9321980   7.2855510  11.5134530
  29.7008070   7.0568260  10.6132480  30.1926530   8.2055060  11.4679420
  14.6834120   5.7280220  12.4062480  13.7890170   5.6946980  12.7456190
  15.2231670   5.9267010  13.1713730  28.3710050   2.5111940  14.2914230
  29.2480230   2.5195340  14.6748230  28.3830890   1.7742780  13.6806580
  29.8173320   6.3641480   5.1802250  30.3410800   5.8704130   4.5492420
  30.4032740   6.4991840   5.9249820  29.9963040   6.4481350   8.7021800
  29.0465750   6.4144890   8.8166790  30.1776050   7.3581460   8.4671570
  30.7360450   4.2575780   3.6532340  30.6259730   4.1031820   4.5914610
  31.4968040   3.7296720   3.4107750  28.6407630  16.8985910   3.5133580
  29.2366700  16.5770480   2.8368000  28.8985780  16.4257730   4.3046850
  16.5470200  13.3303820  13.6624210  16.5039830  12.9596730  14.5438670
  16.6781210  14.2681390  13.8026030  20.2476230  14.8863410   9.2633930
  20.0067590  15.1537970   8.3764450  21.1878870  15.0569140   9.3184790
  31.5080390  16.9057790  10.0644570  31.0138670  17.3026660   9.3471700
  30.8993680  16.2807000  10.4581850  16.3858230  16.2766070  10.7821990
  15.7918550  16.1450770  11.5212030  16.3782070  15.4404210  10.3164090
  29.1919840  17.5481210   7.3431310  28.7322810  18.2997020   6.9689330
  28.5632300  16.8287680   7.2846110  16.0170460  13.6424450   9.7330030
  15.2904520  13.0229740   9.6655980  16.0779610  14.0365060   8.8628110
  19.6215560  15.8569450   6.5179440  20.1380580  15.2456810   5.9927700
  20.2712940  16.3598230   7.0090450  22.3611060  16.7477940   7.3448420
  22.6488870  16.4932240   6.4681430  22.8734280  16.1955300   7.9353990
  14.3000460  16.9598840   2.9426790  14.1322500  16.3269520   3.6408680
  13.4334970  17.1658240   2.5920980  21.4642290   2.9054890   3.4360960
  20.6516800   2.5311780   3.0956840  21.9683930   2.1499970   3.7382150
  22.4283420  17.6694040  14.7116620  23.3550730  17.4338310  14.7552580
  22.4133850  18.4966040  14.2302650  28.9960980  16.8963900  14.5357660
  29.7886300  16.4013130  14.3283620  29.2894130  17.5754040  15.1433270
   6.3477150  82.8658800  60.5147670   6.2671200  81.9513410  60.2439380
   5.9341570  83.3625870  59.8087380   4.4795190  84.6437820  62.3956940
   3.7037290  84.1638260  62.6855510   5.1308120  83.9643470  62.2213100
   8.5002620  89.0498010  61.1756070   8.0384150  88.2785250  61.5043240
   9.3128170  89.0764080  61.6808520   3.9204180  87.3195010  62.4027100
   3.8512460  86.3784950  62.2416230   4.6824040  87.4096420  62.9749670
   4.9509350  80.1265390  62.6296030   5.3274170  79.2537270  62.5169700
   4.8528860  80.4624090  61.7386470   8.7333470  77.6215830  59.5624370
   9.5543090  77.1312400  59.6049850   8.7667550  78.2113490  60.3156210
   5.5929280  86.2195260  58.1891970   4.9746550  86.6844710  57.6254690
   6.1052530  86.9122740  58.6061480   8.9694950  79.5616210  62.3351910
   8.2650520  79.8501100  62.9155020   9.3307110  80.3716320  61.9751470
  10.5857730  89.1791340  64.5979390   9.9021250  89.8490450  64.5896060
  11.1252020  89.3771990  63.8324250  12.0381870  79.0071000  62.7261120
  11.0906780  79.0409980  62.8576550  12.3631860  79.8209950  63.1110480
   9.4161890  87.7451690  58.4014740   9.3058220  86.8026020  58.5264160
   9.4130140  88.1067330  59.2877500   7.5201910  85.9265310  64.6407180
   7.9370700  85.7125420  63.8060640   8.2441730  86.1838100  65.2115800
   4.9582170  83.3717010  57.7577230   4.0311450  83.3054390  57.9865700
   5.1106990  84.3097140  57.6432470   4.9451250  79.6434010  54.7544390
   4.0054920  79.8047970  54.8396850   5.2634510  80.3619690  54.2080380
  11.4664010  84.3252530  64.7323420  10.6382640  84.3945620  64.2573550
  12.0614490  84.9106840  64.2639250   8.9879460  84.9337310  58.2612480
   8.3691880  84.5956860  57.6138780   8.9703910  84.2897070  58.9691670
   8.4306020  81.1121850  65.6778290   8.0177200  81.9375560  65.9318280
   7.6981970  80.5266890  65.4854650   7.1644160  84.1724120  55.2685230
   7.6037440  83.3346550  55.1223050   7.8772580  84.8053520  55.3549370
   5.2739540  89.1120190  59.2366470   5.7135450  89.8544520  58.8221860
   5.2126430  89.3546760  60.1605430  10.7461300  75.4266930  53.5826270
  10.4333960  75.5193760  54.4825340  11.5073770  76.0047960  53.5323700
   7.6435850  89.6076870  55.1527480   6.9501010  89.6054160  54.4929760
   8.3858710  89.1836190  54.7221650   2.8465920  75.7572500  56.3033110
   2.2220100  75.7532370  57.0286420   2.7596040  74.8903460  55.9069080
   1.7683000  76.6809130  63.2816880   2.0655330  77.5871960  63.2008900
   2.3168560  76.1927910  62.6676450   6.7519080  81.2658740  57.7499180
   6.1527970  81.9894540  57.5662800   7.2998690  81.2035520  56.9675630
   5.3583950  79.9022280  59.7802460   5.7513520  80.2194480  58.9671150
   5.7200800  79.0234160  59.8946980   5.9439090  82.4928030  63.8753240
   5.2120210  83.0014840  64.2243340   5.5463430  81.6758010  63.5742020
   2.3816480  79.1682230  62.2805730   2.3852540  78.7272180  61.4310270
   3.2767600  79.4899560  62.3877550   2.4436630  80.1694310  55.2712490
   2.5649450  80.1280790  56.2198310   2.0585140  81.0318460  55.1159220
   6.4065000  77.9461710  63.2876180   6.4237740  78.3970360  64.1318030
   6.1580580  77.0467350  63.5009620   2.6824450  83.2284010  64.0271140
   3.0494580  82.7542580  64.7732480   2.4929510  84.1025580  64.3679480
   9.7593590  85.4719000  62.7348590  10.4792710  85.9674290  62.3444700
   9.5575410  84.7936890  62.0902460   5.2203530  76.8656960  56.8777980
   4.4068140  76.3670130  56.8023290   5.0265480  77.7055210  56.4614330
   7.9351920  81.2376610  55.1740140   8.8231540  81.5493840  54.9991480
   7.9057010  80.3648860  54.7820720   3.9312510  87.4100300  55.8528310
   4.2728210  88.1542530  55.3571630   3.1025220  87.7231420  56.2153140
  10.2066190  82.5488450  54.6420000  10.1229910  82.9802670  53.7916440
  10.9260380  83.0086800  55.0746820  11.2353440  89.4030710  57.3702130
  10.5929600  88.7486330  57.6445850  10.8484100  89.8085800  56.5942800
   6.8139920  86.7316140  61.2173820   7.1663740  86.1344270  60.5575190
   5.9302250  86.4060370  61.3882070   2.9003200  87.4913830  58.6244230
   3.5874330  88.0383040  59.0051820   2.1135620  88.0354560  58.6593840
   2.2030410  84.4959860  58.2369590   2.6593190  85.3065110  58.4629780
   1.8518620  84.1783000  59.0688080   4.5063020  90.0066200  65.4661890
   5.1505240  90.2125580  66.1435310   4.8692460  89.2454600  65.0132740
   5.7795100  88.0098550  64.1839340   6.4217330  87.3091710  64.2971510
   6.3044450  88.7896990  64.0036230   9.6250820  88.2947170  53.9078480
   9.3988400  87.5777610  54.5003120   9.2347020  88.0459610  53.0700230
   9.2067070  86.2119110  55.5692640   8.9188770  86.6731800  56.3570520
  10.0019240  85.7516880  55.8376860   6.5974900  79.0910940  65.9200260
   6.9655720  78.2706150  66.2479830   5.7373100  79.1512830  66.3355910
   9.9636930  78.0467880  56.7287820   9.3350090  78.1513550  56.0146050
   9.4688850  78.2664660  57.5181700   4.4095070  89.7673470  54.1621800
   4.5107050  89.5637460  53.2323780   3.5096810  89.5131750  54.3669580
   5.9636390  77.0504490  59.5841490   5.8404170  77.0690620  58.6351000
   6.9120950  77.0983430  59.7039890   9.0565760  83.2051670  60.4327980
   8.1155900  83.2201900  60.6075670   9.3709830  82.4187630  60.8788280
   2.1588580  86.8625450  53.4667290   2.0539220  86.2477800  54.1928670
   1.9912800  86.3391340  52.6830300   5.3991310  85.9245480  54.0709280
   4.8501410  86.3714780  54.7152020   6.0210570  85.4194730  54.5946950
   3.5794070  83.9074010  53.2151680   4.0999730  83.1923030  52.8492830
   4.2262470  84.5459880  53.5152190   2.4827590  76.3868560  65.8870240
   2.0344890  76.4092820  65.0415790   1.8492790  75.9887580  66.4840540
   2.8887140  85.2822890  66.5082680   3.3075250  86.1255620  66.3358920
   1.9695770  85.4194930  66.2789460   7.4413640  75.7677860  55.4419620
   7.7215930  74.9245760  55.7979040   6.6679370  76.0000970  55.9558370
  12.3637900  88.2607110  53.5489330  11.5330860  88.3283760  54.0196560
  12.5409730  89.1511230  53.2456190  11.8194360  85.0054590  56.0523530
  12.5813270  85.5751240  56.1583220  11.8348730  84.4381790  56.8231840
  12.8254330  85.8604690  60.8965460  13.1963160  85.0772010  60.4901430
  13.4656260  86.5493790  60.7182760  11.8713530  85.2988960  53.2096050
  12.1462370  86.2067840  53.0815270  11.6824270  85.2351490  54.1458040
   8.2689140  78.3233810  54.5049680   8.6874020  78.1364790  53.6646340
   7.9625200  77.4712860  54.8152610  11.7678870  83.2357950  58.2025480
  11.3922470  82.4685880  57.7706770  11.0381990  83.6180650  58.6900410
  11.0429830  81.4615440  61.5032720  11.5667310  80.9678090  60.8722890
  11.6289250  81.5965800  62.2480290  11.2219550  81.5455310  65.0252270
  10.2722260  81.5118850  65.1397260  11.4032560  82.4555420  64.7902040
  10.5329800  80.7188790  57.4425130  11.0288920  80.4859660  58.2274010
  10.3345870  79.8800630  57.0262770  11.9616960  79.3549740  59.9762810
  11.8516240  79.2005780  60.9145080  12.7224550  78.8270680  59.7338220
  12.8507230  77.1857660  53.2168950  13.7756540  77.0538840  53.0087240
  12.8283020  77.2650480  54.1705400  12.9245720  77.9568320  55.8425660
  12.1297220  77.8913440  56.3718570  13.1289000  78.8918960  55.8311010
   7.0569760  74.6672260  65.3082490   6.1829600  75.0007370  65.1055420
   6.9480510  74.1945440  66.1334360   4.8044580  75.5842100  64.2475400
   4.0216370  76.0587600  64.5272160   4.5107510  74.6796930  64.1388580
   9.3565650  76.2865200  62.2924490   9.7973740  76.2310300  61.4446090
   9.0873240  77.2023210  62.3634670  11.2204220  75.9180440  60.3033310
  11.1592620  74.9741660  60.1564330  11.9996250  76.0260530  60.8486770
   2.6898800  78.0028850  59.7591430   1.8773310  77.6285740  59.4187310
   3.1940440  77.2473930  60.0612620   7.1923780  74.6671300  60.9974500
   7.7953150  75.2391510  61.4723020   6.4516770  75.2310740  60.7748400
  10.3358380  75.0692860  56.2714780  10.5309010  75.9676310  56.5382210
   9.5488250  74.8379940  56.7647730   6.3477150  82.8658800  41.7404180
   6.2671200  81.9513410  41.4695890   5.9341570  83.3625870  41.0343890
   4.4795190  84.6437820  43.6213450   3.7037290  84.1638260  43.9112020
   5.1308120  83.9643470  43.4469610   8.5002620  89.0498010  42.4012580
   8.0384150  88.2785250  42.7299750   9.3128170  89.0764080  42.9065030
   3.9204180  87.3195010  43.6283610   3.8512460  86.3784950  43.4672740
   4.6824040  87.4096420  44.2006180   4.9509350  80.1265390  43.8552540
   5.3274170  79.2537270  43.7426210   4.8528860  80.4624090  42.9642980
   8.7333470  77.6215830  40.7880880   9.5543090  77.1312400  40.8306360
   8.7667550  78.2113490  41.5412720  13.0233020  79.6382580  47.3524510
  12.3185190  80.0264290  46.8339620  13.2890940  80.3332870  47.9545440
   5.5929280  86.2195260  39.4148480   4.9746550  86.6844710  38.8511200
   6.1052530  86.9122740  39.8317990   8.9694950  79.5616210  43.5608420
   8.2650520  79.8501100  44.1411530   9.3307110  80.3716320  43.2007980
  10.5857730  89.1791340  45.8235900   9.9021250  89.8490450  45.8152570
  11.1252020  89.3771990  45.0580760  12.0381870  79.0071000  43.9517630
  11.0906780  79.0409980  44.0833060  12.3631860  79.8209950  44.3366990
   9.4161890  87.7451690  39.6271250   9.3058220  86.8026020  39.7520670
   9.4130140  88.1067330  40.5134010   7.5201910  85.9265310  45.8663690
   7.9370700  85.7125420  45.0317150   8.2441730  86.1838100  46.4372310
   4.9582170  83.3717010  38.9833740   4.0311450  83.3054390  39.2122210
   5.1106990  84.3097140  38.8688980   4.9451250  79.6434010  35.9800900
   4.0054920  79.8047970  36.0653360   5.2634510  80.3619690  35.4336890
  11.4664010  84.3252530  45.9579930  10.6382640  84.3945620  45.4830060
  12.0614490  84.9106840  45.4895760   8.9879460  84.9337310  39.4868990
   8.3691880  84.5956860  38.8395290   8.9703910  84.2897070  40.1948180
   8.4306020  81.1121850  46.9034800   8.0177200  81.9375560  47.1574790
   7.6981970  80.5266890  46.7111160   7.1644160  84.1724120  36.4941740
   7.6037440  83.3346550  36.3479560   7.8772580  84.8053520  36.5805880
   5.2739540  89.1120190  40.4622980   5.7135450  89.8544520  40.0478370
   5.2126430  89.3546760  41.3861940  10.7461300  75.4266930  34.8082780
  10.4333960  75.5193760  35.7081850  11.5073770  76.0047960  34.7580210
  12.1038580  88.1105970  49.8207180  12.2301640  87.8717850  48.9024360
  12.1459960  87.2790510  50.2929260   7.6435850  89.6076870  36.3783990
   6.9501010  89.6054160  35.7186270   8.3858710  89.1836190  35.9478160
  11.9562590  80.1638430  50.7856920  11.3406860  80.6718100  50.2572380
  11.6359010  79.2636760  50.7282860   4.0176910  79.0030320  48.2519110
   3.5556280  79.2113340  49.0639050   3.6155020  78.1889670  47.9489780
   9.0181420  80.2239270  49.3815770   8.1675010  79.9245020  49.7024840
   8.8583210  80.4681280  48.4699590   6.1131130  81.7241020  51.4814560
   6.4384540  80.8904770  51.1416790   6.9011460  82.2469540  51.6292890
   2.8465920  75.7572500  37.5289620   2.2220100  75.7532370  38.2542930
   2.7596040  74.8903460  37.1325590   1.7683000  76.6809130  44.5073390
   2.0655330  77.5871960  44.4265410   2.3168560  76.1927910  43.8932960
   6.7519080  81.2658740  38.9755690   6.1527970  81.9894540  38.7919310
   7.2998690  81.2035520  38.1932140   1.9620530  82.1580950  51.0425310
   1.8664130  81.2175680  50.8925710   2.8052510  82.3796020  50.6473380
   5.3583950  79.9022280  41.0058970   5.7513520  80.2194480  40.1927660
   5.7200800  79.0234160  41.1203490   3.6676120  78.6529590  52.2655830
   2.9774440  78.4601790  52.9001920   4.4108420  78.9364230  52.7980130
   5.9439090  82.4928030  45.1009750   5.2120210  83.0014840  45.4499850
   5.5463430  81.6758010  44.7998530   2.3816480  79.1682230  43.5062240
   2.3852540  78.7272180  42.6566780   3.2767600  79.4899560  43.6134060
   2.4436630  80.1694310  36.4969000   2.5649450  80.1280790  37.4454820
   2.0585140  81.0318460  36.3415730   6.4065000  77.9461710  44.5132690
   6.4237740  78.3970360  45.3574540   6.1580580  77.0467350  44.7266130
   9.8335750  75.3593890  50.3519070  10.1581520  74.6283550  50.8777050
   9.8692260  75.0407530  49.4500060   2.6824450  83.2284010  45.2527650
   3.0494580  82.7542580  45.9988990   2.4929510  84.1025580  45.5935990
   9.7593590  85.4719000  43.9605100  10.4792710  85.9674290  43.5701210
   9.5575410  84.7936890  43.3158970   5.2203530  76.8656960  38.1034490
   4.4068140  76.3670130  38.0279800   5.0265480  77.7055210  37.6870840
   5.1412390  85.5428060  49.8474100   5.0749700  84.6223730  49.5931690
   4.5117530  85.6403500  50.5618740   7.9351920  81.2376610  36.3996650
   8.8231540  81.5493840  36.2247990   7.9057010  80.3648860  36.0077230
   3.9312510  87.4100300  37.0784820   4.2728210  88.1542530  36.5828140
   3.1025220  87.7231420  37.4409650   5.0729120  88.3648630  49.5977900
   5.0873660  87.4329590  49.3796810   4.3654220  88.4508390  50.2367670
  10.2066190  82.5488450  35.8676510  10.1229910  82.9802670  35.0172950
  10.9260380  83.0086800  36.3003330  11.2840330  85.0055970  48.9446480
  10.5588520  85.5984750  48.7475870  11.8115790  84.9979510  48.1459850
  11.2353440  89.4030710  38.5958640  10.5929600  88.7486330  38.8702360
  10.8484100  89.8085800  37.8199310   6.8139920  86.7316140  42.4430330
   7.1663740  86.1344270  41.7831700   5.9302250  86.4060370  42.6138580
   2.9003200  87.4913830  39.8500740   3.5874330  88.0383040  40.2308330
   2.1135620  88.0354560  39.8850350   2.2030410  84.4959860  39.4626100
   2.6593190  85.3065110  39.6886290   1.8518620  84.1783000  40.2944590
   4.5063020  90.0066200  46.6918400   5.1505240  90.2125580  47.3691820
   4.8692460  89.2454600  46.2389250   5.7795100  88.0098550  45.4095850
   6.4217330  87.3091710  45.5228020   6.3044450  88.7896990  45.2292740
   9.6250820  88.2947170  35.1334990   9.3988400  87.5777610  35.7259630
   9.2347020  88.0459610  34.2956740   7.5532720  88.8093450  48.6131910
   7.8888960  89.3960140  49.2909830   6.6333060  88.6786160  48.8429700
   9.2067070  86.2119110  36.7949150   8.9188770  86.6731800  37.5827030
  10.0019240  85.7516880  37.0633370   3.3821300  88.8584780  51.7819970
   3.0618170  88.1394020  52.3265660   2.7079660  89.5339850  51.8556030
   6.5974900  79.0910940  47.1456770   6.9655720  78.2706150  47.4736340
   5.7373100  79.1512830  47.5612420   9.9636930  78.0467880  37.9544330
   9.3350090  78.1513550  37.2402560   9.4688850  78.2664660  38.7438210
   4.4095070  89.7673470  35.3878310   4.5107050  89.5637460  34.4580290
   3.5096810  89.5131750  35.5926090   3.5576890  81.7450530  47.3694740
   4.0562140  82.2196350  48.0346590   3.6999840  80.8214050  47.5764770
   5.9636390  77.0504490  40.8098000   5.8404170  77.0690620  39.8607510
   6.9120950  77.0983430  40.9296400  10.7643750  77.9618490  48.2123130
  10.2617350  78.7023890  48.5516940  11.5800410  78.3502490  47.8959920
   9.0565760  83.2051670  41.6584490   8.1155900  83.2201900  41.8332180
   9.3709830  82.4187630  42.1044790   6.3731780  87.7617670  52.1416870
   5.7669940  87.7849270  51.4012620   6.0685890  87.0300710  52.6784120
   2.1588580  86.8625450  34.6923800   2.0539220  86.2477800  35.4185180
   1.9912800  86.3391340  33.9086810   5.3991310  85.9245480  35.2965790
   4.8501410  86.3714780  35.9408530   6.0210570  85.4194730  35.8203460
   9.4526250  87.2787580  51.2288050  10.1935720  87.6163340  50.7255510
   8.6898930  87.4479640  50.6757820   3.5794070  83.9074010  34.4408190
   4.0999730  83.1923030  34.0749340   4.2262470  84.5459880  34.7408700
   8.1271910  85.3302410  49.7643260   8.5412930  85.4847490  50.6133680
   7.1922910  85.4557630  49.9269040   8.5994080  82.6698570  51.7682410
   9.1814850  81.9150890  51.6802890   8.7755850  83.2006010  50.9913890
   2.4827590  76.3868560  47.1126750   2.0344890  76.4092820  46.2672300
   1.8492790  75.9887580  47.7097050   2.8887140  85.2822890  47.7339190
   3.3075250  86.1255620  47.5615430   1.9695770  85.4194930  47.5045970
   5.2251040  83.0139070  49.1177030   5.3447250  82.4180210  49.8571870
   6.0845040  83.0508760  48.6978330   7.5638940  83.5676260  47.6939540
   7.0374160  84.0918880  47.0904680   7.9070280  84.2003650  48.3249270
   6.8113240  79.1726230  50.6085870   6.1228760  78.5107770  50.5435860
   7.5319260  78.7264500  51.0534330   7.4413640  75.7677860  36.6676130
   7.7215930  74.9245760  37.0235550   6.6679370  76.0000970  37.1814880
  11.1236450  90.5189290  49.4376130  10.5238440  90.5781850  48.6940050
  11.2530350  89.5794270  49.5672980  12.3637900  88.2607110  34.7745840
  11.5330860  88.3283760  35.2453070  12.5409730  89.1511230  34.4712700
  11.8194360  85.0054590  37.2780040  12.5813270  85.5751240  37.3839730
  11.8348730  84.4381790  38.0488350  12.8254330  85.8604690  42.1221970
  13.1963160  85.0772010  41.7157940  13.4656260  86.5493790  41.9439270
   9.8088090  87.2441270  47.5352290   8.9947930  87.6738430  47.7978080
  10.2162290  87.8559680  46.9221340  11.8713530  85.2988960  34.4352560
  12.1462370  86.2067840  34.3071780  11.6824270  85.2351490  35.3714550
   8.2689140  78.3233810  35.7306190   8.6874020  78.1364790  34.8902850
   7.9625200  77.4712860  36.0409120  11.7678870  83.2357950  39.4281990
  11.3922470  82.4685880  38.9963280  11.0381990  83.6180650  39.9156920
  11.1578490  82.3829470  49.0621510  10.9264580  82.1542220  48.1619460
  11.4183040  83.3029020  49.0166400   9.5966560  77.6085900  51.8401210
  10.4736740  77.6169300  52.2235210   9.6087400  76.8716740  51.2293560
  11.0429830  81.4615440  42.7289230  11.5667310  80.9678090  42.0979400
  11.6289250  81.5965800  43.4736800  11.2219550  81.5455310  46.2508780
  10.2722260  81.5118850  46.3653770  11.4032560  82.4555420  46.0158550
  10.5329800  80.7188790  38.6681640  11.0288920  80.4859660  39.4530520
  10.3345870  79.8800630  38.2519280  11.9616960  79.3549740  41.2019320
  11.8516240  79.2005780  42.1401590  12.7224550  78.8270680  40.9594730
  10.3082680  75.2943870  47.6602320  10.9454900  75.9078010  48.0261510
  10.4557570  75.3304530  46.7151550  12.8507230  77.1857660  34.4425460
  13.7756540  77.0538840  34.2343750  12.8283020  77.2650480  35.3961910
  12.9245720  77.9568320  37.0682170  12.1297220  77.8913440  37.5975080
  13.1289000  78.8918960  37.0567520   3.6787160  76.4470060  50.5677420
   3.6176050  77.0391890  51.3172830   4.6187540  76.3396020  50.4227680
   6.3161720  76.1040120  50.2069710   6.9302130  76.4219410  49.5450790
   6.8611280  75.6188710  50.8265570   7.0569760  74.6672260  46.5339000
   6.1829600  75.0007370  46.3311930   6.9480510  74.1945440  47.3590870
   7.9641740  76.8743130  47.9180720   7.6355100  76.0594890  47.5382450
   8.9124040  76.8312940  47.7946410   4.8044580  75.5842100  45.4731910
   4.0216370  76.0587600  45.7528670   4.5107510  74.6796930  45.3645090
   9.3565650  76.2865200  43.5181000   9.7973740  76.2310300  42.6702600
   9.0873240  77.2023210  43.5891180  11.2204220  75.9180440  41.5289820
  11.1592620  74.9741660  41.3820840  11.9996250  76.0260530  42.0743280
   2.6898800  78.0028850  40.9847940   1.8773310  77.6285740  40.6443820
   3.1940440  77.2473930  41.2869130   7.1923780  74.6671300  42.2231010
   7.7953150  75.2391510  42.6979530   6.4516770  75.2310740  42.0004910
  10.3358380  75.0692860  37.4971290  10.5309010  75.9676310  37.7638720
   9.5488250  74.8379940  37.9904240   7.4419000  74.8466330  52.6025950
   7.3284450  75.1660940  53.4977470   8.2588740  75.2478840  52.3063230
   6.3477150  82.8658800  22.9660690   6.2671200  81.9513410  22.6952400
   5.9341570  83.3625870  22.2600400   4.4795190  84.6437820  24.8469960
   3.7037290  84.1638260  25.1368530   5.1308120  83.9643470  24.6726120
   8.5002620  89.0498010  23.6269090   8.0384150  88.2785250  23.9556260
   9.3128170  89.0764080  24.1321540   3.9204180  87.3195010  24.8540120
   3.8512460  86.3784950  24.6929250   4.6824040  87.4096420  25.4262690
   4.9509350  80.1265390  25.0809050   5.3274170  79.2537270  24.9682720
   4.8528860  80.4624090  24.1899490   8.7333470  77.6215830  22.0137390
   9.5543090  77.1312400  22.0562870   8.7667550  78.2113490  22.7669230
  13.0233020  79.6382580  28.5781020  12.3185190  80.0264290  28.0596130
  13.2890940  80.3332870  29.1801950   5.5929280  86.2195260  20.6404990
   4.9746550  86.6844710  20.0767710   6.1052530  86.9122740  21.0574500
   8.9694950  79.5616210  24.7864930   8.2650520  79.8501100  25.3668040
   9.3307110  80.3716320  24.4264490  10.5857730  89.1791340  27.0492410
   9.9021250  89.8490450  27.0409080  11.1252020  89.3771990  26.2837270
  12.0381870  79.0071000  25.1774140  11.0906780  79.0409980  25.3089570
  12.3631860  79.8209950  25.5623500   9.4161890  87.7451690  20.8527760
   9.3058220  86.8026020  20.9777180   9.4130140  88.1067330  21.7390520
   7.5201910  85.9265310  27.0920200   7.9370700  85.7125420  26.2573660
   8.2441730  86.1838100  27.6628820   4.9582170  83.3717010  20.2090250
   4.0311450  83.3054390  20.4378720   5.1106990  84.3097140  20.0945490
   4.9451250  79.6434010  17.2057410   4.0054920  79.8047970  17.2909870
   5.2634510  80.3619690  16.6593400  11.4664010  84.3252530  27.1836440
  10.6382640  84.3945620  26.7086570  12.0614490  84.9106840  26.7152270
   8.9879460  84.9337310  20.7125500   8.3691880  84.5956860  20.0651800
   8.9703910  84.2897070  21.4204690   8.4306020  81.1121850  28.1291310
   8.0177200  81.9375560  28.3831300   7.6981970  80.5266890  27.9367670
   7.1644160  84.1724120  17.7198250   7.6037440  83.3346550  17.5736070
   7.8772580  84.8053520  17.8062390   5.2739540  89.1120190  21.6879490
   5.7135450  89.8544520  21.2734880   5.2126430  89.3546760  22.6118450
  10.7461300  75.4266930  16.0339290  10.4333960  75.5193760  16.9338360
  11.5073770  76.0047960  15.9836720  12.1038580  88.1105970  31.0463690
  12.2301640  87.8717850  30.1280870  12.1459960  87.2790510  31.5185770
   7.6435850  89.6076870  17.6040500   6.9501010  89.6054160  16.9442780
   8.3858710  89.1836190  17.1734670  11.9562590  80.1638430  32.0113430
  11.3406860  80.6718100  31.4828890  11.6359010  79.2636760  31.9539370
   4.0176910  79.0030320  29.4775620   3.5556280  79.2113340  30.2895560
   3.6155020  78.1889670  29.1746290   9.0181420  80.2239270  30.6072280
   8.1675010  79.9245020  30.9281350   8.8583210  80.4681280  29.6956100
   6.1131130  81.7241020  32.7071070   6.4384540  80.8904770  32.3673300
   6.9011460  82.2469540  32.8549400   2.8465920  75.7572500  18.7546130
   2.2220100  75.7532370  19.4799440   2.7596040  74.8903460  18.3582100
   1.7683000  76.6809130  25.7329900   2.0655330  77.5871960  25.6521920
   2.3168560  76.1927910  25.1189470   6.7519080  81.2658740  20.2012200
   6.1527970  81.9894540  20.0175820   7.2998690  81.2035520  19.4188650
   1.9620530  82.1580950  32.2681820   1.8664130  81.2175680  32.1182220
   2.8052510  82.3796020  31.8729890   5.3583950  79.9022280  22.2315480
   5.7513520  80.2194480  21.4184170   5.7200800  79.0234160  22.3460000
   3.6676120  78.6529590  33.4912340   2.9774440  78.4601790  34.1258430
   4.4108420  78.9364230  34.0236640   5.9439090  82.4928030  26.3266260
   5.2120210  83.0014840  26.6756360   5.5463430  81.6758010  26.0255040
   2.3816480  79.1682230  24.7318750   2.3852540  78.7272180  23.8823290
   3.2767600  79.4899560  24.8390570   2.4436630  80.1694310  17.7225510
   2.5649450  80.1280790  18.6711330   2.0585140  81.0318460  17.5672240
   6.4065000  77.9461710  25.7389200   6.4237740  78.3970360  26.5831050
   6.1580580  77.0467350  25.9522640   9.8335750  75.3593890  31.5775580
  10.1581520  74.6283550  32.1033560   9.8692260  75.0407530  30.6756570
   2.6824450  83.2284010  26.4784160   3.0494580  82.7542580  27.2245500
   2.4929510  84.1025580  26.8192500   9.7593590  85.4719000  25.1861610
  10.4792710  85.9674290  24.7957720   9.5575410  84.7936890  24.5415480
   5.2203530  76.8656960  19.3291000   4.4068140  76.3670130  19.2536310
   5.0265480  77.7055210  18.9127350   5.1412390  85.5428060  31.0730610
   5.0749700  84.6223730  30.8188200   4.5117530  85.6403500  31.7875250
   7.9351920  81.2376610  17.6253160   8.8231540  81.5493840  17.4504500
   7.9057010  80.3648860  17.2333740   3.9312510  87.4100300  18.3041330
   4.2728210  88.1542530  17.8084650   3.1025220  87.7231420  18.6666160
   5.0729120  88.3648630  30.8234410   5.0873660  87.4329590  30.6053320
   4.3654220  88.4508390  31.4624180  10.2066190  82.5488450  17.0933020
  10.1229910  82.9802670  16.2429460  10.9260380  83.0086800  17.5259840
  11.2840330  85.0055970  30.1702990  10.5588520  85.5984750  29.9732380
  11.8115790  84.9979510  29.3716360  11.2353440  89.4030710  19.8215150
  10.5929600  88.7486330  20.0958870  10.8484100  89.8085800  19.0455820
   6.8139920  86.7316140  23.6686840   7.1663740  86.1344270  23.0088210
   5.9302250  86.4060370  23.8395090   2.9003200  87.4913830  21.0757250
   3.5874330  88.0383040  21.4564840   2.1135620  88.0354560  21.1106860
   2.2030410  84.4959860  20.6882610   2.6593190  85.3065110  20.9142800
   1.8518620  84.1783000  21.5201100   4.5063020  90.0066200  27.9174910
   5.1505240  90.2125580  28.5948330   4.8692460  89.2454600  27.4645760
   5.7795100  88.0098550  26.6352360   6.4217330  87.3091710  26.7484530
   6.3044450  88.7896990  26.4549250   9.6250820  88.2947170  16.3591500
   9.3988400  87.5777610  16.9516140   9.2347020  88.0459610  15.5213250
   7.5532720  88.8093450  29.8388420   7.8888960  89.3960140  30.5166340
   6.6333060  88.6786160  30.0686210   9.2067070  86.2119110  18.0205660
   8.9188770  86.6731800  18.8083540  10.0019240  85.7516880  18.2889880
   3.3821300  88.8584780  33.0076480   3.0618170  88.1394020  33.5522170
   2.7079660  89.5339850  33.0812540   6.5974900  79.0910940  28.3713280
   6.9655720  78.2706150  28.6992850   5.7373100  79.1512830  28.7868930
   9.9636930  78.0467880  19.1800840   9.3350090  78.1513550  18.4659070
   9.4688850  78.2664660  19.9694720   4.4095070  89.7673470  16.6134820
   4.5107050  89.5637460  15.6836800   3.5096810  89.5131750  16.8182600
   3.5576890  81.7450530  28.5951250   4.0562140  82.2196350  29.2603100
   3.6999840  80.8214050  28.8021280   5.9636390  77.0504490  22.0354510
   5.8404170  77.0690620  21.0864020   6.9120950  77.0983430  22.1552910
  10.7643750  77.9618490  29.4379640  10.2617350  78.7023890  29.7773450
  11.5800410  78.3502490  29.1216430   9.0565760  83.2051670  22.8841000
   8.1155900  83.2201900  23.0588690   9.3709830  82.4187630  23.3301300
   6.3731780  87.7617670  33.3673380   5.7669940  87.7849270  32.6269130
   6.0685890  87.0300710  33.9040630   2.1588580  86.8625450  15.9180310
   2.0539220  86.2477800  16.6441690   1.9912800  86.3391340  15.1343320
   5.3991310  85.9245480  16.5222300   4.8501410  86.3714780  17.1665040
   6.0210570  85.4194730  17.0459970   9.4526250  87.2787580  32.4544560
  10.1935720  87.6163340  31.9512020   8.6898930  87.4479640  31.9014330
   3.5794070  83.9074010  15.6664700   4.0999730  83.1923030  15.3005850
   4.2262470  84.5459880  15.9665210   8.1271910  85.3302410  30.9899770
   8.5412930  85.4847490  31.8390190   7.1922910  85.4557630  31.1525550
   8.5994080  82.6698570  32.9938920   9.1814850  81.9150890  32.9059400
   8.7755850  83.2006010  32.2170400   2.4827590  76.3868560  28.3383260
   2.0344890  76.4092820  27.4928810   1.8492790  75.9887580  28.9353560
   2.8887140  85.2822890  28.9595700   3.3075250  86.1255620  28.7871940
   1.9695770  85.4194930  28.7302480   5.2251040  83.0139070  30.3433540
   5.3447250  82.4180210  31.0828380   6.0845040  83.0508760  29.9234840
   7.5638940  83.5676260  28.9196050   7.0374160  84.0918880  28.3161190
   7.9070280  84.2003650  29.5505780   6.8113240  79.1726230  31.8342380
   6.1228760  78.5107770  31.7692370   7.5319260  78.7264500  32.2790840
   7.4413640  75.7677860  17.8932640   7.7215930  74.9245760  18.2492060
   6.6679370  76.0000970  18.4071390  11.1236450  90.5189290  30.6632640
  10.5238440  90.5781850  29.9196560  11.2530350  89.5794270  30.7929490
  12.3637900  88.2607110  16.0002350  11.5330860  88.3283760  16.4709580
  12.5409730  89.1511230  15.6969210  11.8194360  85.0054590  18.5036550
  12.5813270  85.5751240  18.6096240  11.8348730  84.4381790  19.2744860
  12.8254330  85.8604690  23.3478480  13.1963160  85.0772010  22.9414450
  13.4656260  86.5493790  23.1695780   9.8088090  87.2441270  28.7608800
   8.9947930  87.6738430  29.0234590  10.2162290  87.8559680  28.1477850
  11.8713530  85.2988960  15.6609070  12.1462370  86.2067840  15.5328290
  11.6824270  85.2351490  16.5971060   8.2689140  78.3233810  16.9562700
   8.6874020  78.1364790  16.1159360   7.9625200  77.4712860  17.2665630
  11.7678870  83.2357950  20.6538500  11.3922470  82.4685880  20.2219790
  11.0381990  83.6180650  21.1413430  11.1578490  82.3829470  30.2878020
  10.9264580  82.1542220  29.3875970  11.4183040  83.3029020  30.2422910
   9.5966560  77.6085900  33.0657720  10.4736740  77.6169300  33.4491720
   9.6087400  76.8716740  32.4550070  11.0429830  81.4615440  23.9545740
  11.5667310  80.9678090  23.3235910  11.6289250  81.5965800  24.6993310
  11.2219550  81.5455310  27.4765290  10.2722260  81.5118850  27.5910280
  11.4032560  82.4555420  27.2415060  10.5329800  80.7188790  19.8938150
  11.0288920  80.4859660  20.6787030  10.3345870  79.8800630  19.4775790
  11.9616960  79.3549740  22.4275830  11.8516240  79.2005780  23.3658100
  12.7224550  78.8270680  22.1851240  10.3082680  75.2943870  28.8858830
  10.9454900  75.9078010  29.2518020  10.4557570  75.3304530  27.9408060
  12.8507230  77.1857660  15.6681970  13.7756540  77.0538840  15.4600260
  12.8283020  77.2650480  16.6218420  12.9245720  77.9568320  18.2938680
  12.1297220  77.8913440  18.8231590  13.1289000  78.8918960  18.2824030
   3.6787160  76.4470060  31.7933930   3.6176050  77.0391890  32.5429340
   4.6187540  76.3396020  31.6484190   6.3161720  76.1040120  31.4326220
   6.9302130  76.4219410  30.7707300   6.8611280  75.6188710  32.0522080
   7.0569760  74.6672260  27.7595510   6.1829600  75.0007370  27.5568440
   6.9480510  74.1945440  28.5847380   7.9641740  76.8743130  29.1437230
   7.6355100  76.0594890  28.7638960   8.9124040  76.8312940  29.0202920
   4.8044580  75.5842100  26.6988420   4.0216370  76.0587600  26.9785180
   4.5107510  74.6796930  26.5901600   9.3565650  76.2865200  24.7437510
   9.7973740  76.2310300  23.8959110   9.0873240  77.2023210  24.8147690
  11.2204220  75.9180440  22.7546330  11.1592620  74.9741660  22.6077350
  11.9996250  76.0260530  23.2999790   2.6898800  78.0028850  22.2104450
   1.8773310  77.6285740  21.8700330   3.1940440  77.2473930  22.5125640
   7.1923780  74.6671300  23.4487520   7.7953150  75.2391510  23.9236040
   6.4516770  75.2310740  23.2261420  10.3358380  75.0692860  18.7227800
  10.5309010  75.9676310  18.9895230   9.5488250  74.8379940  19.2160750
   7.4419000  74.8466330  33.8282460   7.3284450  75.1660940  34.7233980
   8.2588740  75.2478840  33.5319740   6.3477150  82.8658800   4.1917200
   6.2671200  81.9513410   3.9208910   5.9341570  83.3625870   3.4856910
   4.4795190  84.6437820   6.0726470   3.7037290  84.1638260   6.3625040
   5.1308120  83.9643470   5.8982630   8.5002620  89.0498010   4.8525600
   8.0384150  88.2785250   5.1812770   9.3128170  89.0764080   5.3578050
   3.9204180  87.3195010   6.0796630   3.8512460  86.3784950   5.9185760
   4.6824040  87.4096420   6.6519200   4.9509350  80.1265390   6.3065560
   5.3274170  79.2537270   6.1939230   4.8528860  80.4624090   5.4156000
   8.7333470  77.6215830   3.2393900   9.5543090  77.1312400   3.2819380
   8.7667550  78.2113490   3.9925740  13.0233020  79.6382580   9.8037530
  12.3185190  80.0264290   9.2852640  13.2890940  80.3332870  10.4058460
   8.9694950  79.5616210   6.0121440   8.2650520  79.8501100   6.5924550
   9.3307110  80.3716320   5.6521000  10.5857730  89.1791340   8.2748920
   9.9021250  89.8490450   8.2665590  11.1252020  89.3771990   7.5093780
  12.0381870  79.0071000   6.4030650  11.0906780  79.0409980   6.5346080
  12.3631860  79.8209950   6.7880010   9.4161890  87.7451690   2.0784270
   9.3058220  86.8026020   2.2033690   9.4130140  88.1067330   2.9647030
   7.5201910  85.9265310   8.3176710   7.9370700  85.7125420   7.4830170
   8.2441730  86.1838100   8.8885330  11.4664010  84.3252530   8.4092950
  10.6382640  84.3945620   7.9343080  12.0614490  84.9106840   7.9408780
   8.4306020  81.1121850   9.3547820   8.0177200  81.9375560   9.6087810
   7.6981970  80.5266890   9.1624180   5.2739540  89.1120190   2.9136000
   5.7135450  89.8544520   2.4991390   5.2126430  89.3546760   3.8374960
  12.1038580  88.1105970  12.2720200  12.2301640  87.8717850  11.3537380
  12.1459960  87.2790510  12.7442280  11.9562590  80.1638430  13.2369940
  11.3406860  80.6718100  12.7085400  11.6359010  79.2636760  13.1795880
   4.0176910  79.0030320  10.7032130   3.5556280  79.2113340  11.5152070
   3.6155020  78.1889670  10.4002800   9.0181420  80.2239270  11.8328790
   8.1675010  79.9245020  12.1537860   8.8583210  80.4681280  10.9212610
   6.1131130  81.7241020  13.9327580   6.4384540  80.8904770  13.5929810
   6.9011460  82.2469540  14.0805910   1.7683000  76.6809130   6.9586410
   2.0655330  77.5871960   6.8778430   2.3168560  76.1927910   6.3445980
   1.9620530  82.1580950  13.4938330   1.8664130  81.2175680  13.3438730
   2.8052510  82.3796020  13.0986400   5.3583950  79.9022280   3.4571990
   5.7513520  80.2194480   2.6440680   5.7200800  79.0234160   3.5716510
   3.6676120  78.6529590  14.7168850   2.9774440  78.4601790  15.3514940
   4.4108420  78.9364230  15.2493150   5.9439090  82.4928030   7.5522770
   5.2120210  83.0014840   7.9012870   5.5463430  81.6758010   7.2511550
   2.3816480  79.1682230   5.9575260   2.3852540  78.7272180   5.1079800
   3.2767600  79.4899560   6.0647080   6.4065000  77.9461710   6.9645710
   6.4237740  78.3970360   7.8087560   6.1580580  77.0467350   7.1779150
   9.8335750  75.3593890  12.8032090  10.1581520  74.6283550  13.3290070
   9.8692260  75.0407530  11.9013080   2.6824450  83.2284010   7.7040670
   3.0494580  82.7542580   8.4502010   2.4929510  84.1025580   8.0449010
   9.7593590  85.4719000   6.4118120  10.4792710  85.9674290   6.0214230
   9.5575410  84.7936890   5.7671990   5.1412390  85.5428060  12.2987120
   5.0749700  84.6223730  12.0444710   4.5117530  85.6403500  13.0131760
   5.0729120  88.3648630  12.0490920   5.0873660  87.4329590  11.8309830
   4.3654220  88.4508390  12.6880690  11.2840330  85.0055970  11.3959500
  10.5588520  85.5984750  11.1988890  11.8115790  84.9979510  10.5972870
   6.8139920  86.7316140   4.8943350   7.1663740  86.1344270   4.2344720
   5.9302250  86.4060370   5.0651600   2.9003200  87.4913830   2.3013760
   3.5874330  88.0383040   2.6821350   2.1135620  88.0354560   2.3363370
   2.2030410  84.4959860   1.9139120   2.6593190  85.3065110   2.1399310
   1.8518620  84.1783000   2.7457610   4.5063020  90.0066200   9.1431420
   5.1505240  90.2125580   9.8204840   4.8692460  89.2454600   8.6902270
   5.7795100  88.0098550   7.8608870   6.4217330  87.3091710   7.9741040
   6.3044450  88.7896990   7.6805760   7.5532720  88.8093450  11.0644930
   7.8888960  89.3960140  11.7422850   6.6333060  88.6786160  11.2942720
   3.3821300  88.8584780  14.2332990   3.0618170  88.1394020  14.7778680
   2.7079660  89.5339850  14.3069050   6.5974900  79.0910940   9.5969790
   6.9655720  78.2706150   9.9249360   5.7373100  79.1512830  10.0125440
   3.5576890  81.7450530   9.8207760   4.0562140  82.2196350  10.4859610
   3.6999840  80.8214050  10.0277790   5.9636390  77.0504490   3.2611020
   5.8404170  77.0690620   2.3120530   6.9120950  77.0983430   3.3809420
  10.7643750  77.9618490  10.6636150  10.2617350  78.7023890  11.0029960
  11.5800410  78.3502490  10.3472940   9.0565760  83.2051670   4.1097510
   8.1155900  83.2201900   4.2845200   9.3709830  82.4187630   4.5557810
   6.3731780  87.7617670  14.5929890   5.7669940  87.7849270  13.8525640
   6.0685890  87.0300710  15.1297140   9.4526250  87.2787580  13.6801070
  10.1935720  87.6163340  13.1768530   8.6898930  87.4479640  13.1270840
   8.1271910  85.3302410  12.2156280   8.5412930  85.4847490  13.0646700
   7.1922910  85.4557630  12.3782060   8.5994080  82.6698570  14.2195430
   9.1814850  81.9150890  14.1315910   8.7755850  83.2006010  13.4426910
   2.4827590  76.3868560   9.5639770   2.0344890  76.4092820   8.7185320
   1.8492790  75.9887580  10.1610070   2.8887140  85.2822890  10.1852210
   3.3075250  86.1255620  10.0128450   1.9695770  85.4194930   9.9558990
   5.2251040  83.0139070  11.5690050   5.3447250  82.4180210  12.3084890
   6.0845040  83.0508760  11.1491350   7.5638940  83.5676260  10.1452560
   7.0374160  84.0918880   9.5417700   7.9070280  84.2003650  10.7762290
   6.8113240  79.1726230  13.0598890   6.1228760  78.5107770  12.9948880
   7.5319260  78.7264500  13.5047350  11.1236450  90.5189290  11.8889150
  10.5238440  90.5781850  11.1453070  11.2530350  89.5794270  12.0186000
  12.8254330  85.8604690   4.5734990  13.1963160  85.0772010   4.1670960
  13.4656260  86.5493790   4.3952290   9.8088090  87.2441270   9.9865310
   8.9947930  87.6738430  10.2491100  10.2162290  87.8559680   9.3734360
  11.7678870  83.2357950   1.8795010  11.3922470  82.4685880   1.4476300
  11.0381990  83.6180650   2.3669940  11.1578490  82.3829470  11.5134530
  10.9264580  82.1542220  10.6132480  11.4183040  83.3029020  11.4679420
   9.5966560  77.6085900  14.2914230  10.4736740  77.6169300  14.6748230
   9.6087400  76.8716740  13.6806580  11.0429830  81.4615440   5.1802250
  11.5667310  80.9678090   4.5492420  11.6289250  81.5965800   5.9249820
  11.2219550  81.5455310   8.7021800  10.2722260  81.5118850   8.8166790
  11.4032560  82.4555420   8.4671570  11.9616960  79.3549740   3.6532340
  11.8516240  79.2005780   4.5914610  12.7224550  78.8270680   3.4107750
  10.3082680  75.2943870  10.1115340  10.9454900  75.9078010  10.4774530
  10.4557570  75.3304530   9.1664570   3.6787160  76.4470060  13.0190440
   3.6176050  77.0391890  13.7685850   4.6187540  76.3396020  12.8740700
   6.3161720  76.1040120  12.6582730   6.9302130  76.4219410  11.9963810
   6.8611280  75.6188710  13.2778590   7.0569760  74.6672260   8.9852020
   6.1829600  75.0007370   8.7824950   6.9480510  74.1945440   9.8103890
   7.9641740  76.8743130  10.3693740   7.6355100  76.0594890   9.9895470
   8.9124040  76.8312940  10.2459430   4.8044580  75.5842100   7.9244930
   4.0216370  76.0587600   8.2041690   4.5107510  74.6796930   7.8158110
   9.3565650  76.2865200   5.9694020   9.7973740  76.2310300   5.1215620
   9.0873240  77.2023210   6.0404200  11.2204220  75.9180440   3.9802840
  11.1592620  74.9741660   3.8333860  11.9996250  76.0260530   4.5256300
   2.6898800  78.0028850   3.4360960   1.8773310  77.6285740   3.0956840
   3.1940440  77.2473930   3.7382150   7.1923780  74.6671300   4.6744030
   7.7953150  75.2391510   5.1492550   6.4516770  75.2310740   4.4517930
   7.4419000  74.8466330  15.0538970   7.3284450  75.1660940  15.9490490
   8.2588740  75.2478840  14.7576250   6.3477150  64.0915310  60.5147670
   6.2671200  63.1769920  60.2439380   5.9341570  64.5882380  59.8087380
   4.4795190  65.8694330  62.3956940   3.7037290  65.3894770  62.6855510
   5.1308120  65.1899980  62.2213100   8.5002620  70.2754520  61.1756070
   8.0384150  69.5041760  61.5043240   9.3128170  70.3020590  61.6808520
   4.7265930  72.5612530  60.7960060   4.1077370  73.0170030  60.2254500
   5.5817710  72.7163990  60.3949760   3.9204180  68.5451520  62.4027100
   3.8512460  67.6041460  62.2416230   4.6824040  68.6352930  62.9749670
   4.9509350  61.3521900  62.6296030   5.3274170  60.4793780  62.5169700
   4.8528860  61.6880600  61.7386470   8.7333470  58.8472340  59.5624370
   9.5543090  58.3568910  59.6049850   8.7667550  59.4370000  60.3156210
   5.5929280  67.4451770  58.1891970   4.9746550  67.9101220  57.6254690
   6.1052530  68.1379250  58.6061480   8.9694950  60.7872720  62.3351910
   8.2650520  61.0757610  62.9155020   9.3307110  61.5972830  61.9751470
  10.5857730  70.4047850  64.5979390   9.9021250  71.0746960  64.5896060
  11.1252020  70.6028500  63.8324250  12.0381870  60.2327510  62.7261120
  11.0906780  60.2666490  62.8576550  12.3631860  61.0466460  63.1110480
   8.1216470  72.2491980  63.3124570   8.1343630  71.8454270  62.4446830
   7.5691690  73.0239270  63.2086000   9.4161890  68.9708200  58.4014740
   9.3058220  68.0282530  58.5264160   9.4130140  69.3323840  59.2877500
   7.5201910  67.1521820  64.6407180   7.9370700  66.9381930  63.8060640
   8.2441730  67.4094610  65.2115800   4.9582170  64.5973520  57.7577230
   4.0311450  64.5310900  57.9865700   5.1106990  65.5353650  57.6432470
   4.9451250  60.8690520  54.7544390   4.0054920  61.0304480  54.8396850
   5.2634510  61.5876200  54.2080380  11.4664010  65.5509040  64.7323420
  10.6382640  65.6202130  64.2573550  12.0614490  66.1363350  64.2639250
   8.9879460  66.1593820  58.2612480   8.3691880  65.8213370  57.6138780
   8.9703910  65.5153580  58.9691670   8.4306020  62.3378360  65.6778290
   8.0177200  63.1632070  65.9318280   7.6981970  61.7523400  65.4854650
   9.1206120  72.3837690  66.3659270   8.6436680  73.1909880  66.1731880
   8.4367910  71.7316020  66.5185480   7.1644160  65.3980630  55.2685230
   7.6037440  64.5603060  55.1223050   7.8772580  66.0310030  55.3549370
   5.2739540  70.3376700  59.2366470   5.7135450  71.0801030  58.8221860
   5.2126430  70.5803270  60.1605430  10.7461300  56.6523440  53.5826270
  10.4333960  56.7450270  54.4825340  11.5073770  57.2304470  53.5323700
   7.9409720  73.3245820  56.5929480   7.7810860  73.0348760  57.4911310
   7.7756430  72.5485950  56.0574710   7.6435850  70.8333380  55.1527480
   6.9501010  70.8310670  54.4929760   8.3858710  70.4092700  54.7221650
   7.2085780  72.4596090  59.2275970   7.6642730  71.6785470  59.5414590
   7.5478300  73.1702910  59.7717150   2.8465920  56.9829010  56.3033110
   2.2220100  56.9788880  57.0286420   2.7596040  56.1159970  55.9069080
   1.7683000  57.9065640  63.2816880   2.0655330  58.8128470  63.2008900
   2.3168560  57.4184420  62.6676450   6.7519080  62.4915250  57.7499180
   6.1527970  63.2151050  57.5662800   7.2998690  62.4292030  56.9675630
   5.3583950  61.1278790  59.7802460   5.7513520  61.4450990  58.9671150
   5.7200800  60.2490670  59.8946980   5.9439090  63.7184540  63.8753240
   5.2120210  64.2271350  64.2243340   5.5463430  62.9014520  63.5742020
   2.3816480  60.3938740  62.2805730   2.3852540  59.9528690  61.4310270
   3.2767600  60.7156070  62.3877550   2.4436630  61.3950820  55.2712490
   2.5649450  61.3537300  56.2198310   2.0585140  62.2574970  55.1159220
   6.4065000  59.1718220  63.2876180   6.4237740  59.6226870  64.1318030
   6.1580580  58.2723860  63.5009620   2.6824450  64.4540520  64.0271140
   3.0494580  63.9799090  64.7732480   2.4929510  65.3282090  64.3679480
   9.7593590  66.6975510  62.7348590  10.4792710  67.1930800  62.3444700
   9.5575410  66.0193400  62.0902460   5.2203530  58.0913470  56.8777980
   4.4068140  57.5926640  56.8023290   5.0265480  58.9311720  56.4614330
   7.9351920  62.4633120  55.1740140   8.8231540  62.7750350  54.9991480
   7.9057010  61.5905370  54.7820720   3.9312510  68.6356810  55.8528310
   4.2728210  69.3799040  55.3571630   3.1025220  68.9487930  56.2153140
  10.2066190  63.7744960  54.6420000  10.1229910  64.2059180  53.7916440
  10.9260380  64.2343310  55.0746820  11.2353440  70.6287220  57.3702130
  10.5929600  69.9742840  57.6445850  10.8484100  71.0342310  56.5942800
   6.8139920  67.9572650  61.2173820   7.1663740  67.3600780  60.5575190
   5.9302250  67.6316880  61.3882070   2.9003200  68.7170340  58.6244230
   3.5874330  69.2639550  59.0051820   2.1135620  69.2611070  58.6593840
   2.2030410  65.7216370  58.2369590   2.6593190  66.5321620  58.4629780
   1.8518620  65.4039510  59.0688080   4.5063020  71.2322710  65.4661890
   5.1505240  71.4382090  66.1435310   4.8692460  70.4711110  65.0132740
   5.7795100  69.2355060  64.1839340   6.4217330  68.5348220  64.2971510
   6.3044450  70.0153500  64.0036230   9.6250820  69.5203680  53.9078480
   9.3988400  68.8034120  54.5003120   9.2347020  69.2716120  53.0700230
   9.2067070  67.4375620  55.5692640   8.9188770  67.8988310  56.3570520
  10.0019240  66.9773390  55.8376860   6.5974900  60.3167450  65.9200260
   6.9655720  59.4962660  66.2479830   5.7373100  60.3769340  66.3355910
   9.9636930  59.2724390  56.7287820   9.3350090  59.3770060  56.0146050
   9.4688850  59.4921170  57.5181700   4.4095070  70.9929980  54.1621800
   4.5107050  70.7893970  53.2323780   3.5096810  70.7388260  54.3669580
   5.9636390  58.2761000  59.5841490   5.8404170  58.2947130  58.6351000
   6.9120950  58.3239940  59.7039890   3.0513180  73.5116300  58.8569470
   3.3054680  73.4737690  57.9348840   2.1025660  73.3849630  58.8497720
   9.0565760  64.4308180  60.4327980   8.1155900  64.4458410  60.6075670
   9.3709830  63.6444140  60.8788280  11.0591340  71.6017030  62.1082240
  11.1838760  72.4248200  62.5806050  11.9256900  71.3907760  61.7606390
  10.6941350  72.0948680  55.0261680  10.4082860  71.6813820  54.2115860
  10.4960900  73.0236390  54.9062200   2.1588580  68.0881960  53.4667290
   2.0539220  67.4734310  54.1928670   1.9912800  67.5647850  52.6830300
   5.3991310  67.1501990  54.0709280   4.8501410  67.5971290  54.7152020
   6.0210570  66.6451240  54.5946950   3.5794070  65.1330520  53.2151680
   4.0999730  64.4179540  52.8492830   4.2262470  65.7716390  53.5152190
   2.4827590  57.6125070  65.8870240   2.0344890  57.6349330  65.0415790
   1.8492790  57.2144090  66.4840540   2.8887140  66.5079400  66.5082680
   3.3075250  67.3512130  66.3358920   1.9695770  66.6451440  66.2789460
   7.4413640  56.9934370  55.4419620   7.7215930  56.1502270  55.7979040
   6.6679370  57.2257480  55.9558370   4.1442100  73.2142130  55.5053420
   5.0392890  73.5527100  55.5272180   4.1759730  72.4921540  54.8777700
  12.3637900  69.4863620  53.5489330  11.5330860  69.5540270  54.0196560
  12.5409730  70.3767740  53.2456190  11.8194360  66.2311100  56.0523530
  12.5813270  66.8007750  56.1583220  11.8348730  65.6638300  56.8231840
  12.8254330  67.0861200  60.8965460  13.1963160  66.3028520  60.4901430
  13.4656260  67.7750300  60.7182760  11.8713530  66.5245470  53.2096050
  12.1462370  67.4324350  53.0815270  11.6824270  66.4608000  54.1458040
   8.2689140  59.5490320  54.5049680   8.6874020  59.3621300  53.6646340
   7.9625200  58.6969370  54.8152610  11.7678870  64.4614460  58.2025480
  11.3922470  63.6942390  57.7706770  11.0381990  64.8437160  58.6900410
  11.0429830  62.6871950  61.5032720  11.5667310  62.1934600  60.8722890
  11.6289250  62.8222310  62.2480290  11.2219550  62.7711820  65.0252270
  10.2722260  62.7375360  65.1397260  11.4032560  63.6811930  64.7902040
  10.5329800  61.9445300  57.4425130  11.0288920  61.7116170  58.2274010
  10.3345870  61.1057140  57.0262770  11.9616960  60.5806250  59.9762810
  11.8516240  60.4262290  60.9145080  12.7224550  60.0527190  59.7338220
  12.8507230  58.4114170  53.2168950  13.7756540  58.2795350  53.0087240
  12.8283020  58.4906990  54.1705400  12.9245720  59.1824830  55.8425660
  12.1297220  59.1169950  56.3718570  13.1289000  60.1175470  55.8311010
   9.8664140  73.2216380  59.8364050  10.4623210  72.9000950  59.1598470
  10.1242290  72.7488200  60.6277320   7.0569760  55.8928770  65.3082490
   6.1829600  56.2263880  65.1055420   6.9480510  55.4201950  66.1334360
  10.4176350  73.8711680  63.6661780   9.9579320  74.6227490  63.2919800
   9.7888810  73.1518150  63.6076580   3.5867570  73.0708410  63.6678890
   3.8745380  72.8162710  62.7911900   4.0990790  72.5185770  64.2584460
   4.8044580  56.8098610  64.2475400   4.0216370  57.2844110  64.5272160
   4.5107510  55.9053440  64.1388580   9.3565650  57.5121710  62.2924490
   9.7973740  57.4566810  61.4446090   9.0873240  58.4279720  62.3634670
  11.2204220  57.1436950  60.3033310  11.1592620  56.1998170  60.1564330
  11.9996250  57.2517040  60.8486770   2.6898800  59.2285360  59.7591430
   1.8773310  58.8542250  59.4187310   3.1940440  58.4730440  60.0612620
   7.1923780  55.8927810  60.9974500   7.7953150  56.4648020  61.4723020
   6.4516770  56.4567250  60.7748400  10.3358380  56.2949370  56.2714780
  10.5309010  57.1932820  56.5382210   9.5488250  56.0636450  56.7647730
  11.8884990  73.5350080  58.0321340  12.0637180  72.8487820  57.3882260
  11.1906560  74.0597130  57.6398010   6.3477150  64.0915310  41.7404180
   6.2671200  63.1769920  41.4695890   5.9341570  64.5882380  41.0343890
   4.4795190  65.8694330  43.6213450   3.7037290  65.3894770  43.9112020
   5.1308120  65.1899980  43.4469610   8.5002620  70.2754520  42.4012580
   8.0384150  69.5041760  42.7299750   9.3128170  70.3020590  42.9065030
   4.7265930  72.5612530  42.0216570   4.1077370  73.0170030  41.4511010
   5.5817710  72.7163990  41.6206270   3.9204180  68.5451520  43.6283610
   3.8512460  67.6041460  43.4672740   4.6824040  68.6352930  44.2006180
   4.9509350  61.3521900  43.8552540   5.3274170  60.4793780  43.7426210
   4.8528860  61.6880600  42.9642980   8.7333470  58.8472340  40.7880880
   9.5543090  58.3568910  40.8306360   8.7667550  59.4370000  41.5412720
  13.0233020  60.8639090  47.3524510  12.3185190  61.2520800  46.8339620
  13.2890940  61.5589380  47.9545440   5.5929280  67.4451770  39.4148480
   4.9746550  67.9101220  38.8511200   6.1052530  68.1379250  39.8317990
   8.9694950  60.7872720  43.5608420   8.2650520  61.0757610  44.1411530
   9.3307110  61.5972830  43.2007980  10.5857730  70.4047850  45.8235900
   9.9021250  71.0746960  45.8152570  11.1252020  70.6028500  45.0580760
  12.0381870  60.2327510  43.9517630  11.0906780  60.2666490  44.0833060
  12.3631860  61.0466460  44.3366990   8.1216470  72.2491980  44.5381080
   8.1343630  71.8454270  43.6703340   7.5691690  73.0239270  44.4342510
   9.4161890  68.9708200  39.6271250   9.3058220  68.0282530  39.7520670
   9.4130140  69.3323840  40.5134010   7.5201910  67.1521820  45.8663690
   7.9370700  66.9381930  45.0317150   8.2441730  67.4094610  46.4372310
   4.9582170  64.5973520  38.9833740   4.0311450  64.5310900  39.2122210
   5.1106990  65.5353650  38.8688980   4.9451250  60.8690520  35.9800900
   4.0054920  61.0304480  36.0653360   5.2634510  61.5876200  35.4336890
  11.4664010  65.5509040  45.9579930  10.6382640  65.6202130  45.4830060
  12.0614490  66.1363350  45.4895760   8.9879460  66.1593820  39.4868990
   8.3691880  65.8213370  38.8395290   8.9703910  65.5153580  40.1948180
   8.4306020  62.3378360  46.9034800   8.0177200  63.1632070  47.1574790
   7.6981970  61.7523400  46.7111160   9.1206120  72.3837690  47.5915780
   8.6436680  73.1909880  47.3988390   8.4367910  71.7316020  47.7441990
   7.1644160  65.3980630  36.4941740   7.6037440  64.5603060  36.3479560
   7.8772580  66.0310030  36.5805880   5.2739540  70.3376700  40.4622980
   5.7135450  71.0801030  40.0478370   5.2126430  70.5803270  41.3861940
  10.7461300  56.6523440  34.8082780  10.4333960  56.7450270  35.7081850
  11.5073770  57.2304470  34.7580210  12.7005330  72.1449630  52.6607170
  13.1765050  72.6232520  53.3396250  13.3212490  72.0767120  51.9352670
  12.1038580  69.3362480  49.8207180  12.2301640  69.0974360  48.9024360
  12.1459960  68.5047020  50.2929260   5.9655320  73.0390480  48.3901990
   6.4799990  72.9498490  49.1924420   5.1224400  73.3850180  48.6829900
   7.9409720  73.3245820  37.8185990   7.7810860  73.0348760  38.7167820
   7.7756430  72.5485950  37.2831220   7.6435850  70.8333380  36.3783990
   6.9501010  70.8310670  35.7186270   8.3858710  70.4092700  35.9478160
   7.2085780  72.4596090  40.4532480   7.6642730  71.6785470  40.7671100
   7.5478300  73.1702910  40.9973660  11.9562590  61.3894940  50.7856920
  11.3406860  61.8974610  50.2572380  11.6359010  60.4893270  50.7282860
   4.0176910  60.2286830  48.2519110   3.5556280  60.4369850  49.0639050
   3.6155020  59.4146180  47.9489780   9.0181420  61.4495780  49.3815770
   8.1675010  61.1501530  49.7024840   8.8583210  61.6937790  48.4699590
   6.1131130  62.9497530  51.4814560   6.4384540  62.1161280  51.1416790
   6.9011460  63.4726050  51.6292890   2.8465920  56.9829010  37.5289620
   2.2220100  56.9788880  38.2542930   2.7596040  56.1159970  37.1325590
   1.7683000  57.9065640  44.5073390   2.0655330  58.8128470  44.4265410
   2.3168560  57.4184420  43.8932960   6.7519080  62.4915250  38.9755690
   6.1527970  63.2151050  38.7919310   7.2998690  62.4292030  38.1932140
   1.9620530  63.3837460  51.0425310   1.8664130  62.4432190  50.8925710
   2.8052510  63.6052530  50.6473380   5.3583950  61.1278790  41.0058970
   5.7513520  61.4450990  40.1927660   5.7200800  60.2490670  41.1203490
   3.6676120  59.8786100  52.2655830   2.9774440  59.6858300  52.9001920
   4.4108420  60.1620740  52.7980130   5.9439090  63.7184540  45.1009750
   5.2120210  64.2271350  45.4499850   5.5463430  62.9014520  44.7998530
   2.3816480  60.3938740  43.5062240   2.3852540  59.9528690  42.6566780
   3.2767600  60.7156070  43.6134060   2.4436630  61.3950820  36.4969000
   2.5649450  61.3537300  37.4454820   2.0585140  62.2574970  36.3415730
   6.4065000  59.1718220  44.5132690   6.4237740  59.6226870  45.3574540
   6.1580580  58.2723860  44.7266130   9.8335750  56.5850400  50.3519070
  10.1581520  55.8540060  50.8777050   9.8692260  56.2664040  49.4500060
   2.6824450  64.4540520  45.2527650   3.0494580  63.9799090  45.9988990
   2.4929510  65.3282090  45.5935990   9.7593590  66.6975510  43.9605100
  10.4792710  67.1930800  43.5701210   9.5575410  66.0193400  43.3158970
   5.2203530  58.0913470  38.1034490   4.4068140  57.5926640  38.0279800
   5.0265480  58.9311720  37.6870840   5.1412390  66.7684570  49.8474100
   5.0749700  65.8480240  49.5931690   4.5117530  66.8660010  50.5618740
   7.9351920  62.4633120  36.3996650   8.8231540  62.7750350  36.2247990
   7.9057010  61.5905370  36.0077230   3.9312510  68.6356810  37.0784820
   4.2728210  69.3799040  36.5828140   3.1025220  68.9487930  37.4409650
   5.0729120  69.5905140  49.5977900   5.0873660  68.6586100  49.3796810
   4.3654220  69.6764900  50.2367670  10.2066190  63.7744960  35.8676510
  10.1229910  64.2059180  35.0172950  10.9260380  64.2343310  36.3003330
  11.2840330  66.2312480  48.9446480  10.5588520  66.8241260  48.7475870
  11.8115790  66.2236020  48.1459850  11.2353440  70.6287220  38.5958640
  10.5929600  69.9742840  38.8702360  10.8484100  71.0342310  37.8199310
   6.8139920  67.9572650  42.4430330   7.1663740  67.3600780  41.7831700
   5.9302250  67.6316880  42.6138580   2.9003200  68.7170340  39.8500740
   3.5874330  69.2639550  40.2308330   2.1135620  69.2611070  39.8850350
   2.2030410  65.7216370  39.4626100   2.6593190  66.5321620  39.6886290
   1.8518620  65.4039510  40.2944590   4.5063020  71.2322710  46.6918400
   5.1505240  71.4382090  47.3691820   4.8692460  70.4711110  46.2389250
   5.7795100  69.2355060  45.4095850   6.4217330  68.5348220  45.5228020
   6.3044450  70.0153500  45.2292740   9.6250820  69.5203680  35.1334990
   9.3988400  68.8034120  35.7259630   9.2347020  69.2716120  34.2956740
   7.5532720  70.0349960  48.6131910   7.8888960  70.6216650  49.2909830
   6.6333060  69.9042670  48.8429700   9.2067070  67.4375620  36.7949150
   8.9188770  67.8988310  37.5827030  10.0019240  66.9773390  37.0633370
   3.3821300  70.0841290  51.7819970   3.0618170  69.3650530  52.3265660
   2.7079660  70.7596360  51.8556030   6.5974900  60.3167450  47.1456770
   6.9655720  59.4962660  47.4736340   5.7373100  60.3769340  47.5612420
   9.9636930  59.2724390  37.9544330   9.3350090  59.3770060  37.2402560
   9.4688850  59.4921170  38.7438210   4.4095070  70.9929980  35.3878310
   4.5107050  70.7893970  34.4580290   3.5096810  70.7388260  35.5926090
   3.5576890  62.9707040  47.3694740   4.0562140  63.4452860  48.0346590
   3.6999840  62.0470560  47.5764770   5.9636390  58.2761000  40.8098000
   5.8404170  58.2947130  39.8607510   6.9120950  58.3239940  40.9296400
   3.0513180  73.5116300  40.0825980   3.3054680  73.4737690  39.1605350
   2.1025660  73.3849630  40.0754230  10.7643750  59.1875000  48.2123130
  10.2617350  59.9280400  48.5516940  11.5800410  59.5759000  47.8959920
   9.0565760  64.4308180  41.6584490   8.1155900  64.4458410  41.8332180
   9.3709830  63.6444140  42.1044790  11.0591340  71.6017030  43.3338750
  11.1838760  72.4248200  43.8062560  11.9256900  71.3907760  42.9862900
   6.3731780  68.9874180  52.1416870   5.7669940  69.0105780  51.4012620
   6.0685890  68.2557220  52.6784120   7.8032150  72.7154470  50.7526280
   8.7553900  72.6312490  50.7026520   7.6560370  73.3796180  51.4260070
  10.6941350  72.0948680  36.2518190  10.4082860  71.6813820  35.4372370
  10.4960900  73.0236390  36.1318710   2.1588580  68.0881960  34.6923800
   2.0539220  67.4734310  35.4185180   1.9912800  67.5647850  33.9086810
   5.3991310  67.1501990  35.2965790   4.8501410  67.5971290  35.9408530
   6.0210570  66.6451240  35.8203460   9.4526250  68.5044090  51.2288050
  10.1935720  68.8419850  50.7255510   8.6898930  68.6736150  50.6757820
   3.5794070  65.1330520  34.4408190   4.0999730  64.4179540  34.0749340
   4.2262470  65.7716390  34.7408700   8.1271910  66.5558920  49.7643260
   8.5412930  66.7104000  50.6133680   7.1922910  66.6814140  49.9269040
   8.5994080  63.8955080  51.7682410   9.1814850  63.1407400  51.6802890
   8.7755850  64.4262520  50.9913890   2.4827590  57.6125070  47.1126750
   2.0344890  57.6349330  46.2672300   1.8492790  57.2144090  47.7097050
   2.8887140  66.5079400  47.7339190   3.3075250  67.3512130  47.5615430
   1.9695770  66.6451440  47.5045970   5.2251040  64.2395580  49.1177030
   5.3447250  63.6436720  49.8571870   6.0845040  64.2765270  48.6978330
   7.5638940  64.7932770  47.6939540   7.0374160  65.3175390  47.0904680
   7.9070280  65.4260160  48.3249270   6.8113240  60.3982740  50.6085870
   6.1228760  59.7364280  50.5435860   7.5319260  59.9521010  51.0534330
   7.4413640  56.9934370  36.6676130   7.7215930  56.1502270  37.0235550
   6.6679370  57.2257480  37.1814880   3.5956770  74.0483620  49.1083570
   3.5215470  74.9518760  49.4155940   2.6935610  73.7295520  49.0805640
   4.1442100  73.2142130  36.7309930   5.0392890  73.5527100  36.7528690
   4.1759730  72.4921540  36.1034210  11.1236450  71.7445800  49.4376130
  10.5238440  71.8038360  48.6940050  11.2530350  70.8050780  49.5672980
  12.3637900  69.4863620  34.7745840  11.5330860  69.5540270  35.2453070
  12.5409730  70.3767740  34.4712700  11.8194360  66.2311100  37.2780040
  12.5813270  66.8007750  37.3839730  11.8348730  65.6638300  38.0488350
  12.8254330  67.0861200  42.1221970  13.1963160  66.3028520  41.7157940
  13.4656260  67.7750300  41.9439270   9.8088090  68.4697780  47.5352290
   8.9947930  68.8994940  47.7978080  10.2162290  69.0816190  46.9221340
  11.8713530  66.5245470  34.4352560  12.1462370  67.4324350  34.3071780
  11.6824270  66.4608000  35.3714550   8.2689140  59.5490320  35.7306190
   8.6874020  59.3621300  34.8902850   7.9625200  58.6969370  36.0409120
  11.7678870  64.4614460  39.4281990  11.3922470  63.6942390  38.9963280
  11.0381990  64.8437160  39.9156920  11.1578490  63.6085980  49.0621510
  10.9264580  63.3798730  48.1619460  11.4183040  64.5285530  49.0166400
   9.5966560  58.8342410  51.8401210  10.4736740  58.8425810  52.2235210
   9.6087400  58.0973250  51.2293560  11.0429830  62.6871950  42.7289230
  11.5667310  62.1934600  42.0979400  11.6289250  62.8222310  43.4736800
  11.2219550  62.7711820  46.2508780  10.2722260  62.7375360  46.3653770
  11.4032560  63.6811930  46.0158550  10.5329800  61.9445300  38.6681640
  11.0288920  61.7116170  39.4530520  10.3345870  61.1057140  38.2519280
  11.9616960  60.5806250  41.2019320  11.8516240  60.4262290  42.1401590
  12.7224550  60.0527190  40.9594730  10.3082680  56.5200380  47.6602320
  10.9454900  57.1334520  48.0261510  10.4557570  56.5561040  46.7151550
  12.8507230  58.4114170  34.4425460  13.7756540  58.2795350  34.2343750
  12.8283020  58.4906990  35.3961910  12.9245720  59.1824830  37.0682170
  12.1297220  59.1169950  37.5975080  13.1289000  60.1175470  37.0567520
   9.8664140  73.2216380  41.0620560  10.4623210  72.9000950  40.3854980
  10.1242290  72.7488200  41.8533830   3.6787160  57.6726570  50.5677420
   3.6176050  58.2648400  51.3172830   4.6187540  57.5652530  50.4227680
   6.3161720  57.3296630  50.2069710   6.9302130  57.6475920  49.5450790
   6.8611280  56.8445220  50.8265570  12.7336900  73.2288260  47.6131550
  12.2395180  73.6257130  46.8958680  12.1250190  72.6037470  48.0068830
   7.0569760  55.8928770  46.5339000   6.1829600  56.2263880  46.3311930
   6.9480510  55.4201950  47.3590870   7.9641740  58.0999640  47.9180720
   7.6355100  57.2851400  47.5382450   8.9124040  58.0569450  47.7946410
  10.4176350  73.8711680  44.8918290   9.9579320  74.6227490  44.5176310
   9.7888810  73.1518150  44.8333090   3.5867570  73.0708410  44.8935400
   3.8745380  72.8162710  44.0168410   4.0990790  72.5185770  45.4840970
   4.8044580  56.8098610  45.4731910   4.0216370  57.2844110  45.7528670
   4.5107510  55.9053440  45.3645090   9.3565650  57.5121710  43.5181000
   9.7973740  57.4566810  42.6702600   9.0873240  58.4279720  43.5891180
  11.2204220  57.1436950  41.5289820  11.1592620  56.1998170  41.3820840
  11.9996250  57.2517040  42.0743280   2.6898800  59.2285360  40.9847940
   1.8773310  58.8542250  40.6443820   3.1940440  58.4730440  41.2869130
   7.1923780  55.8927810  42.2231010   7.7953150  56.4648020  42.6979530
   6.4516770  56.4567250  42.0004910  10.3358380  56.2949370  37.4971290
  10.5309010  57.1932820  37.7638720   9.5488250  56.0636450  37.9904240
   3.6539930  73.9924510  52.2603600   4.5807240  73.7568780  52.3039560
   3.6390360  74.8196510  51.7789630  11.8884990  73.5350080  39.2577850
  12.0637180  72.8487820  38.6138770  11.1906560  74.0597130  38.8654520
   7.4419000  56.0722840  52.6025950   7.3284450  56.3917450  53.4977470
   8.2588740  56.4735350  52.3063230  10.2217490  73.2194370  52.0844640
  11.0142810  72.7243600  51.8770600  10.5150640  73.8984510  52.6920250
   6.3477150  64.0915310  22.9660690   6.2671200  63.1769920  22.6952400
   5.9341570  64.5882380  22.2600400   4.4795190  65.8694330  24.8469960
   3.7037290  65.3894770  25.1368530   5.1308120  65.1899980  24.6726120
   8.5002620  70.2754520  23.6269090   8.0384150  69.5041760  23.9556260
   9.3128170  70.3020590  24.1321540   4.7265930  72.5612530  23.2473080
   4.1077370  73.0170030  22.6767520   5.5817710  72.7163990  22.8462780
   3.9204180  68.5451520  24.8540120   3.8512460  67.6041460  24.6929250
   4.6824040  68.6352930  25.4262690   4.9509350  61.3521900  25.0809050
   5.3274170  60.4793780  24.9682720   4.8528860  61.6880600  24.1899490
   8.7333470  58.8472340  22.0137390   9.5543090  58.3568910  22.0562870
   8.7667550  59.4370000  22.7669230  13.0233020  60.8639090  28.5781020
  12.3185190  61.2520800  28.0596130  13.2890940  61.5589380  29.1801950
   5.5929280  67.4451770  20.6404990   4.9746550  67.9101220  20.0767710
   6.1052530  68.1379250  21.0574500   8.9694950  60.7872720  24.7864930
   8.2650520  61.0757610  25.3668040   9.3307110  61.5972830  24.4264490
  10.5857730  70.4047850  27.0492410   9.9021250  71.0746960  27.0409080
  11.1252020  70.6028500  26.2837270  12.0381870  60.2327510  25.1774140
  11.0906780  60.2666490  25.3089570  12.3631860  61.0466460  25.5623500
   8.1216470  72.2491980  25.7637590   8.1343630  71.8454270  24.8959850
   7.5691690  73.0239270  25.6599020   9.4161890  68.9708200  20.8527760
   9.3058220  68.0282530  20.9777180   9.4130140  69.3323840  21.7390520
   7.5201910  67.1521820  27.0920200   7.9370700  66.9381930  26.2573660
   8.2441730  67.4094610  27.6628820   4.9582170  64.5973520  20.2090250
   4.0311450  64.5310900  20.4378720   5.1106990  65.5353650  20.0945490
   4.9451250  60.8690520  17.2057410   4.0054920  61.0304480  17.2909870
   5.2634510  61.5876200  16.6593400  11.4664010  65.5509040  27.1836440
  10.6382640  65.6202130  26.7086570  12.0614490  66.1363350  26.7152270
   8.9879460  66.1593820  20.7125500   8.3691880  65.8213370  20.0651800
   8.9703910  65.5153580  21.4204690   8.4306020  62.3378360  28.1291310
   8.0177200  63.1632070  28.3831300   7.6981970  61.7523400  27.9367670
   9.1206120  72.3837690  28.8172290   8.6436680  73.1909880  28.6244900
   8.4367910  71.7316020  28.9698500   7.1644160  65.3980630  17.7198250
   7.6037440  64.5603060  17.5736070   7.8772580  66.0310030  17.8062390
   5.2739540  70.3376700  21.6879490   5.7135450  71.0801030  21.2734880
   5.2126430  70.5803270  22.6118450  10.7461300  56.6523440  16.0339290
  10.4333960  56.7450270  16.9338360  11.5073770  57.2304470  15.9836720
  12.7005330  72.1449630  33.8863680  13.1765050  72.6232520  34.5652760
  13.3212490  72.0767120  33.1609180  12.1038580  69.3362480  31.0463690
  12.2301640  69.0974360  30.1280870  12.1459960  68.5047020  31.5185770
   5.9655320  73.0390480  29.6158500   6.4799990  72.9498490  30.4180930
   5.1224400  73.3850180  29.9086410   7.9409720  73.3245820  19.0442500
   7.7810860  73.0348760  19.9424330   7.7756430  72.5485950  18.5087730
   7.6435850  70.8333380  17.6040500   6.9501010  70.8310670  16.9442780
   8.3858710  70.4092700  17.1734670   7.2085780  72.4596090  21.6788990
   7.6642730  71.6785470  21.9927610   7.5478300  73.1702910  22.2230170
  11.9562590  61.3894940  32.0113430  11.3406860  61.8974610  31.4828890
  11.6359010  60.4893270  31.9539370   4.0176910  60.2286830  29.4775620
   3.5556280  60.4369850  30.2895560   3.6155020  59.4146180  29.1746290
   9.0181420  61.4495780  30.6072280   8.1675010  61.1501530  30.9281350
   8.8583210  61.6937790  29.6956100   6.1131130  62.9497530  32.7071070
   6.4384540  62.1161280  32.3673300   6.9011460  63.4726050  32.8549400
   2.8465920  56.9829010  18.7546130   2.2220100  56.9788880  19.4799440
   2.7596040  56.1159970  18.3582100   1.7683000  57.9065640  25.7329900
   2.0655330  58.8128470  25.6521920   2.3168560  57.4184420  25.1189470
   6.7519080  62.4915250  20.2012200   6.1527970  63.2151050  20.0175820
   7.2998690  62.4292030  19.4188650   1.9620530  63.3837460  32.2681820
   1.8664130  62.4432190  32.1182220   2.8052510  63.6052530  31.8729890
   5.3583950  61.1278790  22.2315480   5.7513520  61.4450990  21.4184170
   5.7200800  60.2490670  22.3460000   3.6676120  59.8786100  33.4912340
   2.9774440  59.6858300  34.1258430   4.4108420  60.1620740  34.0236640
   5.9439090  63.7184540  26.3266260   5.2120210  64.2271350  26.6756360
   5.5463430  62.9014520  26.0255040   2.3816480  60.3938740  24.7318750
   2.3852540  59.9528690  23.8823290   3.2767600  60.7156070  24.8390570
   2.4436630  61.3950820  17.7225510   2.5649450  61.3537300  18.6711330
   2.0585140  62.2574970  17.5672240   6.4065000  59.1718220  25.7389200
   6.4237740  59.6226870  26.5831050   6.1580580  58.2723860  25.9522640
   9.8335750  56.5850400  31.5775580  10.1581520  55.8540060  32.1033560
   9.8692260  56.2664040  30.6756570   2.6824450  64.4540520  26.4784160
   3.0494580  63.9799090  27.2245500   2.4929510  65.3282090  26.8192500
   9.7593590  66.6975510  25.1861610  10.4792710  67.1930800  24.7957720
   9.5575410  66.0193400  24.5415480   5.2203530  58.0913470  19.3291000
   4.4068140  57.5926640  19.2536310   5.0265480  58.9311720  18.9127350
   5.1412390  66.7684570  31.0730610   5.0749700  65.8480240  30.8188200
   4.5117530  66.8660010  31.7875250   7.9351920  62.4633120  17.6253160
   8.8231540  62.7750350  17.4504500   7.9057010  61.5905370  17.2333740
   3.9312510  68.6356810  18.3041330   4.2728210  69.3799040  17.8084650
   3.1025220  68.9487930  18.6666160   5.0729120  69.5905140  30.8234410
   5.0873660  68.6586100  30.6053320   4.3654220  69.6764900  31.4624180
  10.2066190  63.7744960  17.0933020  10.1229910  64.2059180  16.2429460
  10.9260380  64.2343310  17.5259840  11.2840330  66.2312480  30.1702990
  10.5588520  66.8241260  29.9732380  11.8115790  66.2236020  29.3716360
  11.2353440  70.6287220  19.8215150  10.5929600  69.9742840  20.0958870
  10.8484100  71.0342310  19.0455820   6.8139920  67.9572650  23.6686840
   7.1663740  67.3600780  23.0088210   5.9302250  67.6316880  23.8395090
   2.9003200  68.7170340  21.0757250   3.5874330  69.2639550  21.4564840
   2.1135620  69.2611070  21.1106860   2.2030410  65.7216370  20.6882610
   2.6593190  66.5321620  20.9142800   1.8518620  65.4039510  21.5201100
   4.5063020  71.2322710  27.9174910   5.1505240  71.4382090  28.5948330
   4.8692460  70.4711110  27.4645760   5.7795100  69.2355060  26.6352360
   6.4217330  68.5348220  26.7484530   6.3044450  70.0153500  26.4549250
   9.6250820  69.5203680  16.3591500   9.3988400  68.8034120  16.9516140
   9.2347020  69.2716120  15.5213250   7.5532720  70.0349960  29.8388420
   7.8888960  70.6216650  30.5166340   6.6333060  69.9042670  30.0686210
   9.2067070  67.4375620  18.0205660   8.9188770  67.8988310  18.8083540
  10.0019240  66.9773390  18.2889880   3.3821300  70.0841290  33.0076480
   3.0618170  69.3650530  33.5522170   2.7079660  70.7596360  33.0812540
   6.5974900  60.3167450  28.3713280   6.9655720  59.4962660  28.6992850
   5.7373100  60.3769340  28.7868930   9.9636930  59.2724390  19.1800840
   9.3350090  59.3770060  18.4659070   9.4688850  59.4921170  19.9694720
   4.4095070  70.9929980  16.6134820   4.5107050  70.7893970  15.6836800
   3.5096810  70.7388260  16.8182600   3.5576890  62.9707040  28.5951250
   4.0562140  63.4452860  29.2603100   3.6999840  62.0470560  28.8021280
   5.9636390  58.2761000  22.0354510   5.8404170  58.2947130  21.0864020
   6.9120950  58.3239940  22.1552910   3.0513180  73.5116300  21.3082490
   3.3054680  73.4737690  20.3861860   2.1025660  73.3849630  21.3010740
  10.7643750  59.1875000  29.4379640  10.2617350  59.9280400  29.7773450
  11.5800410  59.5759000  29.1216430   9.0565760  64.4308180  22.8841000
   8.1155900  64.4458410  23.0588690   9.3709830  63.6444140  23.3301300
  11.0591340  71.6017030  24.5595260  11.1838760  72.4248200  25.0319070
  11.9256900  71.3907760  24.2119410   6.3731780  68.9874180  33.3673380
   5.7669940  69.0105780  32.6269130   6.0685890  68.2557220  33.9040630
   7.8032150  72.7154470  31.9782790   8.7553900  72.6312490  31.9283030
   7.6560370  73.3796180  32.6516580  10.6941350  72.0948680  17.4774700
  10.4082860  71.6813820  16.6628880  10.4960900  73.0236390  17.3575220
   2.1588580  68.0881960  15.9180310   2.0539220  67.4734310  16.6441690
   1.9912800  67.5647850  15.1343320   5.3991310  67.1501990  16.5222300
   4.8501410  67.5971290  17.1665040   6.0210570  66.6451240  17.0459970
   9.4526250  68.5044090  32.4544560  10.1935720  68.8419850  31.9512020
   8.6898930  68.6736150  31.9014330   3.5794070  65.1330520  15.6664700
   4.0999730  64.4179540  15.3005850   4.2262470  65.7716390  15.9665210
   8.1271910  66.5558920  30.9899770   8.5412930  66.7104000  31.8390190
   7.1922910  66.6814140  31.1525550   8.5994080  63.8955080  32.9938920
   9.1814850  63.1407400  32.9059400   8.7755850  64.4262520  32.2170400
   2.4827590  57.6125070  28.3383260   2.0344890  57.6349330  27.4928810
   1.8492790  57.2144090  28.9353560   2.8887140  66.5079400  28.9595700
   3.3075250  67.3512130  28.7871940   1.9695770  66.6451440  28.7302480
   5.2251040  64.2395580  30.3433540   5.3447250  63.6436720  31.0828380
   6.0845040  64.2765270  29.9234840   7.5638940  64.7932770  28.9196050
   7.0374160  65.3175390  28.3161190   7.9070280  65.4260160  29.5505780
   6.8113240  60.3982740  31.8342380   6.1228760  59.7364280  31.7692370
   7.5319260  59.9521010  32.2790840   7.4413640  56.9934370  17.8932640
   7.7215930  56.1502270  18.2492060   6.6679370  57.2257480  18.4071390
   3.5956770  74.0483620  30.3340080   3.5215470  74.9518760  30.6412450
   2.6935610  73.7295520  30.3062150   4.1442100  73.2142130  17.9566440
   5.0392890  73.5527100  17.9785200   4.1759730  72.4921540  17.3290720
  11.1236450  71.7445800  30.6632640  10.5238440  71.8038360  29.9196560
  11.2530350  70.8050780  30.7929490  12.3637900  69.4863620  16.0002350
  11.5330860  69.5540270  16.4709580  12.5409730  70.3767740  15.6969210
  11.8194360  66.2311100  18.5036550  12.5813270  66.8007750  18.6096240
  11.8348730  65.6638300  19.2744860  12.8254330  67.0861200  23.3478480
  13.1963160  66.3028520  22.9414450  13.4656260  67.7750300  23.1695780
   9.8088090  68.4697780  28.7608800   8.9947930  68.8994940  29.0234590
  10.2162290  69.0816190  28.1477850  11.8713530  66.5245470  15.6609070
  12.1462370  67.4324350  15.5328290  11.6824270  66.4608000  16.5971060
   8.2689140  59.5490320  16.9562700   8.6874020  59.3621300  16.1159360
   7.9625200  58.6969370  17.2665630  11.7678870  64.4614460  20.6538500
  11.3922470  63.6942390  20.2219790  11.0381990  64.8437160  21.1413430
  11.1578490  63.6085980  30.2878020  10.9264580  63.3798730  29.3875970
  11.4183040  64.5285530  30.2422910   9.5966560  58.8342410  33.0657720
  10.4736740  58.8425810  33.4491720   9.6087400  58.0973250  32.4550070
  11.0429830  62.6871950  23.9545740  11.5667310  62.1934600  23.3235910
  11.6289250  62.8222310  24.6993310  11.2219550  62.7711820  27.4765290
  10.2722260  62.7375360  27.5910280  11.4032560  63.6811930  27.2415060
  10.5329800  61.9445300  19.8938150  11.0288920  61.7116170  20.6787030
  10.3345870  61.1057140  19.4775790  11.9616960  60.5806250  22.4275830
  11.8516240  60.4262290  23.3658100  12.7224550  60.0527190  22.1851240
  10.3082680  56.5200380  28.8858830  10.9454900  57.1334520  29.2518020
  10.4557570  56.5561040  27.9408060  12.8507230  58.4114170  15.6681970
  13.7756540  58.2795350  15.4600260  12.8283020  58.4906990  16.6218420
  12.9245720  59.1824830  18.2938680  12.1297220  59.1169950  18.8231590
  13.1289000  60.1175470  18.2824030   9.8664140  73.2216380  22.2877070
  10.4623210  72.9000950  21.6111490  10.1242290  72.7488200  23.0790340
   3.6787160  57.6726570  31.7933930   3.6176050  58.2648400  32.5429340
   4.6187540  57.5652530  31.6484190   6.3161720  57.3296630  31.4326220
   6.9302130  57.6475920  30.7707300   6.8611280  56.8445220  32.0522080
  12.7336900  73.2288260  28.8388060  12.2395180  73.6257130  28.1215190
  12.1250190  72.6037470  29.2325340   7.0569760  55.8928770  27.7595510
   6.1829600  56.2263880  27.5568440   6.9480510  55.4201950  28.5847380
   7.9641740  58.0999640  29.1437230   7.6355100  57.2851400  28.7638960
   8.9124040  58.0569450  29.0202920  10.4176350  73.8711680  26.1174800
   9.9579320  74.6227490  25.7432820   9.7888810  73.1518150  26.0589600
   3.5867570  73.0708410  26.1191910   3.8745380  72.8162710  25.2424920
   4.0990790  72.5185770  26.7097480   4.8044580  56.8098610  26.6988420
   4.0216370  57.2844110  26.9785180   4.5107510  55.9053440  26.5901600
   9.3565650  57.5121710  24.7437510   9.7973740  57.4566810  23.8959110
   9.0873240  58.4279720  24.8147690  11.2204220  57.1436950  22.7546330
  11.1592620  56.1998170  22.6077350  11.9996250  57.2517040  23.2999790
   2.6898800  59.2285360  22.2104450   1.8773310  58.8542250  21.8700330
   3.1940440  58.4730440  22.5125640   7.1923780  55.8927810  23.4487520
   7.7953150  56.4648020  23.9236040   6.4516770  56.4567250  23.2261420
  10.3358380  56.2949370  18.7227800  10.5309010  57.1932820  18.9895230
   9.5488250  56.0636450  19.2160750   3.6539930  73.9924510  33.4860110
   4.5807240  73.7568780  33.5296070   3.6390360  74.8196510  33.0046140
  11.8884990  73.5350080  20.4834360  12.0637180  72.8487820  19.8395280
  11.1906560  74.0597130  20.0911030   7.4419000  56.0722840  33.8282460
   7.3284450  56.3917450  34.7233980   8.2588740  56.4735350  33.5319740
  10.2217490  73.2194370  33.3101150  11.0142810  72.7243600  33.1027110
  10.5150640  73.8984510  33.9176760   6.3477150  64.0915310   4.1917200
   6.2671200  63.1769920   3.9208910   5.9341570  64.5882380   3.4856910
   4.4795190  65.8694330   6.0726470   3.7037290  65.3894770   6.3625040
   5.1308120  65.1899980   5.8982630   8.5002620  70.2754520   4.8525600
   8.0384150  69.5041760   5.1812770   9.3128170  70.3020590   5.3578050
   4.7265930  72.5612530   4.4729590   4.1077370  73.0170030   3.9024030
   5.5817710  72.7163990   4.0719290   3.9204180  68.5451520   6.0796630
   3.8512460  67.6041460   5.9185760   4.6824040  68.6352930   6.6519200
   4.9509350  61.3521900   6.3065560   5.3274170  60.4793780   6.1939230
   4.8528860  61.6880600   5.4156000   8.7333470  58.8472340   3.2393900
   9.5543090  58.3568910   3.2819380   8.7667550  59.4370000   3.9925740
  13.0233020  60.8639090   9.8037530  12.3185190  61.2520800   9.2852640
  13.2890940  61.5589380  10.4058460   8.9694950  60.7872720   6.0121440
   8.2650520  61.0757610   6.5924550   9.3307110  61.5972830   5.6521000
  10.5857730  70.4047850   8.2748920   9.9021250  71.0746960   8.2665590
  11.1252020  70.6028500   7.5093780  12.0381870  60.2327510   6.4030650
  11.0906780  60.2666490   6.5346080  12.3631860  61.0466460   6.7880010
   8.1216470  72.2491980   6.9894100   8.1343630  71.8454270   6.1216360
   7.5691690  73.0239270   6.8855530   9.4161890  68.9708200   2.0784270
   9.3058220  68.0282530   2.2033690   9.4130140  69.3323840   2.9647030
   7.5201910  67.1521820   8.3176710   7.9370700  66.9381930   7.4830170
   8.2441730  67.4094610   8.8885330  11.4664010  65.5509040   8.4092950
  10.6382640  65.6202130   7.9343080  12.0614490  66.1363350   7.9408780
   8.4306020  62.3378360   9.3547820   8.0177200  63.1632070   9.6087810
   7.6981970  61.7523400   9.1624180   9.1206120  72.3837690  10.0428800
   8.6436680  73.1909880   9.8501410   8.4367910  71.7316020  10.1955010
   5.2739540  70.3376700   2.9136000   5.7135450  71.0801030   2.4991390
   5.2126430  70.5803270   3.8374960  12.7005330  72.1449630  15.1120190
  13.1765050  72.6232520  15.7909270  13.3212490  72.0767120  14.3865690
  12.1038580  69.3362480  12.2720200  12.2301640  69.0974360  11.3537380
  12.1459960  68.5047020  12.7442280   5.9655320  73.0390480  10.8415010
   6.4799990  72.9498490  11.6437440   5.1224400  73.3850180  11.1342920
   7.2085780  72.4596090   2.9045500   7.6642730  71.6785470   3.2184120
   7.5478300  73.1702910   3.4486680  11.9562590  61.3894940  13.2369940
  11.3406860  61.8974610  12.7085400  11.6359010  60.4893270  13.1795880
   4.0176910  60.2286830  10.7032130   3.5556280  60.4369850  11.5152070
   3.6155020  59.4146180  10.4002800   9.0181420  61.4495780  11.8328790
   8.1675010  61.1501530  12.1537860   8.8583210  61.6937790  10.9212610
   6.1131130  62.9497530  13.9327580   6.4384540  62.1161280  13.5929810
   6.9011460  63.4726050  14.0805910   1.7683000  57.9065640   6.9586410
   2.0655330  58.8128470   6.8778430   2.3168560  57.4184420   6.3445980
   1.9620530  63.3837460  13.4938330   1.8664130  62.4432190  13.3438730
   2.8052510  63.6052530  13.0986400   5.3583950  61.1278790   3.4571990
   5.7513520  61.4450990   2.6440680   5.7200800  60.2490670   3.5716510
   3.6676120  59.8786100  14.7168850   2.9774440  59.6858300  15.3514940
   4.4108420  60.1620740  15.2493150   5.9439090  63.7184540   7.5522770
   5.2120210  64.2271350   7.9012870   5.5463430  62.9014520   7.2511550
   2.3816480  60.3938740   5.9575260   2.3852540  59.9528690   5.1079800
   3.2767600  60.7156070   6.0647080   6.4065000  59.1718220   6.9645710
   6.4237740  59.6226870   7.8087560   6.1580580  58.2723860   7.1779150
   9.8335750  56.5850400  12.8032090  10.1581520  55.8540060  13.3290070
   9.8692260  56.2664040  11.9013080   2.6824450  64.4540520   7.7040670
   3.0494580  63.9799090   8.4502010   2.4929510  65.3282090   8.0449010
   9.7593590  66.6975510   6.4118120  10.4792710  67.1930800   6.0214230
   9.5575410  66.0193400   5.7671990   5.1412390  66.7684570  12.2987120
   5.0749700  65.8480240  12.0444710   4.5117530  66.8660010  13.0131760
   5.0729120  69.5905140  12.0490920   5.0873660  68.6586100  11.8309830
   4.3654220  69.6764900  12.6880690  11.2840330  66.2312480  11.3959500
  10.5588520  66.8241260  11.1988890  11.8115790  66.2236020  10.5972870
   6.8139920  67.9572650   4.8943350   7.1663740  67.3600780   4.2344720
   5.9302250  67.6316880   5.0651600   2.9003200  68.7170340   2.3013760
   3.5874330  69.2639550   2.6821350   2.1135620  69.2611070   2.3363370
   2.2030410  65.7216370   1.9139120   2.6593190  66.5321620   2.1399310
   1.8518620  65.4039510   2.7457610   4.5063020  71.2322710   9.1431420
   5.1505240  71.4382090   9.8204840   4.8692460  70.4711110   8.6902270
   5.7795100  69.2355060   7.8608870   6.4217330  68.5348220   7.9741040
   6.3044450  70.0153500   7.6805760   7.5532720  70.0349960  11.0644930
   7.8888960  70.6216650  11.7422850   6.6333060  69.9042670  11.2942720
   3.3821300  70.0841290  14.2332990   3.0618170  69.3650530  14.7778680
   2.7079660  70.7596360  14.3069050   6.5974900  60.3167450   9.5969790
   6.9655720  59.4962660   9.9249360   5.7373100  60.3769340  10.0125440
   3.5576890  62.9707040   9.8207760   4.0562140  63.4452860  10.4859610
   3.6999840  62.0470560  10.0277790   5.9636390  58.2761000   3.2611020
   5.8404170  58.2947130   2.3120530   6.9120950  58.3239940   3.3809420
   3.0513180  73.5116300   2.5339000   3.3054680  73.4737690   1.6118370
   2.1025660  73.3849630   2.5267250  10.7643750  59.1875000  10.6636150
  10.2617350  59.9280400  11.0029960  11.5800410  59.5759000  10.3472940
   9.0565760  64.4308180   4.1097510   8.1155900  64.4458410   4.2845200
   9.3709830  63.6444140   4.5557810  11.0591340  71.6017030   5.7851770
  11.1838760  72.4248200   6.2575580  11.9256900  71.3907760   5.4375920
   6.3731780  68.9874180  14.5929890   5.7669940  69.0105780  13.8525640
   6.0685890  68.2557220  15.1297140   7.8032150  72.7154470  13.2039300
   8.7553900  72.6312490  13.1539540   7.6560370  73.3796180  13.8773090
   9.4526250  68.5044090  13.6801070  10.1935720  68.8419850  13.1768530
   8.6898930  68.6736150  13.1270840   8.1271910  66.5558920  12.2156280
   8.5412930  66.7104000  13.0646700   7.1922910  66.6814140  12.3782060
   8.5994080  63.8955080  14.2195430   9.1814850  63.1407400  14.1315910
   8.7755850  64.4262520  13.4426910   2.4827590  57.6125070   9.5639770
   2.0344890  57.6349330   8.7185320   1.8492790  57.2144090  10.1610070
   2.8887140  66.5079400  10.1852210   3.3075250  67.3512130  10.0128450
   1.9695770  66.6451440   9.9558990   5.2251040  64.2395580  11.5690050
   5.3447250  63.6436720  12.3084890   6.0845040  64.2765270  11.1491350
   7.5638940  64.7932770  10.1452560   7.0374160  65.3175390   9.5417700
   7.9070280  65.4260160  10.7762290   6.8113240  60.3982740  13.0598890
   6.1228760  59.7364280  12.9948880   7.5319260  59.9521010  13.5047350
   3.5956770  74.0483620  11.5596590   3.5215470  74.9518760  11.8668960
   2.6935610  73.7295520  11.5318660  11.1236450  71.7445800  11.8889150
  10.5238440  71.8038360  11.1453070  11.2530350  70.8050780  12.0186000
  12.8254330  67.0861200   4.5734990  13.1963160  66.3028520   4.1670960
  13.4656260  67.7750300   4.3952290   9.8088090  68.4697780   9.9865310
   8.9947930  68.8994940  10.2491100  10.2162290  69.0816190   9.3734360
  11.7678870  64.4614460   1.8795010  11.3922470  63.6942390   1.4476300
  11.0381990  64.8437160   2.3669940  11.1578490  63.6085980  11.5134530
  10.9264580  63.3798730  10.6132480  11.4183040  64.5285530  11.4679420
   9.5966560  58.8342410  14.2914230  10.4736740  58.8425810  14.6748230
   9.6087400  58.0973250  13.6806580  11.0429830  62.6871950   5.1802250
  11.5667310  62.1934600   4.5492420  11.6289250  62.8222310   5.9249820
  11.2219550  62.7711820   8.7021800  10.2722260  62.7375360   8.8166790
  11.4032560  63.6811930   8.4671570  11.9616960  60.5806250   3.6532340
  11.8516240  60.4262290   4.5914610  12.7224550  60.0527190   3.4107750
  10.3082680  56.5200380  10.1115340  10.9454900  57.1334520  10.4774530
  10.4557570  56.5561040   9.1664570   9.8664140  73.2216380   3.5133580
  10.4623210  72.9000950   2.8368000  10.1242290  72.7488200   4.3046850
   3.6787160  57.6726570  13.0190440   3.6176050  58.2648400  13.7685850
   4.6187540  57.5652530  12.8740700   6.3161720  57.3296630  12.6582730
   6.9302130  57.6475920  11.9963810   6.8611280  56.8445220  13.2778590
  12.7336900  73.2288260  10.0644570  12.2395180  73.6257130   9.3471700
  12.1250190  72.6037470  10.4581850   7.0569760  55.8928770   8.9852020
   6.1829600  56.2263880   8.7824950   6.9480510  55.4201950   9.8103890
   7.9641740  58.0999640  10.3693740   7.6355100  57.2851400   9.9895470
   8.9124040  58.0569450  10.2459430  10.4176350  73.8711680   7.3431310
   9.9579320  74.6227490   6.9689330   9.7888810  73.1518150   7.2846110
   3.5867570  73.0708410   7.3448420   3.8745380  72.8162710   6.4681430
   4.0990790  72.5185770   7.9353990   4.8044580  56.8098610   7.9244930
   4.0216370  57.2844110   8.2041690   4.5107510  55.9053440   7.8158110
   9.3565650  57.5121710   5.9694020   9.7973740  57.4566810   5.1215620
   9.0873240  58.4279720   6.0404200  11.2204220  57.1436950   3.9802840
  11.1592620  56.1998170   3.8333860  11.9996250  57.2517040   4.5256300
   2.6898800  59.2285360   3.4360960   1.8773310  58.8542250   3.0956840
   3.1940440  58.4730440   3.7382150   7.1923780  55.8927810   4.6744030
   7.7953150  56.4648020   5.1492550   6.4516770  56.4567250   4.4517930
   3.6539930  73.9924510  14.7116620   4.5807240  73.7568780  14.7552580
   3.6390360  74.8196510  14.2302650   7.4419000  56.0722840  15.0538970
   7.3284450  56.3917450  15.9490490   8.2588740  56.4735350  14.7576250
  10.2217490  73.2194370  14.5357660  11.0142810  72.7243600  14.3283620
  10.5150640  73.8984510  15.1433270   6.3477150  45.3171820  60.5147670
   6.2671200  44.4026430  60.2439380   5.9341570  45.8138890  59.8087380
   4.4795190  47.0950840  62.3956940   3.7037290  46.6151280  62.6855510
   5.1308120  46.4156490  62.2213100   8.5002620  51.5011030  61.1756070
   8.0384150  50.7298270  61.5043240   9.3128170  51.5277100  61.6808520
   4.7265930  53.7869040  60.7960060   4.1077370  54.2426540  60.2254500
   5.5817710  53.9420500  60.3949760   3.9204180  49.7708030  62.4027100
   3.8512460  48.8297970  62.2416230   4.6824040  49.8609440  62.9749670
   4.9509350  42.5778410  62.6296030   5.3274170  41.7050290  62.5169700
   4.8528860  42.9137110  61.7386470   8.7333470  40.0728850  59.5624370
   9.5543090  39.5825420  59.6049850   8.7667550  40.6626510  60.3156210
   5.5929280  48.6708280  58.1891970   4.9746550  49.1357730  57.6254690
   6.1052530  49.3635760  58.6061480   8.9694950  42.0129230  62.3351910
   8.2650520  42.3014120  62.9155020   9.3307110  42.8229340  61.9751470
  10.5857730  51.6304360  64.5979390   9.9021250  52.3003470  64.5896060
  11.1252020  51.8285010  63.8324250  12.0381870  41.4584020  62.7261120
  11.0906780  41.4923000  62.8576550  12.3631860  42.2722970  63.1110480
   8.1216470  53.4748490  63.3124570   8.1343630  53.0710780  62.4446830
   7.5691690  54.2495780  63.2086000   9.4161890  50.1964710  58.4014740
   9.3058220  49.2539040  58.5264160   9.4130140  50.5580350  59.2877500
   7.5201910  48.3778330  64.6407180   7.9370700  48.1638440  63.8060640
   8.2441730  48.6351120  65.2115800   4.9582170  45.8230030  57.7577230
   4.0311450  45.7567410  57.9865700   5.1106990  46.7610160  57.6432470
   4.9451250  42.0947030  54.7544390   4.0054920  42.2560990  54.8396850
   5.2634510  42.8132710  54.2080380  11.4664010  46.7765550  64.7323420
  10.6382640  46.8458640  64.2573550  12.0614490  47.3619860  64.2639250
   8.9879460  47.3850330  58.2612480   8.3691880  47.0469880  57.6138780
   8.9703910  46.7410090  58.9691670   8.4306020  43.5634870  65.6778290
   8.0177200  44.3888580  65.9318280   7.6981970  42.9779910  65.4854650
   9.1206120  53.6094200  66.3659270   8.6436680  54.4166390  66.1731880
   8.4367910  52.9572530  66.5185480   7.1644160  46.6237140  55.2685230
   7.6037440  45.7859570  55.1223050   7.8772580  47.2566540  55.3549370
   5.2739540  51.5633210  59.2366470   5.7135450  52.3057540  58.8221860
   5.2126430  51.8059780  60.1605430  10.7461300  37.8779950  53.5826270
  10.4333960  37.9706780  54.4825340  11.5073770  38.4560980  53.5323700
   7.9409720  54.5502330  56.5929480   7.7810860  54.2605270  57.4911310
   7.7756430  53.7742460  56.0574710   7.6435850  52.0589890  55.1527480
   6.9501010  52.0567180  54.4929760   8.3858710  51.6349210  54.7221650
   7.2085780  53.6852600  59.2275970   7.6642730  52.9041980  59.5414590
   7.5478300  54.3959420  59.7717150   2.8465920  38.2085520  56.3033110
   2.2220100  38.2045390  57.0286420   2.7596040  37.3416480  55.9069080
   1.7683000  39.1322150  63.2816880   2.0655330  40.0384980  63.2008900
   2.3168560  38.6440930  62.6676450   6.7519080  43.7171760  57.7499180
   6.1527970  44.4407560  57.5662800   7.2998690  43.6548540  56.9675630
   5.3583950  42.3535300  59.7802460   5.7513520  42.6707500  58.9671150
   5.7200800  41.4747180  59.8946980   5.9439090  44.9441050  63.8753240
   5.2120210  45.4527860  64.2243340   5.5463430  44.1271030  63.5742020
   2.3816480  41.6195250  62.2805730   2.3852540  41.1785200  61.4310270
   3.2767600  41.9412580  62.3877550   2.4436630  42.6207330  55.2712490
   2.5649450  42.5793810  56.2198310   2.0585140  43.4831480  55.1159220
   6.4065000  40.3974730  63.2876180   6.4237740  40.8483380  64.1318030
   6.1580580  39.4980370  63.5009620   2.6824450  45.6797030  64.0271140
   3.0494580  45.2055600  64.7732480   2.4929510  46.5538600  64.3679480
   9.7593590  47.9232020  62.7348590  10.4792710  48.4187310  62.3444700
   9.5575410  47.2449910  62.0902460   5.2203530  39.3169980  56.8777980
   4.4068140  38.8183150  56.8023290   5.0265480  40.1568230  56.4614330
   7.9351920  43.6889630  55.1740140   8.8231540  44.0006860  54.9991480
   7.9057010  42.8161880  54.7820720   3.9312510  49.8613320  55.8528310
   4.2728210  50.6055550  55.3571630   3.1025220  50.1744440  56.2153140
  10.2066190  45.0001470  54.6420000  10.1229910  45.4315690  53.7916440
  10.9260380  45.4599820  55.0746820  11.2353440  51.8543730  57.3702130
  10.5929600  51.1999350  57.6445850  10.8484100  52.2598820  56.5942800
   6.8139920  49.1829160  61.2173820   7.1663740  48.5857290  60.5575190
   5.9302250  48.8573390  61.3882070   2.9003200  49.9426850  58.6244230
   3.5874330  50.4896060  59.0051820   2.1135620  50.4867580  58.6593840
   2.2030410  46.9472880  58.2369590   2.6593190  47.7578130  58.4629780
   1.8518620  46.6296020  59.0688080   4.5063020  52.4579220  65.4661890
   5.1505240  52.6638600  66.1435310   4.8692460  51.6967620  65.0132740
   5.7795100  50.4611570  64.1839340   6.4217330  49.7604730  64.2971510
   6.3044450  51.2410010  64.0036230   9.6250820  50.7460190  53.9078480
   9.3988400  50.0290630  54.5003120   9.2347020  50.4972630  53.0700230
   9.2067070  48.6632130  55.5692640   8.9188770  49.1244820  56.3570520
  10.0019240  48.2029900  55.8376860   6.5974900  41.5423960  65.9200260
   6.9655720  40.7219170  66.2479830   5.7373100  41.6025850  66.3355910
   9.9636930  40.4980900  56.7287820   9.3350090  40.6026570  56.0146050
   9.4688850  40.7177680  57.5181700   4.4095070  52.2186490  54.1621800
   4.5107050  52.0150480  53.2323780   3.5096810  51.9644770  54.3669580
   5.9636390  39.5017510  59.5841490   5.8404170  39.5203640  58.6351000
   6.9120950  39.5496450  59.7039890   3.0513180  54.7372810  58.8569470
   3.3054680  54.6994200  57.9348840   2.1025660  54.6106140  58.8497720
   9.0565760  45.6564690  60.4327980   8.1155900  45.6714920  60.6075670
   9.3709830  44.8700650  60.8788280  11.0591340  52.8273540  62.1082240
  11.1838760  53.6504710  62.5806050  11.9256900  52.6164270  61.7606390
  10.6941350  53.3205190  55.0261680  10.4082860  52.9070330  54.2115860
  10.4960900  54.2492900  54.9062200   2.1588580  49.3138470  53.4667290
   2.0539220  48.6990820  54.1928670   1.9912800  48.7904360  52.6830300
   5.3991310  48.3758500  54.0709280   4.8501410  48.8227800  54.7152020
   6.0210570  47.8707750  54.5946950   3.5794070  46.3587030  53.2151680
   4.0999730  45.6436050  52.8492830   4.2262470  46.9972900  53.5152190
   2.4827590  38.8381580  65.8870240   2.0344890  38.8605840  65.0415790
   1.8492790  38.4400600  66.4840540   2.8887140  47.7335910  66.5082680
   3.3075250  48.5768640  66.3358920   1.9695770  47.8707950  66.2789460
   7.4413640  38.2190880  55.4419620   7.7215930  37.3758780  55.7979040
   6.6679370  38.4513990  55.9558370   4.1442100  54.4398640  55.5053420
   5.0392890  54.7783610  55.5272180   4.1759730  53.7178050  54.8777700
  12.3637900  50.7120130  53.5489330  11.5330860  50.7796780  54.0196560
  12.5409730  51.6024250  53.2456190  11.8194360  47.4567610  56.0523530
  12.5813270  48.0264260  56.1583220  11.8348730  46.8894810  56.8231840
  12.8254330  48.3117710  60.8965460  13.1963160  47.5285030  60.4901430
  13.4656260  49.0006810  60.7182760  11.8713530  47.7501980  53.2096050
  12.1462370  48.6580860  53.0815270  11.6824270  47.6864510  54.1458040
   8.2689140  40.7746830  54.5049680   8.6874020  40.5877810  53.6646340
   7.9625200  39.9225880  54.8152610  11.7678870  45.6870970  58.2025480
  11.3922470  44.9198900  57.7706770  11.0381990  46.0693670  58.6900410
  11.0429830  43.9128460  61.5032720  11.5667310  43.4191110  60.8722890
  11.6289250  44.0478820  62.2480290  11.2219550  43.9968330  65.0252270
  10.2722260  43.9631870  65.1397260  11.4032560  44.9068440  64.7902040
  10.5329800  43.1701810  57.4425130  11.0288920  42.9372680  58.2274010
  10.3345870  42.3313650  57.0262770  11.9616960  41.8062760  59.9762810
  11.8516240  41.6518800  60.9145080  12.7224550  41.2783700  59.7338220
  12.8507230  39.6370680  53.2168950  13.7756540  39.5051860  53.0087240
  12.8283020  39.7163500  54.1705400  12.9245720  40.4081340  55.8425660
  12.1297220  40.3426460  56.3718570  13.1289000  41.3431980  55.8311010
   9.8664140  54.4472890  59.8364050  10.4623210  54.1257460  59.1598470
  10.1242290  53.9744710  60.6277320   7.0569760  37.1185280  65.3082490
   6.1829600  37.4520390  65.1055420   6.9480510  36.6458460  66.1334360
  10.4176350  55.0968190  63.6661780   9.9579320  55.8484000  63.2919800
   9.7888810  54.3774660  63.6076580   3.5867570  54.2964920  63.6678890
   3.8745380  54.0419220  62.7911900   4.0990790  53.7442280  64.2584460
   4.8044580  38.0355120  64.2475400   4.0216370  38.5100620  64.5272160
   4.5107510  37.1309950  64.1388580   9.3565650  38.7378220  62.2924490
   9.7973740  38.6823320  61.4446090   9.0873240  39.6536230  62.3634670
  11.2204220  38.3693460  60.3033310  11.1592620  37.4254680  60.1564330
  11.9996250  38.4773550  60.8486770   2.6898800  40.4541870  59.7591430
   1.8773310  40.0798760  59.4187310   3.1940440  39.6986950  60.0612620
   7.1923780  37.1184320  60.9974500   7.7953150  37.6904530  61.4723020
   6.4516770  37.6823760  60.7748400  10.3358380  37.5205880  56.2714780
  10.5309010  38.4189330  56.5382210   9.5488250  37.2892960  56.7647730
  11.8884990  54.7606590  58.0321340  12.0637180  54.0744330  57.3882260
  11.1906560  55.2853640  57.6398010   6.3477150  45.3171820  41.7404180
   6.2671200  44.4026430  41.4695890   5.9341570  45.8138890  41.0343890
   4.4795190  47.0950840  43.6213450   3.7037290  46.6151280  43.9112020
   5.1308120  46.4156490  43.4469610   8.5002620  51.5011030  42.4012580
   8.0384150  50.7298270  42.7299750   9.3128170  51.5277100  42.9065030
   4.7265930  53.7869040  42.0216570   4.1077370  54.2426540  41.4511010
   5.5817710  53.9420500  41.6206270   3.9204180  49.7708030  43.6283610
   3.8512460  48.8297970  43.4672740   4.6824040  49.8609440  44.2006180
   4.9509350  42.5778410  43.8552540   5.3274170  41.7050290  43.7426210
   4.8528860  42.9137110  42.9642980   8.7333470  40.0728850  40.7880880
   9.5543090  39.5825420  40.8306360   8.7667550  40.6626510  41.5412720
  13.0233020  42.0895600  47.3524510  12.3185190  42.4777310  46.8339620
  13.2890940  42.7845890  47.9545440   5.5929280  48.6708280  39.4148480
   4.9746550  49.1357730  38.8511200   6.1052530  49.3635760  39.8317990
   8.9694950  42.0129230  43.5608420   8.2650520  42.3014120  44.1411530
   9.3307110  42.8229340  43.2007980  10.5857730  51.6304360  45.8235900
   9.9021250  52.3003470  45.8152570  11.1252020  51.8285010  45.0580760
  12.0381870  41.4584020  43.9517630  11.0906780  41.4923000  44.0833060
  12.3631860  42.2722970  44.3366990   8.1216470  53.4748490  44.5381080
   8.1343630  53.0710780  43.6703340   7.5691690  54.2495780  44.4342510
   9.4161890  50.1964710  39.6271250   9.3058220  49.2539040  39.7520670
   9.4130140  50.5580350  40.5134010   7.5201910  48.3778330  45.8663690
   7.9370700  48.1638440  45.0317150   8.2441730  48.6351120  46.4372310
   4.9582170  45.8230030  38.9833740   4.0311450  45.7567410  39.2122210
   5.1106990  46.7610160  38.8688980   4.9451250  42.0947030  35.9800900
   4.0054920  42.2560990  36.0653360   5.2634510  42.8132710  35.4336890
  11.4664010  46.7765550  45.9579930  10.6382640  46.8458640  45.4830060
  12.0614490  47.3619860  45.4895760   8.9879460  47.3850330  39.4868990
   8.3691880  47.0469880  38.8395290   8.9703910  46.7410090  40.1948180
   8.4306020  43.5634870  46.9034800   8.0177200  44.3888580  47.1574790
   7.6981970  42.9779910  46.7111160   9.1206120  53.6094200  47.5915780
   8.6436680  54.4166390  47.3988390   8.4367910  52.9572530  47.7441990
   7.1644160  46.6237140  36.4941740   7.6037440  45.7859570  36.3479560
   7.8772580  47.2566540  36.5805880   5.2739540  51.5633210  40.4622980
   5.7135450  52.3057540  40.0478370   5.2126430  51.8059780  41.3861940
  10.7461300  37.8779950  34.8082780  10.4333960  37.9706780  35.7081850
  11.5073770  38.4560980  34.7580210  12.7005330  53.3706140  52.6607170
  13.1765050  53.8489030  53.3396250  13.3212490  53.3023630  51.9352670
  12.1038580  50.5618990  49.8207180  12.2301640  50.3230870  48.9024360
  12.1459960  49.7303530  50.2929260   5.9655320  54.2646990  48.3901990
   6.4799990  54.1755000  49.1924420   5.1224400  54.6106690  48.6829900
   7.9409720  54.5502330  37.8185990   7.7810860  54.2605270  38.7167820
   7.7756430  53.7742460  37.2831220   7.6435850  52.0589890  36.3783990
   6.9501010  52.0567180  35.7186270   8.3858710  51.6349210  35.9478160
   7.2085780  53.6852600  40.4532480   7.6642730  52.9041980  40.7671100
   7.5478300  54.3959420  40.9973660  11.9562590  42.6151450  50.7856920
  11.3406860  43.1231120  50.2572380  11.6359010  41.7149780  50.7282860
   4.0176910  41.4543340  48.2519110   3.5556280  41.6626360  49.0639050
   3.6155020  40.6402690  47.9489780   9.0181420  42.6752290  49.3815770
   8.1675010  42.3758040  49.7024840   8.8583210  42.9194300  48.4699590
   6.1131130  44.1754040  51.4814560   6.4384540  43.3417790  51.1416790
   6.9011460  44.6982560  51.6292890   2.8465920  38.2085520  37.5289620
   2.2220100  38.2045390  38.2542930   2.7596040  37.3416480  37.1325590
   1.7683000  39.1322150  44.5073390   2.0655330  40.0384980  44.4265410
   2.3168560  38.6440930  43.8932960   6.7519080  43.7171760  38.9755690
   6.1527970  44.4407560  38.7919310   7.2998690  43.6548540  38.1932140
   1.9620530  44.6093970  51.0425310   1.8664130  43.6688700  50.8925710
   2.8052510  44.8309040  50.6473380   5.3583950  42.3535300  41.0058970
   5.7513520  42.6707500  40.1927660   5.7200800  41.4747180  41.1203490
   3.6676120  41.1042610  52.2655830   2.9774440  40.9114810  52.9001920
   4.4108420  41.3877250  52.7980130   5.9439090  44.9441050  45.1009750
   5.2120210  45.4527860  45.4499850   5.5463430  44.1271030  44.7998530
   2.3816480  41.6195250  43.5062240   2.3852540  41.1785200  42.6566780
   3.2767600  41.9412580  43.6134060   2.4436630  42.6207330  36.4969000
   2.5649450  42.5793810  37.4454820   2.0585140  43.4831480  36.3415730
   6.4065000  40.3974730  44.5132690   6.4237740  40.8483380  45.3574540
   6.1580580  39.4980370  44.7266130   9.8335750  37.8106910  50.3519070
  10.1581520  37.0796570  50.8777050   9.8692260  37.4920550  49.4500060
   2.6824450  45.6797030  45.2527650   3.0494580  45.2055600  45.9988990
   2.4929510  46.5538600  45.5935990   9.7593590  47.9232020  43.9605100
  10.4792710  48.4187310  43.5701210   9.5575410  47.2449910  43.3158970
   5.2203530  39.3169980  38.1034490   4.4068140  38.8183150  38.0279800
   5.0265480  40.1568230  37.6870840   5.1412390  47.9941080  49.8474100
   5.0749700  47.0736750  49.5931690   4.5117530  48.0916520  50.5618740
   7.9351920  43.6889630  36.3996650   8.8231540  44.0006860  36.2247990
   7.9057010  42.8161880  36.0077230   3.9312510  49.8613320  37.0784820
   4.2728210  50.6055550  36.5828140   3.1025220  50.1744440  37.4409650
   5.0729120  50.8161650  49.5977900   5.0873660  49.8842610  49.3796810
   4.3654220  50.9021410  50.2367670  10.2066190  45.0001470  35.8676510
  10.1229910  45.4315690  35.0172950  10.9260380  45.4599820  36.3003330
  11.2840330  47.4568990  48.9446480  10.5588520  48.0497770  48.7475870
  11.8115790  47.4492530  48.1459850  11.2353440  51.8543730  38.5958640
  10.5929600  51.1999350  38.8702360  10.8484100  52.2598820  37.8199310
   6.8139920  49.1829160  42.4430330   7.1663740  48.5857290  41.7831700
   5.9302250  48.8573390  42.6138580   2.9003200  49.9426850  39.8500740
   3.5874330  50.4896060  40.2308330   2.1135620  50.4867580  39.8850350
   2.2030410  46.9472880  39.4626100   2.6593190  47.7578130  39.6886290
   1.8518620  46.6296020  40.2944590   4.5063020  52.4579220  46.6918400
   5.1505240  52.6638600  47.3691820   4.8692460  51.6967620  46.2389250
   5.7795100  50.4611570  45.4095850   6.4217330  49.7604730  45.5228020
   6.3044450  51.2410010  45.2292740   9.6250820  50.7460190  35.1334990
   9.3988400  50.0290630  35.7259630   9.2347020  50.4972630  34.2956740
   7.5532720  51.2606470  48.6131910   7.8888960  51.8473160  49.2909830
   6.6333060  51.1299180  48.8429700   9.2067070  48.6632130  36.7949150
   8.9188770  49.1244820  37.5827030  10.0019240  48.2029900  37.0633370
   3.3821300  51.3097800  51.7819970   3.0618170  50.5907040  52.3265660
   2.7079660  51.9852870  51.8556030   6.5974900  41.5423960  47.1456770
   6.9655720  40.7219170  47.4736340   5.7373100  41.6025850  47.5612420
   9.9636930  40.4980900  37.9544330   9.3350090  40.6026570  37.2402560
   9.4688850  40.7177680  38.7438210   4.4095070  52.2186490  35.3878310
   4.5107050  52.0150480  34.4580290   3.5096810  51.9644770  35.5926090
   3.5576890  44.1963550  47.3694740   4.0562140  44.6709370  48.0346590
   3.6999840  43.2727070  47.5764770   5.9636390  39.5017510  40.8098000
   5.8404170  39.5203640  39.8607510   6.9120950  39.5496450  40.9296400
   3.0513180  54.7372810  40.0825980   3.3054680  54.6994200  39.1605350
   2.1025660  54.6106140  40.0754230  10.7643750  40.4131510  48.2123130
  10.2617350  41.1536910  48.5516940  11.5800410  40.8015510  47.8959920
   9.0565760  45.6564690  41.6584490   8.1155900  45.6714920  41.8332180
   9.3709830  44.8700650  42.1044790  11.0591340  52.8273540  43.3338750
  11.1838760  53.6504710  43.8062560  11.9256900  52.6164270  42.9862900
   6.3731780  50.2130690  52.1416870   5.7669940  50.2362290  51.4012620
   6.0685890  49.4813730  52.6784120   7.8032150  53.9410980  50.7526280
   8.7553900  53.8569000  50.7026520   7.6560370  54.6052690  51.4260070
  10.6941350  53.3205190  36.2518190  10.4082860  52.9070330  35.4372370
  10.4960900  54.2492900  36.1318710   2.1588580  49.3138470  34.6923800
   2.0539220  48.6990820  35.4185180   1.9912800  48.7904360  33.9086810
   5.3991310  48.3758500  35.2965790   4.8501410  48.8227800  35.9408530
   6.0210570  47.8707750  35.8203460   9.4526250  49.7300600  51.2288050
  10.1935720  50.0676360  50.7255510   8.6898930  49.8992660  50.6757820
   3.5794070  46.3587030  34.4408190   4.0999730  45.6436050  34.0749340
   4.2262470  46.9972900  34.7408700   8.1271910  47.7815430  49.7643260
   8.5412930  47.9360510  50.6133680   7.1922910  47.9070650  49.9269040
   8.5994080  45.1211590  51.7682410   9.1814850  44.3663910  51.6802890
   8.7755850  45.6519030  50.9913890   2.4827590  38.8381580  47.1126750
   2.0344890  38.8605840  46.2672300   1.8492790  38.4400600  47.7097050
   2.8887140  47.7335910  47.7339190   3.3075250  48.5768640  47.5615430
   1.9695770  47.8707950  47.5045970   5.2251040  45.4652090  49.1177030
   5.3447250  44.8693230  49.8571870   6.0845040  45.5021780  48.6978330
   7.5638940  46.0189280  47.6939540   7.0374160  46.5431900  47.0904680
   7.9070280  46.6516670  48.3249270   6.8113240  41.6239250  50.6085870
   6.1228760  40.9620790  50.5435860   7.5319260  41.1777520  51.0534330
   7.4413640  38.2190880  36.6676130   7.7215930  37.3758780  37.0235550
   6.6679370  38.4513990  37.1814880   3.5956770  55.2740130  49.1083570
   3.5215470  56.1775270  49.4155940   2.6935610  54.9552030  49.0805640
   4.1442100  54.4398640  36.7309930   5.0392890  54.7783610  36.7528690
   4.1759730  53.7178050  36.1034210  11.1236450  52.9702310  49.4376130
  10.5238440  53.0294870  48.6940050  11.2530350  52.0307290  49.5672980
  12.3637900  50.7120130  34.7745840  11.5330860  50.7796780  35.2453070
  12.5409730  51.6024250  34.4712700  11.8194360  47.4567610  37.2780040
  12.5813270  48.0264260  37.3839730  11.8348730  46.8894810  38.0488350
  12.8254330  48.3117710  42.1221970  13.1963160  47.5285030  41.7157940
  13.4656260  49.0006810  41.9439270   9.8088090  49.6954290  47.5352290
   8.9947930  50.1251450  47.7978080  10.2162290  50.3072700  46.9221340
  11.8713530  47.7501980  34.4352560  12.1462370  48.6580860  34.3071780
  11.6824270  47.6864510  35.3714550   8.2689140  40.7746830  35.7306190
   8.6874020  40.5877810  34.8902850   7.9625200  39.9225880  36.0409120
  11.7678870  45.6870970  39.4281990  11.3922470  44.9198900  38.9963280
  11.0381990  46.0693670  39.9156920  11.1578490  44.8342490  49.0621510
  10.9264580  44.6055240  48.1619460  11.4183040  45.7542040  49.0166400
   9.5966560  40.0598920  51.8401210  10.4736740  40.0682320  52.2235210
   9.6087400  39.3229760  51.2293560  11.0429830  43.9128460  42.7289230
  11.5667310  43.4191110  42.0979400  11.6289250  44.0478820  43.4736800
  11.2219550  43.9968330  46.2508780  10.2722260  43.9631870  46.3653770
  11.4032560  44.9068440  46.0158550  10.5329800  43.1701810  38.6681640
  11.0288920  42.9372680  39.4530520  10.3345870  42.3313650  38.2519280
  11.9616960  41.8062760  41.2019320  11.8516240  41.6518800  42.1401590
  12.7224550  41.2783700  40.9594730  10.3082680  37.7456890  47.6602320
  10.9454900  38.3591030  48.0261510  10.4557570  37.7817550  46.7151550
  12.8507230  39.6370680  34.4425460  13.7756540  39.5051860  34.2343750
  12.8283020  39.7163500  35.3961910  12.9245720  40.4081340  37.0682170
  12.1297220  40.3426460  37.5975080  13.1289000  41.3431980  37.0567520
   9.8664140  54.4472890  41.0620560  10.4623210  54.1257460  40.3854980
  10.1242290  53.9744710  41.8533830   3.6787160  38.8983080  50.5677420
   3.6176050  39.4904910  51.3172830   4.6187540  38.7909040  50.4227680
   6.3161720  38.5553140  50.2069710   6.9302130  38.8732430  49.5450790
   6.8611280  38.0701730  50.8265570  12.7336900  54.4544770  47.6131550
  12.2395180  54.8513640  46.8958680  12.1250190  53.8293980  48.0068830
   7.0569760  37.1185280  46.5339000   6.1829600  37.4520390  46.3311930
   6.9480510  36.6458460  47.3590870   7.9641740  39.3256150  47.9180720
   7.6355100  38.5107910  47.5382450   8.9124040  39.2825960  47.7946410
  10.4176350  55.0968190  44.8918290   9.9579320  55.8484000  44.5176310
   9.7888810  54.3774660  44.8333090   3.5867570  54.2964920  44.8935400
   3.8745380  54.0419220  44.0168410   4.0990790  53.7442280  45.4840970
   4.8044580  38.0355120  45.4731910   4.0216370  38.5100620  45.7528670
   4.5107510  37.1309950  45.3645090   9.3565650  38.7378220  43.5181000
   9.7973740  38.6823320  42.6702600   9.0873240  39.6536230  43.5891180
  11.2204220  38.3693460  41.5289820  11.1592620  37.4254680  41.3820840
  11.9996250  38.4773550  42.0743280   2.6898800  40.4541870  40.9847940
   1.8773310  40.0798760  40.6443820   3.1940440  39.6986950  41.2869130
   7.1923780  37.1184320  42.2231010   7.7953150  37.6904530  42.6979530
   6.4516770  37.6823760  42.0004910  10.3358380  37.5205880  37.4971290
  10.5309010  38.4189330  37.7638720   9.5488250  37.2892960  37.9904240
   3.6539930  55.2181020  52.2603600   4.5807240  54.9825290  52.3039560
   3.6390360  56.0453020  51.7789630  11.8884990  54.7606590  39.2577850
  12.0637180  54.0744330  38.6138770  11.1906560  55.2853640  38.8654520
   7.4419000  37.2979350  52.6025950   7.3284450  37.6173960  53.4977470
   8.2588740  37.6991860  52.3063230  10.2217490  54.4450880  52.0844640
  11.0142810  53.9500110  51.8770600  10.5150640  55.1241020  52.6920250
   6.3477150  45.3171820  22.9660690   6.2671200  44.4026430  22.6952400
   5.9341570  45.8138890  22.2600400   4.4795190  47.0950840  24.8469960
   3.7037290  46.6151280  25.1368530   5.1308120  46.4156490  24.6726120
   8.5002620  51.5011030  23.6269090   8.0384150  50.7298270  23.9556260
   9.3128170  51.5277100  24.1321540   4.7265930  53.7869040  23.2473080
   4.1077370  54.2426540  22.6767520   5.5817710  53.9420500  22.8462780
   3.9204180  49.7708030  24.8540120   3.8512460  48.8297970  24.6929250
   4.6824040  49.8609440  25.4262690   4.9509350  42.5778410  25.0809050
   5.3274170  41.7050290  24.9682720   4.8528860  42.9137110  24.1899490
   8.7333470  40.0728850  22.0137390   9.5543090  39.5825420  22.0562870
   8.7667550  40.6626510  22.7669230  13.0233020  42.0895600  28.5781020
  12.3185190  42.4777310  28.0596130  13.2890940  42.7845890  29.1801950
   5.5929280  48.6708280  20.6404990   4.9746550  49.1357730  20.0767710
   6.1052530  49.3635760  21.0574500   8.9694950  42.0129230  24.7864930
   8.2650520  42.3014120  25.3668040   9.3307110  42.8229340  24.4264490
  10.5857730  51.6304360  27.0492410   9.9021250  52.3003470  27.0409080
  11.1252020  51.8285010  26.2837270  12.0381870  41.4584020  25.1774140
  11.0906780  41.4923000  25.3089570  12.3631860  42.2722970  25.5623500
   8.1216470  53.4748490  25.7637590   8.1343630  53.0710780  24.8959850
   7.5691690  54.2495780  25.6599020   9.4161890  50.1964710  20.8527760
   9.3058220  49.2539040  20.9777180   9.4130140  50.5580350  21.7390520
   7.5201910  48.3778330  27.0920200   7.9370700  48.1638440  26.2573660
   8.2441730  48.6351120  27.6628820   4.9582170  45.8230030  20.2090250
   4.0311450  45.7567410  20.4378720   5.1106990  46.7610160  20.0945490
   4.9451250  42.0947030  17.2057410   4.0054920  42.2560990  17.2909870
   5.2634510  42.8132710  16.6593400  11.4664010  46.7765550  27.1836440
  10.6382640  46.8458640  26.7086570  12.0614490  47.3619860  26.7152270
   8.9879460  47.3850330  20.7125500   8.3691880  47.0469880  20.0651800
   8.9703910  46.7410090  21.4204690   8.4306020  43.5634870  28.1291310
   8.0177200  44.3888580  28.3831300   7.6981970  42.9779910  27.9367670
   9.1206120  53.6094200  28.8172290   8.6436680  54.4166390  28.6244900
   8.4367910  52.9572530  28.9698500   7.1644160  46.6237140  17.7198250
   7.6037440  45.7859570  17.5736070   7.8772580  47.2566540  17.8062390
   5.2739540  51.5633210  21.6879490   5.7135450  52.3057540  21.2734880
   5.2126430  51.8059780  22.6118450  10.7461300  37.8779950  16.0339290
  10.4333960  37.9706780  16.9338360  11.5073770  38.4560980  15.9836720
  12.7005330  53.3706140  33.8863680  13.1765050  53.8489030  34.5652760
  13.3212490  53.3023630  33.1609180  12.1038580  50.5618990  31.0463690
  12.2301640  50.3230870  30.1280870  12.1459960  49.7303530  31.5185770
   5.9655320  54.2646990  29.6158500   6.4799990  54.1755000  30.4180930
   5.1224400  54.6106690  29.9086410   7.9409720  54.5502330  19.0442500
   7.7810860  54.2605270  19.9424330   7.7756430  53.7742460  18.5087730
   7.6435850  52.0589890  17.6040500   6.9501010  52.0567180  16.9442780
   8.3858710  51.6349210  17.1734670   7.2085780  53.6852600  21.6788990
   7.6642730  52.9041980  21.9927610   7.5478300  54.3959420  22.2230170
  11.9562590  42.6151450  32.0113430  11.3406860  43.1231120  31.4828890
  11.6359010  41.7149780  31.9539370   4.0176910  41.4543340  29.4775620
   3.5556280  41.6626360  30.2895560   3.6155020  40.6402690  29.1746290
   9.0181420  42.6752290  30.6072280   8.1675010  42.3758040  30.9281350
   8.8583210  42.9194300  29.6956100   6.1131130  44.1754040  32.7071070
   6.4384540  43.3417790  32.3673300   6.9011460  44.6982560  32.8549400
   2.8465920  38.2085520  18.7546130   2.2220100  38.2045390  19.4799440
   2.7596040  37.3416480  18.3582100   1.7683000  39.1322150  25.7329900
   2.0655330  40.0384980  25.6521920   2.3168560  38.6440930  25.1189470
   6.7519080  43.7171760  20.2012200   6.1527970  44.4407560  20.0175820
   7.2998690  43.6548540  19.4188650   1.9620530  44.6093970  32.2681820
   1.8664130  43.6688700  32.1182220   2.8052510  44.8309040  31.8729890
   5.3583950  42.3535300  22.2315480   5.7513520  42.6707500  21.4184170
   5.7200800  41.4747180  22.3460000   3.6676120  41.1042610  33.4912340
   2.9774440  40.9114810  34.1258430   4.4108420  41.3877250  34.0236640
   5.9439090  44.9441050  26.3266260   5.2120210  45.4527860  26.6756360
   5.5463430  44.1271030  26.0255040   2.3816480  41.6195250  24.7318750
   2.3852540  41.1785200  23.8823290   3.2767600  41.9412580  24.8390570
   2.4436630  42.6207330  17.7225510   2.5649450  42.5793810  18.6711330
   2.0585140  43.4831480  17.5672240   6.4065000  40.3974730  25.7389200
   6.4237740  40.8483380  26.5831050   6.1580580  39.4980370  25.9522640
   9.8335750  37.8106910  31.5775580  10.1581520  37.0796570  32.1033560
   9.8692260  37.4920550  30.6756570   2.6824450  45.6797030  26.4784160
   3.0494580  45.2055600  27.2245500   2.4929510  46.5538600  26.8192500
   9.7593590  47.9232020  25.1861610  10.4792710  48.4187310  24.7957720
   9.5575410  47.2449910  24.5415480   5.2203530  39.3169980  19.3291000
   4.4068140  38.8183150  19.2536310   5.0265480  40.1568230  18.9127350
   5.1412390  47.9941080  31.0730610   5.0749700  47.0736750  30.8188200
   4.5117530  48.0916520  31.7875250   7.9351920  43.6889630  17.6253160
   8.8231540  44.0006860  17.4504500   7.9057010  42.8161880  17.2333740
   3.9312510  49.8613320  18.3041330   4.2728210  50.6055550  17.8084650
   3.1025220  50.1744440  18.6666160   5.0729120  50.8161650  30.8234410
   5.0873660  49.8842610  30.6053320   4.3654220  50.9021410  31.4624180
  10.2066190  45.0001470  17.0933020  10.1229910  45.4315690  16.2429460
  10.9260380  45.4599820  17.5259840  11.2840330  47.4568990  30.1702990
  10.5588520  48.0497770  29.9732380  11.8115790  47.4492530  29.3716360
  11.2353440  51.8543730  19.8215150  10.5929600  51.1999350  20.0958870
  10.8484100  52.2598820  19.0455820   6.8139920  49.1829160  23.6686840
   7.1663740  48.5857290  23.0088210   5.9302250  48.8573390  23.8395090
   2.9003200  49.9426850  21.0757250   3.5874330  50.4896060  21.4564840
   2.1135620  50.4867580  21.1106860   2.2030410  46.9472880  20.6882610
   2.6593190  47.7578130  20.9142800   1.8518620  46.6296020  21.5201100
   4.5063020  52.4579220  27.9174910   5.1505240  52.6638600  28.5948330
   4.8692460  51.6967620  27.4645760   5.7795100  50.4611570  26.6352360
   6.4217330  49.7604730  26.7484530   6.3044450  51.2410010  26.4549250
   9.6250820  50.7460190  16.3591500   9.3988400  50.0290630  16.9516140
   9.2347020  50.4972630  15.5213250   7.5532720  51.2606470  29.8388420
   7.8888960  51.8473160  30.5166340   6.6333060  51.1299180  30.0686210
   9.2067070  48.6632130  18.0205660   8.9188770  49.1244820  18.8083540
  10.0019240  48.2029900  18.2889880   3.3821300  51.3097800  33.0076480
   3.0618170  50.5907040  33.5522170   2.7079660  51.9852870  33.0812540
   6.5974900  41.5423960  28.3713280   6.9655720  40.7219170  28.6992850
   5.7373100  41.6025850  28.7868930   9.9636930  40.4980900  19.1800840
   9.3350090  40.6026570  18.4659070   9.4688850  40.7177680  19.9694720
   4.4095070  52.2186490  16.6134820   4.5107050  52.0150480  15.6836800
   3.5096810  51.9644770  16.8182600   3.5576890  44.1963550  28.5951250
   4.0562140  44.6709370  29.2603100   3.6999840  43.2727070  28.8021280
   5.9636390  39.5017510  22.0354510   5.8404170  39.5203640  21.0864020
   6.9120950  39.5496450  22.1552910   3.0513180  54.7372810  21.3082490
   3.3054680  54.6994200  20.3861860   2.1025660  54.6106140  21.3010740
  10.7643750  40.4131510  29.4379640  10.2617350  41.1536910  29.7773450
  11.5800410  40.8015510  29.1216430   9.0565760  45.6564690  22.8841000
   8.1155900  45.6714920  23.0588690   9.3709830  44.8700650  23.3301300
  11.0591340  52.8273540  24.5595260  11.1838760  53.6504710  25.0319070
  11.9256900  52.6164270  24.2119410   6.3731780  50.2130690  33.3673380
   5.7669940  50.2362290  32.6269130   6.0685890  49.4813730  33.9040630
   7.8032150  53.9410980  31.9782790   8.7553900  53.8569000  31.9283030
   7.6560370  54.6052690  32.6516580  10.6941350  53.3205190  17.4774700
  10.4082860  52.9070330  16.6628880  10.4960900  54.2492900  17.3575220
   2.1588580  49.3138470  15.9180310   2.0539220  48.6990820  16.6441690
   1.9912800  48.7904360  15.1343320   5.3991310  48.3758500  16.5222300
   4.8501410  48.8227800  17.1665040   6.0210570  47.8707750  17.0459970
   9.4526250  49.7300600  32.4544560  10.1935720  50.0676360  31.9512020
   8.6898930  49.8992660  31.9014330   3.5794070  46.3587030  15.6664700
   4.0999730  45.6436050  15.3005850   4.2262470  46.9972900  15.9665210
   8.1271910  47.7815430  30.9899770   8.5412930  47.9360510  31.8390190
   7.1922910  47.9070650  31.1525550   8.5994080  45.1211590  32.9938920
   9.1814850  44.3663910  32.9059400   8.7755850  45.6519030  32.2170400
   2.4827590  38.8381580  28.3383260   2.0344890  38.8605840  27.4928810
   1.8492790  38.4400600  28.9353560   2.8887140  47.7335910  28.9595700
   3.3075250  48.5768640  28.7871940   1.9695770  47.8707950  28.7302480
   5.2251040  45.4652090  30.3433540   5.3447250  44.8693230  31.0828380
   6.0845040  45.5021780  29.9234840   7.5638940  46.0189280  28.9196050
   7.0374160  46.5431900  28.3161190   7.9070280  46.6516670  29.5505780
   6.8113240  41.6239250  31.8342380   6.1228760  40.9620790  31.7692370
   7.5319260  41.1777520  32.2790840   7.4413640  38.2190880  17.8932640
   7.7215930  37.3758780  18.2492060   6.6679370  38.4513990  18.4071390
   3.5956770  55.2740130  30.3340080   3.5215470  56.1775270  30.6412450
   2.6935610  54.9552030  30.3062150   4.1442100  54.4398640  17.9566440
   5.0392890  54.7783610  17.9785200   4.1759730  53.7178050  17.3290720
  11.1236450  52.9702310  30.6632640  10.5238440  53.0294870  29.9196560
  11.2530350  52.0307290  30.7929490  12.3637900  50.7120130  16.0002350
  11.5330860  50.7796780  16.4709580  12.5409730  51.6024250  15.6969210
  11.8194360  47.4567610  18.5036550  12.5813270  48.0264260  18.6096240
  11.8348730  46.8894810  19.2744860  12.8254330  48.3117710  23.3478480
  13.1963160  47.5285030  22.9414450  13.4656260  49.0006810  23.1695780
   9.8088090  49.6954290  28.7608800   8.9947930  50.1251450  29.0234590
  10.2162290  50.3072700  28.1477850  11.8713530  47.7501980  15.6609070
  12.1462370  48.6580860  15.5328290  11.6824270  47.6864510  16.5971060
   8.2689140  40.7746830  16.9562700   8.6874020  40.5877810  16.1159360
   7.9625200  39.9225880  17.2665630  11.7678870  45.6870970  20.6538500
  11.3922470  44.9198900  20.2219790  11.0381990  46.0693670  21.1413430
  11.1578490  44.8342490  30.2878020  10.9264580  44.6055240  29.3875970
  11.4183040  45.7542040  30.2422910   9.5966560  40.0598920  33.0657720
  10.4736740  40.0682320  33.4491720   9.6087400  39.3229760  32.4550070
  11.0429830  43.9128460  23.9545740  11.5667310  43.4191110  23.3235910
  11.6289250  44.0478820  24.6993310  11.2219550  43.9968330  27.4765290
  10.2722260  43.9631870  27.5910280  11.4032560  44.9068440  27.2415060
  10.5329800  43.1701810  19.8938150  11.0288920  42.9372680  20.6787030
  10.3345870  42.3313650  19.4775790  11.9616960  41.8062760  22.4275830
  11.8516240  41.6518800  23.3658100  12.7224550  41.2783700  22.1851240
  10.3082680  37.7456890  28.8858830  10.9454900  38.3591030  29.2518020
  10.4557570  37.7817550  27.9408060  12.8507230  39.6370680  15.6681970
  13.7756540  39.5051860  15.4600260  12.8283020  39.7163500  16.6218420
  12.9245720  40.4081340  18.2938680  12.1297220  40.3426460  18.8231590
  13.1289000  41.3431980  18.2824030   9.8664140  54.4472890  22.2877070
  10.4623210  54.1257460  21.6111490  10.1242290  53.9744710  23.0790340
   3.6787160  38.8983080  31.7933930   3.6176050  39.4904910  32.5429340
   4.6187540  38.7909040  31.6484190   6.3161720  38.5553140  31.4326220
   6.9302130  38.8732430  30.7707300   6.8611280  38.0701730  32.0522080
  12.7336900  54.4544770  28.8388060  12.2395180  54.8513640  28.1215190
  12.1250190  53.8293980  29.2325340   7.0569760  37.1185280  27.7595510
   6.1829600  37.4520390  27.5568440   6.9480510  36.6458460  28.5847380
   7.9641740  39.3256150  29.1437230   7.6355100  38.5107910  28.7638960
   8.9124040  39.2825960  29.0202920  10.4176350  55.0968190  26.1174800
   9.9579320  55.8484000  25.7432820   9.7888810  54.3774660  26.0589600
   3.5867570  54.2964920  26.1191910   3.8745380  54.0419220  25.2424920
   4.0990790  53.7442280  26.7097480   4.8044580  38.0355120  26.6988420
   4.0216370  38.5100620  26.9785180   4.5107510  37.1309950  26.5901600
   9.3565650  38.7378220  24.7437510   9.7973740  38.6823320  23.8959110
   9.0873240  39.6536230  24.8147690  11.2204220  38.3693460  22.7546330
  11.1592620  37.4254680  22.6077350  11.9996250  38.4773550  23.2999790
   2.6898800  40.4541870  22.2104450   1.8773310  40.0798760  21.8700330
   3.1940440  39.6986950  22.5125640   7.1923780  37.1184320  23.4487520
   7.7953150  37.6904530  23.9236040   6.4516770  37.6823760  23.2261420
  10.3358380  37.5205880  18.7227800  10.5309010  38.4189330  18.9895230
   9.5488250  37.2892960  19.2160750   3.6539930  55.2181020  33.4860110
   4.5807240  54.9825290  33.5296070   3.6390360  56.0453020  33.0046140
  11.8884990  54.7606590  20.4834360  12.0637180  54.0744330  19.8395280
  11.1906560  55.2853640  20.0911030   7.4419000  37.2979350  33.8282460
   7.3284450  37.6173960  34.7233980   8.2588740  37.6991860  33.5319740
  10.2217490  54.4450880  33.3101150  11.0142810  53.9500110  33.1027110
  10.5150640  55.1241020  33.9176760   6.3477150  45.3171820   4.1917200
   6.2671200  44.4026430   3.9208910   5.9341570  45.8138890   3.4856910
   4.4795190  47.0950840   6.0726470   3.7037290  46.6151280   6.3625040
   5.1308120  46.4156490   5.8982630   8.5002620  51.5011030   4.8525600
   8.0384150  50.7298270   5.1812770   9.3128170  51.5277100   5.3578050
   4.7265930  53.7869040   4.4729590   4.1077370  54.2426540   3.9024030
   5.5817710  53.9420500   4.0719290   3.9204180  49.7708030   6.0796630
   3.8512460  48.8297970   5.9185760   4.6824040  49.8609440   6.6519200
   4.9509350  42.5778410   6.3065560   5.3274170  41.7050290   6.1939230
   4.8528860  42.9137110   5.4156000   8.7333470  40.0728850   3.2393900
   9.5543090  39.5825420   3.2819380   8.7667550  40.6626510   3.9925740
  13.0233020  42.0895600   9.8037530  12.3185190  42.4777310   9.2852640
  13.2890940  42.7845890  10.4058460   8.9694950  42.0129230   6.0121440
   8.2650520  42.3014120   6.5924550   9.3307110  42.8229340   5.6521000
  10.5857730  51.6304360   8.2748920   9.9021250  52.3003470   8.2665590
  11.1252020  51.8285010   7.5093780  12.0381870  41.4584020   6.4030650
  11.0906780  41.4923000   6.5346080  12.3631860  42.2722970   6.7880010
   8.1216470  53.4748490   6.9894100   8.1343630  53.0710780   6.1216360
   7.5691690  54.2495780   6.8855530   9.4161890  50.1964710   2.0784270
   9.3058220  49.2539040   2.2033690   9.4130140  50.5580350   2.9647030
   7.5201910  48.3778330   8.3176710   7.9370700  48.1638440   7.4830170
   8.2441730  48.6351120   8.8885330  11.4664010  46.7765550   8.4092950
  10.6382640  46.8458640   7.9343080  12.0614490  47.3619860   7.9408780
   8.4306020  43.5634870   9.3547820   8.0177200  44.3888580   9.6087810
   7.6981970  42.9779910   9.1624180   9.1206120  53.6094200  10.0428800
   8.6436680  54.4166390   9.8501410   8.4367910  52.9572530  10.1955010
   5.2739540  51.5633210   2.9136000   5.7135450  52.3057540   2.4991390
   5.2126430  51.8059780   3.8374960  12.7005330  53.3706140  15.1120190
  13.1765050  53.8489030  15.7909270  13.3212490  53.3023630  14.3865690
  12.1038580  50.5618990  12.2720200  12.2301640  50.3230870  11.3537380
  12.1459960  49.7303530  12.7442280   5.9655320  54.2646990  10.8415010
   6.4799990  54.1755000  11.6437440   5.1224400  54.6106690  11.1342920
   7.2085780  53.6852600   2.9045500   7.6642730  52.9041980   3.2184120
   7.5478300  54.3959420   3.4486680  11.9562590  42.6151450  13.2369940
  11.3406860  43.1231120  12.7085400  11.6359010  41.7149780  13.1795880
   4.0176910  41.4543340  10.7032130   3.5556280  41.6626360  11.5152070
   3.6155020  40.6402690  10.4002800   9.0181420  42.6752290  11.8328790
   8.1675010  42.3758040  12.1537860   8.8583210  42.9194300  10.9212610
   6.1131130  44.1754040  13.9327580   6.4384540  43.3417790  13.5929810
   6.9011460  44.6982560  14.0805910   1.7683000  39.1322150   6.9586410
   2.0655330  40.0384980   6.8778430   2.3168560  38.6440930   6.3445980
   1.9620530  44.6093970  13.4938330   1.8664130  43.6688700  13.3438730
   2.8052510  44.8309040  13.0986400   5.3583950  42.3535300   3.4571990
   5.7513520  42.6707500   2.6440680   5.7200800  41.4747180   3.5716510
   3.6676120  41.1042610  14.7168850   2.9774440  40.9114810  15.3514940
   4.4108420  41.3877250  15.2493150   5.9439090  44.9441050   7.5522770
   5.2120210  45.4527860   7.9012870   5.5463430  44.1271030   7.2511550
   2.3816480  41.6195250   5.9575260   2.3852540  41.1785200   5.1079800
   3.2767600  41.9412580   6.0647080   6.4065000  40.3974730   6.9645710
   6.4237740  40.8483380   7.8087560   6.1580580  39.4980370   7.1779150
   9.8335750  37.8106910  12.8032090  10.1581520  37.0796570  13.3290070
   9.8692260  37.4920550  11.9013080   2.6824450  45.6797030   7.7040670
   3.0494580  45.2055600   8.4502010   2.4929510  46.5538600   8.0449010
   9.7593590  47.9232020   6.4118120  10.4792710  48.4187310   6.0214230
   9.5575410  47.2449910   5.7671990   5.1412390  47.9941080  12.2987120
   5.0749700  47.0736750  12.0444710   4.5117530  48.0916520  13.0131760
   5.0729120  50.8161650  12.0490920   5.0873660  49.8842610  11.8309830
   4.3654220  50.9021410  12.6880690  11.2840330  47.4568990  11.3959500
  10.5588520  48.0497770  11.1988890  11.8115790  47.4492530  10.5972870
   6.8139920  49.1829160   4.8943350   7.1663740  48.5857290   4.2344720
   5.9302250  48.8573390   5.0651600   2.9003200  49.9426850   2.3013760
   3.5874330  50.4896060   2.6821350   2.1135620  50.4867580   2.3363370
   2.2030410  46.9472880   1.9139120   2.6593190  47.7578130   2.1399310
   1.8518620  46.6296020   2.7457610   4.5063020  52.4579220   9.1431420
   5.1505240  52.6638600   9.8204840   4.8692460  51.6967620   8.6902270
   5.7795100  50.4611570   7.8608870   6.4217330  49.7604730   7.9741040
   6.3044450  51.2410010   7.6805760   7.5532720  51.2606470  11.0644930
   7.8888960  51.8473160  11.7422850   6.6333060  51.1299180  11.2942720
   3.3821300  51.3097800  14.2332990   3.0618170  50.5907040  14.7778680
   2.7079660  51.9852870  14.3069050   6.5974900  41.5423960   9.5969790
   6.9655720  40.7219170   9.9249360   5.7373100  41.6025850  10.0125440
   3.5576890  44.1963550   9.8207760   4.0562140  44.6709370  10.4859610
   3.6999840  43.2727070  10.0277790   5.9636390  39.5017510   3.2611020
   5.8404170  39.5203640   2.3120530   6.9120950  39.5496450   3.3809420
   3.0513180  54.7372810   2.5339000   3.3054680  54.6994200   1.6118370
   2.1025660  54.6106140   2.5267250  10.7643750  40.4131510  10.6636150
  10.2617350  41.1536910  11.0029960  11.5800410  40.8015510  10.3472940
   9.0565760  45.6564690   4.1097510   8.1155900  45.6714920   4.2845200
   9.3709830  44.8700650   4.5557810  11.0591340  52.8273540   5.7851770
  11.1838760  53.6504710   6.2575580  11.9256900  52.6164270   5.4375920
   6.3731780  50.2130690  14.5929890   5.7669940  50.2362290  13.8525640
   6.0685890  49.4813730  15.1297140   7.8032150  53.9410980  13.2039300
   8.7553900  53.8569000  13.1539540   7.6560370  54.6052690  13.8773090
   9.4526250  49.7300600  13.6801070  10.1935720  50.0676360  13.1768530
   8.6898930  49.8992660  13.1270840   8.1271910  47.7815430  12.2156280
   8.5412930  47.9360510  13.0646700   7.1922910  47.9070650  12.3782060
   8.5994080  45.1211590  14.2195430   9.1814850  44.3663910  14.1315910
   8.7755850  45.6519030  13.4426910   2.4827590  38.8381580   9.5639770
   2.0344890  38.8605840   8.7185320   1.8492790  38.4400600  10.1610070
   2.8887140  47.7335910  10.1852210   3.3075250  48.5768640  10.0128450
   1.9695770  47.8707950   9.9558990   5.2251040  45.4652090  11.5690050
   5.3447250  44.8693230  12.3084890   6.0845040  45.5021780  11.1491350
   7.5638940  46.0189280  10.1452560   7.0374160  46.5431900   9.5417700
   7.9070280  46.6516670  10.7762290   6.8113240  41.6239250  13.0598890
   6.1228760  40.9620790  12.9948880   7.5319260  41.1777520  13.5047350
   3.5956770  55.2740130  11.5596590   3.5215470  56.1775270  11.8668960
   2.6935610  54.9552030  11.5318660  11.1236450  52.9702310  11.8889150
  10.5238440  53.0294870  11.1453070  11.2530350  52.0307290  12.0186000
  12.8254330  48.3117710   4.5734990  13.1963160  47.5285030   4.1670960
  13.4656260  49.0006810   4.3952290   9.8088090  49.6954290   9.9865310
   8.9947930  50.1251450  10.2491100  10.2162290  50.3072700   9.3734360
  11.7678870  45.6870970   1.8795010  11.3922470  44.9198900   1.4476300
  11.0381990  46.0693670   2.3669940  11.1578490  44.8342490  11.5134530
  10.9264580  44.6055240  10.6132480  11.4183040  45.7542040  11.4679420
   9.5966560  40.0598920  14.2914230  10.4736740  40.0682320  14.6748230
   9.6087400  39.3229760  13.6806580  11.0429830  43.9128460   5.1802250
  11.5667310  43.4191110   4.5492420  11.6289250  44.0478820   5.9249820
  11.2219550  43.9968330   8.7021800  10.2722260  43.9631870   8.8166790
  11.4032560  44.9068440   8.4671570  11.9616960  41.8062760   3.6532340
  11.8516240  41.6518800   4.5914610  12.7224550  41.2783700   3.4107750
  10.3082680  37.7456890  10.1115340  10.9454900  38.3591030  10.4774530
  10.4557570  37.7817550   9.1664570   9.8664140  54.4472890   3.5133580
  10.4623210  54.1257460   2.8368000  10.1242290  53.9744710   4.3046850
   3.6787160  38.8983080  13.0190440   3.6176050  39.4904910  13.7685850
   4.6187540  38.7909040  12.8740700   6.3161720  38.5553140  12.6582730
   6.9302130  38.8732430  11.9963810   6.8611280  38.0701730  13.2778590
  12.7336900  54.4544770  10.0644570  12.2395180  54.8513640   9.3471700
  12.1250190  53.8293980  10.4581850   7.0569760  37.1185280   8.9852020
   6.1829600  37.4520390   8.7824950   6.9480510  36.6458460   9.8103890
   7.9641740  39.3256150  10.3693740   7.6355100  38.5107910   9.9895470
   8.9124040  39.2825960  10.2459430  10.4176350  55.0968190   7.3431310
   9.9579320  55.8484000   6.9689330   9.7888810  54.3774660   7.2846110
   3.5867570  54.2964920   7.3448420   3.8745380  54.0419220   6.4681430
   4.0990790  53.7442280   7.9353990   4.8044580  38.0355120   7.9244930
   4.0216370  38.5100620   8.2041690   4.5107510  37.1309950   7.8158110
   9.3565650  38.7378220   5.9694020   9.7973740  38.6823320   5.1215620
   9.0873240  39.6536230   6.0404200  11.2204220  38.3693460   3.9802840
  11.1592620  37.4254680   3.8333860  11.9996250  38.4773550   4.5256300
   2.6898800  40.4541870   3.4360960   1.8773310  40.0798760   3.0956840
   3.1940440  39.6986950   3.7382150   7.1923780  37.1184320   4.6744030
   7.7953150  37.6904530   5.1492550   6.4516770  37.6823760   4.4517930
   3.6539930  55.2181020  14.7116620   4.5807240  54.9825290  14.7552580
   3.6390360  56.0453020  14.2302650   7.4419000  37.2979350  15.0538970
   7.3284450  37.6173960  15.9490490   8.2588740  37.6991860  14.7576250
  10.2217490  54.4450880  14.5357660  11.0142810  53.9500110  14.3283620
  10.5150640  55.1241020  15.1433270   6.3477150  26.5428330  60.5147670
   6.2671200  25.6282940  60.2439380   5.9341570  27.0395400  59.8087380
   4.4795190  28.3207350  62.3956940   3.7037290  27.8407790  62.6855510
   5.1308120  27.6413000  62.2213100   8.5002620  32.7267540  61.1756070
   8.0384150  31.9554780  61.5043240   9.3128170  32.7533610  61.6808520
   4.7265930  35.0125550  60.7960060   4.1077370  35.4683050  60.2254500
   5.5817710  35.1677010  60.3949760   3.9204180  30.9964540  62.4027100
   3.8512460  30.0554480  62.2416230   4.6824040  31.0865950  62.9749670
   4.9509350  23.8034920  62.6296030   5.3274170  22.9306800  62.5169700
   4.8528860  24.1393620  61.7386470   8.7333470  21.2985360  59.5624370
   9.5543090  20.8081930  59.6049850   8.7667550  21.8883020  60.3156210
   5.5929280  29.8964790  58.1891970   4.9746550  30.3614240  57.6254690
   6.1052530  30.5892270  58.6061480   8.9694950  23.2385740  62.3351910
   8.2650520  23.5270630  62.9155020   9.3307110  24.0485850  61.9751470
  10.5857730  32.8560870  64.5979390   9.9021250  33.5259980  64.5896060
  11.1252020  33.0541520  63.8324250  12.0381870  22.6840530  62.7261120
  11.0906780  22.7179510  62.8576550  12.3631860  23.4979480  63.1110480
   8.1216470  34.7005000  63.3124570   8.1343630  34.2967290  62.4446830
   7.5691690  35.4752290  63.2086000   9.4161890  31.4221220  58.4014740
   9.3058220  30.4795550  58.5264160   9.4130140  31.7836860  59.2877500
   7.5201910  29.6034840  64.6407180   7.9370700  29.3894950  63.8060640
   8.2441730  29.8607630  65.2115800   4.9582170  27.0486540  57.7577230
   4.0311450  26.9823920  57.9865700   5.1106990  27.9866670  57.6432470
   4.9451250  23.3203540  54.7544390   4.0054920  23.4817500  54.8396850
   5.2634510  24.0389220  54.2080380  11.4664010  28.0022060  64.7323420
  10.6382640  28.0715150  64.2573550  12.0614490  28.5876370  64.2639250
   8.9879460  28.6106840  58.2612480   8.3691880  28.2726390  57.6138780
   8.9703910  27.9666600  58.9691670   8.4306020  24.7891380  65.6778290
   8.0177200  25.6145090  65.9318280   7.6981970  24.2036420  65.4854650
   9.1206120  34.8350710  66.3659270   8.6436680  35.6422900  66.1731880
   8.4367910  34.1829040  66.5185480   7.1644160  27.8493650  55.2685230
   7.6037440  27.0116080  55.1223050   7.8772580  28.4823050  55.3549370
   5.2739540  32.7889720  59.2366470   5.7135450  33.5314050  58.8221860
   5.2126430  33.0316290  60.1605430  10.7461300  19.1036460  53.5826270
  10.4333960  19.1963290  54.4825340  11.5073770  19.6817490  53.5323700
   7.9409720  35.7758840  56.5929480   7.7810860  35.4861780  57.4911310
   7.7756430  34.9998970  56.0574710   7.6435850  33.2846400  55.1527480
   6.9501010  33.2823690  54.4929760   8.3858710  32.8605720  54.7221650
   7.2085780  34.9109110  59.2275970   7.6642730  34.1298490  59.5414590
   7.5478300  35.6215930  59.7717150   2.8465920  19.4342030  56.3033110
   2.2220100  19.4301900  57.0286420   2.7596040  18.5672990  55.9069080
   1.7683000  20.3578660  63.2816880   2.0655330  21.2641490  63.2008900
   2.3168560  19.8697440  62.6676450   6.7519080  24.9428270  57.7499180
   6.1527970  25.6664070  57.5662800   7.2998690  24.8805050  56.9675630
   5.3583950  23.5791810  59.7802460   5.7513520  23.8964010  58.9671150
   5.7200800  22.7003690  59.8946980   5.9439090  26.1697560  63.8753240
   5.2120210  26.6784370  64.2243340   5.5463430  25.3527540  63.5742020
   2.3816480  22.8451760  62.2805730   2.3852540  22.4041710  61.4310270
   3.2767600  23.1669090  62.3877550   2.4436630  23.8463840  55.2712490
   2.5649450  23.8050320  56.2198310   2.0585140  24.7087990  55.1159220
   6.4065000  21.6231240  63.2876180   6.4237740  22.0739890  64.1318030
   6.1580580  20.7236880  63.5009620   2.6824450  26.9053540  64.0271140
   3.0494580  26.4312110  64.7732480   2.4929510  27.7795110  64.3679480
   9.7593590  29.1488530  62.7348590  10.4792710  29.6443820  62.3444700
   9.5575410  28.4706420  62.0902460   5.2203530  20.5426490  56.8777980
   4.4068140  20.0439660  56.8023290   5.0265480  21.3824740  56.4614330
   7.9351920  24.9146140  55.1740140   8.8231540  25.2263370  54.9991480
   7.9057010  24.0418390  54.7820720   3.9312510  31.0869830  55.8528310
   4.2728210  31.8312060  55.3571630   3.1025220  31.4000950  56.2153140
  10.2066190  26.2257980  54.6420000  10.1229910  26.6572200  53.7916440
  10.9260380  26.6856330  55.0746820  11.2353440  33.0800240  57.3702130
  10.5929600  32.4255860  57.6445850  10.8484100  33.4855330  56.5942800
   6.8139920  30.4085670  61.2173820   7.1663740  29.8113800  60.5575190
   5.9302250  30.0829900  61.3882070   2.9003200  31.1683360  58.6244230
   3.5874330  31.7152570  59.0051820   2.1135620  31.7124090  58.6593840
   2.2030410  28.1729390  58.2369590   2.6593190  28.9834640  58.4629780
   1.8518620  27.8552530  59.0688080   4.5063020  33.6835730  65.4661890
   5.1505240  33.8895110  66.1435310   4.8692460  32.9224130  65.0132740
   5.7795100  31.6868080  64.1839340   6.4217330  30.9861240  64.2971510
   6.3044450  32.4666520  64.0036230   9.6250820  31.9716700  53.9078480
   9.3988400  31.2547140  54.5003120   9.2347020  31.7229140  53.0700230
   9.2067070  29.8888640  55.5692640   8.9188770  30.3501330  56.3570520
  10.0019240  29.4286410  55.8376860   6.5974900  22.7680470  65.9200260
   6.9655720  21.9475680  66.2479830   5.7373100  22.8282360  66.3355910
   9.9636930  21.7237410  56.7287820   9.3350090  21.8283080  56.0146050
   9.4688850  21.9434190  57.5181700   4.4095070  33.4443000  54.1621800
   4.5107050  33.2406990  53.2323780   3.5096810  33.1901280  54.3669580
   5.9636390  20.7274020  59.5841490   5.8404170  20.7460150  58.6351000
   6.9120950  20.7752960  59.7039890   3.0513180  35.9629320  58.8569470
   3.3054680  35.9250710  57.9348840   2.1025660  35.8362650  58.8497720
   9.0565760  26.8821200  60.4327980   8.1155900  26.8971430  60.6075670
   9.3709830  26.0957160  60.8788280  11.0591340  34.0530050  62.1082240
  11.1838760  34.8761220  62.5806050  11.9256900  33.8420780  61.7606390
  10.6941350  34.5461700  55.0261680  10.4082860  34.1326840  54.2115860
  10.4960900  35.4749410  54.9062200   2.1588580  30.5394980  53.4667290
   2.0539220  29.9247330  54.1928670   1.9912800  30.0160870  52.6830300
   5.3991310  29.6015010  54.0709280   4.8501410  30.0484310  54.7152020
   6.0210570  29.0964260  54.5946950   3.5794070  27.5843540  53.2151680
   4.0999730  26.8692560  52.8492830   4.2262470  28.2229410  53.5152190
   2.4827590  20.0638090  65.8870240   2.0344890  20.0862350  65.0415790
   1.8492790  19.6657110  66.4840540   2.8887140  28.9592420  66.5082680
   3.3075250  29.8025150  66.3358920   1.9695770  29.0964460  66.2789460
   7.4413640  19.4447390  55.4419620   7.7215930  18.6015290  55.7979040
   6.6679370  19.6770500  55.9558370   4.1442100  35.6655150  55.5053420
   5.0392890  36.0040120  55.5272180   4.1759730  34.9434560  54.8777700
  12.3637900  31.9376640  53.5489330  11.5330860  32.0053290  54.0196560
  12.5409730  32.8280760  53.2456190  11.8194360  28.6824120  56.0523530
  12.5813270  29.2520770  56.1583220  11.8348730  28.1151320  56.8231840
  12.8254330  29.5374220  60.8965460  13.1963160  28.7541540  60.4901430
  13.4656260  30.2263320  60.7182760  11.8713530  28.9758490  53.2096050
  12.1462370  29.8837370  53.0815270  11.6824270  28.9121020  54.1458040
   8.2689140  22.0003340  54.5049680   8.6874020  21.8134320  53.6646340
   7.9625200  21.1482390  54.8152610  11.7678870  26.9127480  58.2025480
  11.3922470  26.1455410  57.7706770  11.0381990  27.2950180  58.6900410
  11.0429830  25.1384970  61.5032720  11.5667310  24.6447620  60.8722890
  11.6289250  25.2735330  62.2480290  11.2219550  25.2224840  65.0252270
  10.2722260  25.1888380  65.1397260  11.4032560  26.1324950  64.7902040
  10.5329800  24.3958320  57.4425130  11.0288920  24.1629190  58.2274010
  10.3345870  23.5570160  57.0262770  11.9616960  23.0319270  59.9762810
  11.8516240  22.8775310  60.9145080  12.7224550  22.5040210  59.7338220
  12.8507230  20.8627190  53.2168950  13.7756540  20.7308370  53.0087240
  12.8283020  20.9420010  54.1705400  12.9245720  21.6337850  55.8425660
  12.1297220  21.5682970  56.3718570  13.1289000  22.5688490  55.8311010
   9.8664140  35.6729400  59.8364050  10.4623210  35.3513970  59.1598470
  10.1242290  35.2001220  60.6277320   7.0569760  18.3441790  65.3082490
   6.1829600  18.6776900  65.1055420   6.9480510  17.8714970  66.1334360
  10.4176350  36.3224700  63.6661780   9.9579320  37.0740510  63.2919800
   9.7888810  35.6031170  63.6076580   3.5867570  35.5221430  63.6678890
   3.8745380  35.2675730  62.7911900   4.0990790  34.9698790  64.2584460
   4.8044580  19.2611630  64.2475400   4.0216370  19.7357130  64.5272160
   4.5107510  18.3566460  64.1388580   9.3565650  19.9634730  62.2924490
   9.7973740  19.9079830  61.4446090   9.0873240  20.8792740  62.3634670
  11.2204220  19.5949970  60.3033310  11.1592620  18.6511190  60.1564330
  11.9996250  19.7030060  60.8486770   2.6898800  21.6798380  59.7591430
   1.8773310  21.3055270  59.4187310   3.1940440  20.9243460  60.0612620
   7.1923780  18.3440830  60.9974500   7.7953150  18.9161040  61.4723020
   6.4516770  18.9080270  60.7748400  10.3358380  18.7462390  56.2714780
  10.5309010  19.6445840  56.5382210   9.5488250  18.5149470  56.7647730
  11.8884990  35.9863100  58.0321340  12.0637180  35.3000840  57.3882260
  11.1906560  36.5110150  57.6398010   6.3477150  26.5428330  41.7404180
   6.2671200  25.6282940  41.4695890   5.9341570  27.0395400  41.0343890
   4.4795190  28.3207350  43.6213450   3.7037290  27.8407790  43.9112020
   5.1308120  27.6413000  43.4469610   8.5002620  32.7267540  42.4012580
   8.0384150  31.9554780  42.7299750   9.3128170  32.7533610  42.9065030
   4.7265930  35.0125550  42.0216570   4.1077370  35.4683050  41.4511010
   5.5817710  35.1677010  41.6206270   3.9204180  30.9964540  43.6283610
   3.8512460  30.0554480  43.4672740   4.6824040  31.0865950  44.2006180
   4.9509350  23.8034920  43.8552540   5.3274170  22.9306800  43.7426210
   4.8528860  24.1393620  42.9642980   8.7333470  21.2985360  40.7880880
   9.5543090  20.8081930  40.8306360   8.7667550  21.8883020  41.5412720
  13.0233020  23.3152110  47.3524510  12.3185190  23.7033820  46.8339620
  13.2890940  24.0102400  47.9545440   5.5929280  29.8964790  39.4148480
   4.9746550  30.3614240  38.8511200   6.1052530  30.5892270  39.8317990
   8.9694950  23.2385740  43.5608420   8.2650520  23.5270630  44.1411530
   9.3307110  24.0485850  43.2007980  10.5857730  32.8560870  45.8235900
   9.9021250  33.5259980  45.8152570  11.1252020  33.0541520  45.0580760
  12.0381870  22.6840530  43.9517630  11.0906780  22.7179510  44.0833060
  12.3631860  23.4979480  44.3366990   8.1216470  34.7005000  44.5381080
   8.1343630  34.2967290  43.6703340   7.5691690  35.4752290  44.4342510
   9.4161890  31.4221220  39.6271250   9.3058220  30.4795550  39.7520670
   9.4130140  31.7836860  40.5134010   7.5201910  29.6034840  45.8663690
   7.9370700  29.3894950  45.0317150   8.2441730  29.8607630  46.4372310
   4.9582170  27.0486540  38.9833740   4.0311450  26.9823920  39.2122210
   5.1106990  27.9866670  38.8688980   4.9451250  23.3203540  35.9800900
   4.0054920  23.4817500  36.0653360   5.2634510  24.0389220  35.4336890
  11.4664010  28.0022060  45.9579930  10.6382640  28.0715150  45.4830060
  12.0614490  28.5876370  45.4895760   8.9879460  28.6106840  39.4868990
   8.3691880  28.2726390  38.8395290   8.9703910  27.9666600  40.1948180
   8.4306020  24.7891380  46.9034800   8.0177200  25.6145090  47.1574790
   7.6981970  24.2036420  46.7111160   9.1206120  34.8350710  47.5915780
   8.6436680  35.6422900  47.3988390   8.4367910  34.1829040  47.7441990
   7.1644160  27.8493650  36.4941740   7.6037440  27.0116080  36.3479560
   7.8772580  28.4823050  36.5805880   5.2739540  32.7889720  40.4622980
   5.7135450  33.5314050  40.0478370   5.2126430  33.0316290  41.3861940
  10.7461300  19.1036460  34.8082780  10.4333960  19.1963290  35.7081850
  11.5073770  19.6817490  34.7580210  12.7005330  34.5962650  52.6607170
  13.1765050  35.0745540  53.3396250  13.3212490  34.5280140  51.9352670
  12.1038580  31.7875500  49.8207180  12.2301640  31.5487380  48.9024360
  12.1459960  30.9560040  50.2929260   5.9655320  35.4903500  48.3901990
   6.4799990  35.4011510  49.1924420   5.1224400  35.8363200  48.6829900
   7.9409720  35.7758840  37.8185990   7.7810860  35.4861780  38.7167820
   7.7756430  34.9998970  37.2831220   7.6435850  33.2846400  36.3783990
   6.9501010  33.2823690  35.7186270   8.3858710  32.8605720  35.9478160
   7.2085780  34.9109110  40.4532480   7.6642730  34.1298490  40.7671100
   7.5478300  35.6215930  40.9973660  11.9562590  23.8407960  50.7856920
  11.3406860  24.3487630  50.2572380  11.6359010  22.9406290  50.7282860
   4.0176910  22.6799850  48.2519110   3.5556280  22.8882870  49.0639050
   3.6155020  21.8659200  47.9489780   9.0181420  23.9008800  49.3815770
   8.1675010  23.6014550  49.7024840   8.8583210  24.1450810  48.4699590
   6.1131130  25.4010550  51.4814560   6.4384540  24.5674300  51.1416790
   6.9011460  25.9239070  51.6292890   2.8465920  19.4342030  37.5289620
   2.2220100  19.4301900  38.2542930   2.7596040  18.5672990  37.1325590
   1.7683000  20.3578660  44.5073390   2.0655330  21.2641490  44.4265410
   2.3168560  19.8697440  43.8932960   6.7519080  24.9428270  38.9755690
   6.1527970  25.6664070  38.7919310   7.2998690  24.8805050  38.1932140
   1.9620530  25.8350480  51.0425310   1.8664130  24.8945210  50.8925710
   2.8052510  26.0565550  50.6473380   5.3583950  23.5791810  41.0058970
   5.7513520  23.8964010  40.1927660   5.7200800  22.7003690  41.1203490
   3.6676120  22.3299120  52.2655830   2.9774440  22.1371320  52.9001920
   4.4108420  22.6133760  52.7980130   5.9439090  26.1697560  45.1009750
   5.2120210  26.6784370  45.4499850   5.5463430  25.3527540  44.7998530
   2.3816480  22.8451760  43.5062240   2.3852540  22.4041710  42.6566780
   3.2767600  23.1669090  43.6134060   2.4436630  23.8463840  36.4969000
   2.5649450  23.8050320  37.4454820   2.0585140  24.7087990  36.3415730
   6.4065000  21.6231240  44.5132690   6.4237740  22.0739890  45.3574540
   6.1580580  20.7236880  44.7266130   9.8335750  19.0363420  50.3519070
  10.1581520  18.3053080  50.8777050   9.8692260  18.7177060  49.4500060
   2.6824450  26.9053540  45.2527650   3.0494580  26.4312110  45.9988990
   2.4929510  27.7795110  45.5935990   9.7593590  29.1488530  43.9605100
  10.4792710  29.6443820  43.5701210   9.5575410  28.4706420  43.3158970
   5.2203530  20.5426490  38.1034490   4.4068140  20.0439660  38.0279800
   5.0265480  21.3824740  37.6870840   5.1412390  29.2197590  49.8474100
   5.0749700  28.2993260  49.5931690   4.5117530  29.3173030  50.5618740
   7.9351920  24.9146140  36.3996650   8.8231540  25.2263370  36.2247990
   7.9057010  24.0418390  36.0077230   3.9312510  31.0869830  37.0784820
   4.2728210  31.8312060  36.5828140   3.1025220  31.4000950  37.4409650
   5.0729120  32.0418160  49.5977900   5.0873660  31.1099120  49.3796810
   4.3654220  32.1277920  50.2367670  10.2066190  26.2257980  35.8676510
  10.1229910  26.6572200  35.0172950  10.9260380  26.6856330  36.3003330
  11.2840330  28.6825500  48.9446480  10.5588520  29.2754280  48.7475870
  11.8115790  28.6749040  48.1459850  11.2353440  33.0800240  38.5958640
  10.5929600  32.4255860  38.8702360  10.8484100  33.4855330  37.8199310
   6.8139920  30.4085670  42.4430330   7.1663740  29.8113800  41.7831700
   5.9302250  30.0829900  42.6138580   2.9003200  31.1683360  39.8500740
   3.5874330  31.7152570  40.2308330   2.1135620  31.7124090  39.8850350
   2.2030410  28.1729390  39.4626100   2.6593190  28.9834640  39.6886290
   1.8518620  27.8552530  40.2944590   4.5063020  33.6835730  46.6918400
   5.1505240  33.8895110  47.3691820   4.8692460  32.9224130  46.2389250
   5.7795100  31.6868080  45.4095850   6.4217330  30.9861240  45.5228020
   6.3044450  32.4666520  45.2292740   9.6250820  31.9716700  35.1334990
   9.3988400  31.2547140  35.7259630   9.2347020  31.7229140  34.2956740
   7.5532720  32.4862980  48.6131910   7.8888960  33.0729670  49.2909830
   6.6333060  32.3555690  48.8429700   9.2067070  29.8888640  36.7949150
   8.9188770  30.3501330  37.5827030  10.0019240  29.4286410  37.0633370
   3.3821300  32.5354310  51.7819970   3.0618170  31.8163550  52.3265660
   2.7079660  33.2109380  51.8556030   6.5974900  22.7680470  47.1456770
   6.9655720  21.9475680  47.4736340   5.7373100  22.8282360  47.5612420
   9.9636930  21.7237410  37.9544330   9.3350090  21.8283080  37.2402560
   9.4688850  21.9434190  38.7438210   4.4095070  33.4443000  35.3878310
   4.5107050  33.2406990  34.4580290   3.5096810  33.1901280  35.5926090
   3.5576890  25.4220060  47.3694740   4.0562140  25.8965880  48.0346590
   3.6999840  24.4983580  47.5764770   5.9636390  20.7274020  40.8098000
   5.8404170  20.7460150  39.8607510   6.9120950  20.7752960  40.9296400
   3.0513180  35.9629320  40.0825980   3.3054680  35.9250710  39.1605350
   2.1025660  35.8362650  40.0754230  10.7643750  21.6388020  48.2123130
  10.2617350  22.3793420  48.5516940  11.5800410  22.0272020  47.8959920
   9.0565760  26.8821200  41.6584490   8.1155900  26.8971430  41.8332180
   9.3709830  26.0957160  42.1044790  11.0591340  34.0530050  43.3338750
  11.1838760  34.8761220  43.8062560  11.9256900  33.8420780  42.9862900
   6.3731780  31.4387200  52.1416870   5.7669940  31.4618800  51.4012620
   6.0685890  30.7070240  52.6784120   7.8032150  35.1667490  50.7526280
   8.7553900  35.0825510  50.7026520   7.6560370  35.8309200  51.4260070
  10.6941350  34.5461700  36.2518190  10.4082860  34.1326840  35.4372370
  10.4960900  35.4749410  36.1318710   2.1588580  30.5394980  34.6923800
   2.0539220  29.9247330  35.4185180   1.9912800  30.0160870  33.9086810
   5.3991310  29.6015010  35.2965790   4.8501410  30.0484310  35.9408530
   6.0210570  29.0964260  35.8203460   9.4526250  30.9557110  51.2288050
  10.1935720  31.2932870  50.7255510   8.6898930  31.1249170  50.6757820
   3.5794070  27.5843540  34.4408190   4.0999730  26.8692560  34.0749340
   4.2262470  28.2229410  34.7408700   8.1271910  29.0071940  49.7643260
   8.5412930  29.1617020  50.6133680   7.1922910  29.1327160  49.9269040
   8.5994080  26.3468100  51.7682410   9.1814850  25.5920420  51.6802890
   8.7755850  26.8775540  50.9913890   2.4827590  20.0638090  47.1126750
   2.0344890  20.0862350  46.2672300   1.8492790  19.6657110  47.7097050
   2.8887140  28.9592420  47.7339190   3.3075250  29.8025150  47.5615430
   1.9695770  29.0964460  47.5045970   5.2251040  26.6908600  49.1177030
   5.3447250  26.0949740  49.8571870   6.0845040  26.7278290  48.6978330
   7.5638940  27.2445790  47.6939540   7.0374160  27.7688410  47.0904680
   7.9070280  27.8773180  48.3249270   6.8113240  22.8495760  50.6085870
   6.1228760  22.1877300  50.5435860   7.5319260  22.4034030  51.0534330
   7.4413640  19.4447390  36.6676130   7.7215930  18.6015290  37.0235550
   6.6679370  19.6770500  37.1814880   3.5956770  36.4996640  49.1083570
   3.5215470  37.4031780  49.4155940   2.6935610  36.1808540  49.0805640
   4.1442100  35.6655150  36.7309930   5.0392890  36.0040120  36.7528690
   4.1759730  34.9434560  36.1034210  11.1236450  34.1958820  49.4376130
  10.5238440  34.2551380  48.6940050  11.2530350  33.2563800  49.5672980
  12.3637900  31.9376640  34.7745840  11.5330860  32.0053290  35.2453070
  12.5409730  32.8280760  34.4712700  11.8194360  28.6824120  37.2780040
  12.5813270  29.2520770  37.3839730  11.8348730  28.1151320  38.0488350
  12.8254330  29.5374220  42.1221970  13.1963160  28.7541540  41.7157940
  13.4656260  30.2263320  41.9439270   9.8088090  30.9210800  47.5352290
   8.9947930  31.3507960  47.7978080  10.2162290  31.5329210  46.9221340
  11.8713530  28.9758490  34.4352560  12.1462370  29.8837370  34.3071780
  11.6824270  28.9121020  35.3714550   8.2689140  22.0003340  35.7306190
   8.6874020  21.8134320  34.8902850   7.9625200  21.1482390  36.0409120
  11.7678870  26.9127480  39.4281990  11.3922470  26.1455410  38.9963280
  11.0381990  27.2950180  39.9156920  11.1578490  26.0599000  49.0621510
  10.9264580  25.8311750  48.1619460  11.4183040  26.9798550  49.0166400
   9.5966560  21.2855430  51.8401210  10.4736740  21.2938830  52.2235210
   9.6087400  20.5486270  51.2293560  11.0429830  25.1384970  42.7289230
  11.5667310  24.6447620  42.0979400  11.6289250  25.2735330  43.4736800
  11.2219550  25.2224840  46.2508780  10.2722260  25.1888380  46.3653770
  11.4032560  26.1324950  46.0158550  10.5329800  24.3958320  38.6681640
  11.0288920  24.1629190  39.4530520  10.3345870  23.5570160  38.2519280
  11.9616960  23.0319270  41.2019320  11.8516240  22.8775310  42.1401590
  12.7224550  22.5040210  40.9594730  10.3082680  18.9713400  47.6602320
  10.9454900  19.5847540  48.0261510  10.4557570  19.0074060  46.7151550
  12.8507230  20.8627190  34.4425460  13.7756540  20.7308370  34.2343750
  12.8283020  20.9420010  35.3961910  12.9245720  21.6337850  37.0682170
  12.1297220  21.5682970  37.5975080  13.1289000  22.5688490  37.0567520
   9.8664140  35.6729400  41.0620560  10.4623210  35.3513970  40.3854980
  10.1242290  35.2001220  41.8533830   3.6787160  20.1239590  50.5677420
   3.6176050  20.7161420  51.3172830   4.6187540  20.0165550  50.4227680
   6.3161720  19.7809650  50.2069710   6.9302130  20.0988940  49.5450790
   6.8611280  19.2958240  50.8265570  12.7336900  35.6801280  47.6131550
  12.2395180  36.0770150  46.8958680  12.1250190  35.0550490  48.0068830
   7.0569760  18.3441790  46.5339000   6.1829600  18.6776900  46.3311930
   6.9480510  17.8714970  47.3590870   7.9641740  20.5512660  47.9180720
   7.6355100  19.7364420  47.5382450   8.9124040  20.5082470  47.7946410
  10.4176350  36.3224700  44.8918290   9.9579320  37.0740510  44.5176310
   9.7888810  35.6031170  44.8333090   3.5867570  35.5221430  44.8935400
   3.8745380  35.2675730  44.0168410   4.0990790  34.9698790  45.4840970
   4.8044580  19.2611630  45.4731910   4.0216370  19.7357130  45.7528670
   4.5107510  18.3566460  45.3645090   9.3565650  19.9634730  43.5181000
   9.7973740  19.9079830  42.6702600   9.0873240  20.8792740  43.5891180
  11.2204220  19.5949970  41.5289820  11.1592620  18.6511190  41.3820840
  11.9996250  19.7030060  42.0743280   2.6898800  21.6798380  40.9847940
   1.8773310  21.3055270  40.6443820   3.1940440  20.9243460  41.2869130
   7.1923780  18.3440830  42.2231010   7.7953150  18.9161040  42.6979530
   6.4516770  18.9080270  42.0004910  10.3358380  18.7462390  37.4971290
  10.5309010  19.6445840  37.7638720   9.5488250  18.5149470  37.9904240
   3.6539930  36.4437530  52.2603600   4.5807240  36.2081800  52.3039560
   3.6390360  37.2709530  51.7789630  11.8884990  35.9863100  39.2577850
  12.0637180  35.3000840  38.6138770  11.1906560  36.5110150  38.8654520
   7.4419000  18.5235860  52.6025950   7.3284450  18.8430470  53.4977470
   8.2588740  18.9248370  52.3063230  10.2217490  35.6707390  52.0844640
  11.0142810  35.1756620  51.8770600  10.5150640  36.3497530  52.6920250
   6.3477150  26.5428330  22.9660690   6.2671200  25.6282940  22.6952400
   5.9341570  27.0395400  22.2600400   4.4795190  28.3207350  24.8469960
   3.7037290  27.8407790  25.1368530   5.1308120  27.6413000  24.6726120
   8.5002620  32.7267540  23.6269090   8.0384150  31.9554780  23.9556260
   9.3128170  32.7533610  24.1321540   4.7265930  35.0125550  23.2473080
   4.1077370  35.4683050  22.6767520   5.5817710  35.1677010  22.8462780
   3.9204180  30.9964540  24.8540120   3.8512460  30.0554480  24.6929250
   4.6824040  31.0865950  25.4262690   4.9509350  23.8034920  25.0809050
   5.3274170  22.9306800  24.9682720   4.8528860  24.1393620  24.1899490
   8.7333470  21.2985360  22.0137390   9.5543090  20.8081930  22.0562870
   8.7667550  21.8883020  22.7669230  13.0233020  23.3152110  28.5781020
  12.3185190  23.7033820  28.0596130  13.2890940  24.0102400  29.1801950
   5.5929280  29.8964790  20.6404990   4.9746550  30.3614240  20.0767710
   6.1052530  30.5892270  21.0574500   8.9694950  23.2385740  24.7864930
   8.2650520  23.5270630  25.3668040   9.3307110  24.0485850  24.4264490
  10.5857730  32.8560870  27.0492410   9.9021250  33.5259980  27.0409080
  11.1252020  33.0541520  26.2837270  12.0381870  22.6840530  25.1774140
  11.0906780  22.7179510  25.3089570  12.3631860  23.4979480  25.5623500
   8.1216470  34.7005000  25.7637590   8.1343630  34.2967290  24.8959850
   7.5691690  35.4752290  25.6599020   9.4161890  31.4221220  20.8527760
   9.3058220  30.4795550  20.9777180   9.4130140  31.7836860  21.7390520
   7.5201910  29.6034840  27.0920200   7.9370700  29.3894950  26.2573660
   8.2441730  29.8607630  27.6628820   4.9582170  27.0486540  20.2090250
   4.0311450  26.9823920  20.4378720   5.1106990  27.9866670  20.0945490
   4.9451250  23.3203540  17.2057410   4.0054920  23.4817500  17.2909870
   5.2634510  24.0389220  16.6593400  11.4664010  28.0022060  27.1836440
  10.6382640  28.0715150  26.7086570  12.0614490  28.5876370  26.7152270
   8.9879460  28.6106840  20.7125500   8.3691880  28.2726390  20.0651800
   8.9703910  27.9666600  21.4204690   8.4306020  24.7891380  28.1291310
   8.0177200  25.6145090  28.3831300   7.6981970  24.2036420  27.9367670
   9.1206120  34.8350710  28.8172290   8.6436680  35.6422900  28.6244900
   8.4367910  34.1829040  28.9698500   7.1644160  27.8493650  17.7198250
   7.6037440  27.0116080  17.5736070   7.8772580  28.4823050  17.8062390
   5.2739540  32.7889720  21.6879490   5.7135450  33.5314050  21.2734880
   5.2126430  33.0316290  22.6118450  10.7461300  19.1036460  16.0339290
  10.4333960  19.1963290  16.9338360  11.5073770  19.6817490  15.9836720
  12.7005330  34.5962650  33.8863680  13.1765050  35.0745540  34.5652760
  13.3212490  34.5280140  33.1609180  12.1038580  31.7875500  31.0463690
  12.2301640  31.5487380  30.1280870  12.1459960  30.9560040  31.5185770
   5.9655320  35.4903500  29.6158500   6.4799990  35.4011510  30.4180930
   5.1224400  35.8363200  29.9086410   7.9409720  35.7758840  19.0442500
   7.7810860  35.4861780  19.9424330   7.7756430  34.9998970  18.5087730
   7.6435850  33.2846400  17.6040500   6.9501010  33.2823690  16.9442780
   8.3858710  32.8605720  17.1734670   7.2085780  34.9109110  21.6788990
   7.6642730  34.1298490  21.9927610   7.5478300  35.6215930  22.2230170
  11.9562590  23.8407960  32.0113430  11.3406860  24.3487630  31.4828890
  11.6359010  22.9406290  31.9539370   4.0176910  22.6799850  29.4775620
   3.5556280  22.8882870  30.2895560   3.6155020  21.8659200  29.1746290
   9.0181420  23.9008800  30.6072280   8.1675010  23.6014550  30.9281350
   8.8583210  24.1450810  29.6956100   6.1131130  25.4010550  32.7071070
   6.4384540  24.5674300  32.3673300   6.9011460  25.9239070  32.8549400
   2.8465920  19.4342030  18.7546130   2.2220100  19.4301900  19.4799440
   2.7596040  18.5672990  18.3582100   1.7683000  20.3578660  25.7329900
   2.0655330  21.2641490  25.6521920   2.3168560  19.8697440  25.1189470
   6.7519080  24.9428270  20.2012200   6.1527970  25.6664070  20.0175820
   7.2998690  24.8805050  19.4188650   1.9620530  25.8350480  32.2681820
   1.8664130  24.8945210  32.1182220   2.8052510  26.0565550  31.8729890
   5.3583950  23.5791810  22.2315480   5.7513520  23.8964010  21.4184170
   5.7200800  22.7003690  22.3460000   3.6676120  22.3299120  33.4912340
   2.9774440  22.1371320  34.1258430   4.4108420  22.6133760  34.0236640
   5.9439090  26.1697560  26.3266260   5.2120210  26.6784370  26.6756360
   5.5463430  25.3527540  26.0255040   2.3816480  22.8451760  24.7318750
   2.3852540  22.4041710  23.8823290   3.2767600  23.1669090  24.8390570
   2.4436630  23.8463840  17.7225510   2.5649450  23.8050320  18.6711330
   2.0585140  24.7087990  17.5672240   6.4065000  21.6231240  25.7389200
   6.4237740  22.0739890  26.5831050   6.1580580  20.7236880  25.9522640
   9.8335750  19.0363420  31.5775580  10.1581520  18.3053080  32.1033560
   9.8692260  18.7177060  30.6756570   2.6824450  26.9053540  26.4784160
   3.0494580  26.4312110  27.2245500   2.4929510  27.7795110  26.8192500
   9.7593590  29.1488530  25.1861610  10.4792710  29.6443820  24.7957720
   9.5575410  28.4706420  24.5415480   5.2203530  20.5426490  19.3291000
   4.4068140  20.0439660  19.2536310   5.0265480  21.3824740  18.9127350
   5.1412390  29.2197590  31.0730610   5.0749700  28.2993260  30.8188200
   4.5117530  29.3173030  31.7875250   7.9351920  24.9146140  17.6253160
   8.8231540  25.2263370  17.4504500   7.9057010  24.0418390  17.2333740
   3.9312510  31.0869830  18.3041330   4.2728210  31.8312060  17.8084650
   3.1025220  31.4000950  18.6666160   5.0729120  32.0418160  30.8234410
   5.0873660  31.1099120  30.6053320   4.3654220  32.1277920  31.4624180
  10.2066190  26.2257980  17.0933020  10.1229910  26.6572200  16.2429460
  10.9260380  26.6856330  17.5259840  11.2840330  28.6825500  30.1702990
  10.5588520  29.2754280  29.9732380  11.8115790  28.6749040  29.3716360
  11.2353440  33.0800240  19.8215150  10.5929600  32.4255860  20.0958870
  10.8484100  33.4855330  19.0455820   6.8139920  30.4085670  23.6686840
   7.1663740  29.8113800  23.0088210   5.9302250  30.0829900  23.8395090
   2.9003200  31.1683360  21.0757250   3.5874330  31.7152570  21.4564840
   2.1135620  31.7124090  21.1106860   2.2030410  28.1729390  20.6882610
   2.6593190  28.9834640  20.9142800   1.8518620  27.8552530  21.5201100
   4.5063020  33.6835730  27.9174910   5.1505240  33.8895110  28.5948330
   4.8692460  32.9224130  27.4645760   5.7795100  31.6868080  26.6352360
   6.4217330  30.9861240  26.7484530   6.3044450  32.4666520  26.4549250
   9.6250820  31.9716700  16.3591500   9.3988400  31.2547140  16.9516140
   9.2347020  31.7229140  15.5213250   7.5532720  32.4862980  29.8388420
   7.8888960  33.0729670  30.5166340   6.6333060  32.3555690  30.0686210
   9.2067070  29.8888640  18.0205660   8.9188770  30.3501330  18.8083540
  10.0019240  29.4286410  18.2889880   3.3821300  32.5354310  33.0076480
   3.0618170  31.8163550  33.5522170   2.7079660  33.2109380  33.0812540
   6.5974900  22.7680470  28.3713280   6.9655720  21.9475680  28.6992850
   5.7373100  22.8282360  28.7868930   9.9636930  21.7237410  19.1800840
   9.3350090  21.8283080  18.4659070   9.4688850  21.9434190  19.9694720
   4.4095070  33.4443000  16.6134820   4.5107050  33.2406990  15.6836800
   3.5096810  33.1901280  16.8182600   3.5576890  25.4220060  28.5951250
   4.0562140  25.8965880  29.2603100   3.6999840  24.4983580  28.8021280
   5.9636390  20.7274020  22.0354510   5.8404170  20.7460150  21.0864020
   6.9120950  20.7752960  22.1552910   3.0513180  35.9629320  21.3082490
   3.3054680  35.9250710  20.3861860   2.1025660  35.8362650  21.3010740
  10.7643750  21.6388020  29.4379640  10.2617350  22.3793420  29.7773450
  11.5800410  22.0272020  29.1216430   9.0565760  26.8821200  22.8841000
   8.1155900  26.8971430  23.0588690   9.3709830  26.0957160  23.3301300
  11.0591340  34.0530050  24.5595260  11.1838760  34.8761220  25.0319070
  11.9256900  33.8420780  24.2119410   6.3731780  31.4387200  33.3673380
   5.7669940  31.4618800  32.6269130   6.0685890  30.7070240  33.9040630
   7.8032150  35.1667490  31.9782790   8.7553900  35.0825510  31.9283030
   7.6560370  35.8309200  32.6516580  10.6941350  34.5461700  17.4774700
  10.4082860  34.1326840  16.6628880  10.4960900  35.4749410  17.3575220
   2.1588580  30.5394980  15.9180310   2.0539220  29.9247330  16.6441690
   1.9912800  30.0160870  15.1343320   5.3991310  29.6015010  16.5222300
   4.8501410  30.0484310  17.1665040   6.0210570  29.0964260  17.0459970
   9.4526250  30.9557110  32.4544560  10.1935720  31.2932870  31.9512020
   8.6898930  31.1249170  31.9014330   3.5794070  27.5843540  15.6664700
   4.0999730  26.8692560  15.3005850   4.2262470  28.2229410  15.9665210
   8.1271910  29.0071940  30.9899770   8.5412930  29.1617020  31.8390190
   7.1922910  29.1327160  31.1525550   8.5994080  26.3468100  32.9938920
   9.1814850  25.5920420  32.9059400   8.7755850  26.8775540  32.2170400
   2.4827590  20.0638090  28.3383260   2.0344890  20.0862350  27.4928810
   1.8492790  19.6657110  28.9353560   2.8887140  28.9592420  28.9595700
   3.3075250  29.8025150  28.7871940   1.9695770  29.0964460  28.7302480
   5.2251040  26.6908600  30.3433540   5.3447250  26.0949740  31.0828380
   6.0845040  26.7278290  29.9234840   7.5638940  27.2445790  28.9196050
   7.0374160  27.7688410  28.3161190   7.9070280  27.8773180  29.5505780
   6.8113240  22.8495760  31.8342380   6.1228760  22.1877300  31.7692370
   7.5319260  22.4034030  32.2790840   7.4413640  19.4447390  17.8932640
   7.7215930  18.6015290  18.2492060   6.6679370  19.6770500  18.4071390
   3.5956770  36.4996640  30.3340080   3.5215470  37.4031780  30.6412450
   2.6935610  36.1808540  30.3062150   4.1442100  35.6655150  17.9566440
   5.0392890  36.0040120  17.9785200   4.1759730  34.9434560  17.3290720
  11.1236450  34.1958820  30.6632640  10.5238440  34.2551380  29.9196560
  11.2530350  33.2563800  30.7929490  12.3637900  31.9376640  16.0002350
  11.5330860  32.0053290  16.4709580  12.5409730  32.8280760  15.6969210
  11.8194360  28.6824120  18.5036550  12.5813270  29.2520770  18.6096240
  11.8348730  28.1151320  19.2744860  12.8254330  29.5374220  23.3478480
  13.1963160  28.7541540  22.9414450  13.4656260  30.2263320  23.1695780
   9.8088090  30.9210800  28.7608800   8.9947930  31.3507960  29.0234590
  10.2162290  31.5329210  28.1477850  11.8713530  28.9758490  15.6609070
  12.1462370  29.8837370  15.5328290  11.6824270  28.9121020  16.5971060
   8.2689140  22.0003340  16.9562700   8.6874020  21.8134320  16.1159360
   7.9625200  21.1482390  17.2665630  11.7678870  26.9127480  20.6538500
  11.3922470  26.1455410  20.2219790  11.0381990  27.2950180  21.1413430
  11.1578490  26.0599000  30.2878020  10.9264580  25.8311750  29.3875970
  11.4183040  26.9798550  30.2422910   9.5966560  21.2855430  33.0657720
  10.4736740  21.2938830  33.4491720   9.6087400  20.5486270  32.4550070
  11.0429830  25.1384970  23.9545740  11.5667310  24.6447620  23.3235910
  11.6289250  25.2735330  24.6993310  11.2219550  25.2224840  27.4765290
  10.2722260  25.1888380  27.5910280  11.4032560  26.1324950  27.2415060
  10.5329800  24.3958320  19.8938150  11.0288920  24.1629190  20.6787030
  10.3345870  23.5570160  19.4775790  11.9616960  23.0319270  22.4275830
  11.8516240  22.8775310  23.3658100  12.7224550  22.5040210  22.1851240
  10.3082680  18.9713400  28.8858830  10.9454900  19.5847540  29.2518020
  10.4557570  19.0074060  27.9408060  12.8507230  20.8627190  15.6681970
  13.7756540  20.7308370  15.4600260  12.8283020  20.9420010  16.6218420
  12.9245720  21.6337850  18.2938680  12.1297220  21.5682970  18.8231590
  13.1289000  22.5688490  18.2824030   9.8664140  35.6729400  22.2877070
  10.4623210  35.3513970  21.6111490  10.1242290  35.2001220  23.0790340
   3.6787160  20.1239590  31.7933930   3.6176050  20.7161420  32.5429340
   4.6187540  20.0165550  31.6484190   6.3161720  19.7809650  31.4326220
   6.9302130  20.0988940  30.7707300   6.8611280  19.2958240  32.0522080
  12.7336900  35.6801280  28.8388060  12.2395180  36.0770150  28.1215190
  12.1250190  35.0550490  29.2325340   7.0569760  18.3441790  27.7595510
   6.1829600  18.6776900  27.5568440   6.9480510  17.8714970  28.5847380
   7.9641740  20.5512660  29.1437230   7.6355100  19.7364420  28.7638960
   8.9124040  20.5082470  29.0202920  10.4176350  36.3224700  26.1174800
   9.9579320  37.0740510  25.7432820   9.7888810  35.6031170  26.0589600
   3.5867570  35.5221430  26.1191910   3.8745380  35.2675730  25.2424920
   4.0990790  34.9698790  26.7097480   4.8044580  19.2611630  26.6988420
   4.0216370  19.7357130  26.9785180   4.5107510  18.3566460  26.5901600
   9.3565650  19.9634730  24.7437510   9.7973740  19.9079830  23.8959110
   9.0873240  20.8792740  24.8147690  11.2204220  19.5949970  22.7546330
  11.1592620  18.6511190  22.6077350  11.9996250  19.7030060  23.2999790
   2.6898800  21.6798380  22.2104450   1.8773310  21.3055270  21.8700330
   3.1940440  20.9243460  22.5125640   7.1923780  18.3440830  23.4487520
   7.7953150  18.9161040  23.9236040   6.4516770  18.9080270  23.2261420
  10.3358380  18.7462390  18.7227800  10.5309010  19.6445840  18.9895230
   9.5488250  18.5149470  19.2160750   3.6539930  36.4437530  33.4860110
   4.5807240  36.2081800  33.5296070   3.6390360  37.2709530  33.0046140
  11.8884990  35.9863100  20.4834360  12.0637180  35.3000840  19.8395280
  11.1906560  36.5110150  20.0911030   7.4419000  18.5235860  33.8282460
   7.3284450  18.8430470  34.7233980   8.2588740  18.9248370  33.5319740
  10.2217490  35.6707390  33.3101150  11.0142810  35.1756620  33.1027110
  10.5150640  36.3497530  33.9176760   6.3477150  26.5428330   4.1917200
   6.2671200  25.6282940   3.9208910   5.9341570  27.0395400   3.4856910
   4.4795190  28.3207350   6.0726470   3.7037290  27.8407790   6.3625040
   5.1308120  27.6413000   5.8982630   8.5002620  32.7267540   4.8525600
   8.0384150  31.9554780   5.1812770   9.3128170  32.7533610   5.3578050
   4.7265930  35.0125550   4.4729590   4.1077370  35.4683050   3.9024030
   5.5817710  35.1677010   4.0719290   3.9204180  30.9964540   6.0796630
   3.8512460  30.0554480   5.9185760   4.6824040  31.0865950   6.6519200
   4.9509350  23.8034920   6.3065560   5.3274170  22.9306800   6.1939230
   4.8528860  24.1393620   5.4156000   8.7333470  21.2985360   3.2393900
   9.5543090  20.8081930   3.2819380   8.7667550  21.8883020   3.9925740
  13.0233020  23.3152110   9.8037530  12.3185190  23.7033820   9.2852640
  13.2890940  24.0102400  10.4058460   8.9694950  23.2385740   6.0121440
   8.2650520  23.5270630   6.5924550   9.3307110  24.0485850   5.6521000
  10.5857730  32.8560870   8.2748920   9.9021250  33.5259980   8.2665590
  11.1252020  33.0541520   7.5093780  12.0381870  22.6840530   6.4030650
  11.0906780  22.7179510   6.5346080  12.3631860  23.4979480   6.7880010
   8.1216470  34.7005000   6.9894100   8.1343630  34.2967290   6.1216360
   7.5691690  35.4752290   6.8855530   9.4161890  31.4221220   2.0784270
   9.3058220  30.4795550   2.2033690   9.4130140  31.7836860   2.9647030
   7.5201910  29.6034840   8.3176710   7.9370700  29.3894950   7.4830170
   8.2441730  29.8607630   8.8885330  11.4664010  28.0022060   8.4092950
  10.6382640  28.0715150   7.9343080  12.0614490  28.5876370   7.9408780
   8.4306020  24.7891380   9.3547820   8.0177200  25.6145090   9.6087810
   7.6981970  24.2036420   9.1624180   9.1206120  34.8350710  10.0428800
   8.6436680  35.6422900   9.8501410   8.4367910  34.1829040  10.1955010
   5.2739540  32.7889720   2.9136000   5.7135450  33.5314050   2.4991390
   5.2126430  33.0316290   3.8374960  12.7005330  34.5962650  15.1120190
  13.1765050  35.0745540  15.7909270  13.3212490  34.5280140  14.3865690
  12.1038580  31.7875500  12.2720200  12.2301640  31.5487380  11.3537380
  12.1459960  30.9560040  12.7442280   5.9655320  35.4903500  10.8415010
   6.4799990  35.4011510  11.6437440   5.1224400  35.8363200  11.1342920
   7.2085780  34.9109110   2.9045500   7.6642730  34.1298490   3.2184120
   7.5478300  35.6215930   3.4486680  11.9562590  23.8407960  13.2369940
  11.3406860  24.3487630  12.7085400  11.6359010  22.9406290  13.1795880
   4.0176910  22.6799850  10.7032130   3.5556280  22.8882870  11.5152070
   3.6155020  21.8659200  10.4002800   9.0181420  23.9008800  11.8328790
   8.1675010  23.6014550  12.1537860   8.8583210  24.1450810  10.9212610
   6.1131130  25.4010550  13.9327580   6.4384540  24.5674300  13.5929810
   6.9011460  25.9239070  14.0805910   1.7683000  20.3578660   6.9586410
   2.0655330  21.2641490   6.8778430   2.3168560  19.8697440   6.3445980
   1.9620530  25.8350480  13.4938330   1.8664130  24.8945210  13.3438730
   2.8052510  26.0565550  13.0986400   5.3583950  23.5791810   3.4571990
   5.7513520  23.8964010   2.6440680   5.7200800  22.7003690   3.5716510
   3.6676120  22.3299120  14.7168850   2.9774440  22.1371320  15.3514940
   4.4108420  22.6133760  15.2493150   5.9439090  26.1697560   7.5522770
   5.2120210  26.6784370   7.9012870   5.5463430  25.3527540   7.2511550
   2.3816480  22.8451760   5.9575260   2.3852540  22.4041710   5.1079800
   3.2767600  23.1669090   6.0647080   6.4065000  21.6231240   6.9645710
   6.4237740  22.0739890   7.8087560   6.1580580  20.7236880   7.1779150
   9.8335750  19.0363420  12.8032090  10.1581520  18.3053080  13.3290070
   9.8692260  18.7177060  11.9013080   2.6824450  26.9053540   7.7040670
   3.0494580  26.4312110   8.4502010   2.4929510  27.7795110   8.0449010
   9.7593590  29.1488530   6.4118120  10.4792710  29.6443820   6.0214230
   9.5575410  28.4706420   5.7671990   5.1412390  29.2197590  12.2987120
   5.0749700  28.2993260  12.0444710   4.5117530  29.3173030  13.0131760
   5.0729120  32.0418160  12.0490920   5.0873660  31.1099120  11.8309830
   4.3654220  32.1277920  12.6880690  11.2840330  28.6825500  11.3959500
  10.5588520  29.2754280  11.1988890  11.8115790  28.6749040  10.5972870
   6.8139920  30.4085670   4.8943350   7.1663740  29.8113800   4.2344720
   5.9302250  30.0829900   5.0651600   2.9003200  31.1683360   2.3013760
   3.5874330  31.7152570   2.6821350   2.1135620  31.7124090   2.3363370
   2.2030410  28.1729390   1.9139120   2.6593190  28.9834640   2.1399310
   1.8518620  27.8552530   2.7457610   4.5063020  33.6835730   9.1431420
   5.1505240  33.8895110   9.8204840   4.8692460  32.9224130   8.6902270
   5.7795100  31.6868080   7.8608870   6.4217330  30.9861240   7.9741040
   6.3044450  32.4666520   7.6805760   7.5532720  32.4862980  11.0644930
   7.8888960  33.0729670  11.7422850   6.6333060  32.3555690  11.2942720
   3.3821300  32.5354310  14.2332990   3.0618170  31.8163550  14.7778680
   2.7079660  33.2109380  14.3069050   6.5974900  22.7680470   9.5969790
   6.9655720  21.9475680   9.9249360   5.7373100  22.8282360  10.0125440
   3.5576890  25.4220060   9.8207760   4.0562140  25.8965880  10.4859610
   3.6999840  24.4983580  10.0277790   5.9636390  20.7274020   3.2611020
   5.8404170  20.7460150   2.3120530   6.9120950  20.7752960   3.3809420
   3.0513180  35.9629320   2.5339000   3.3054680  35.9250710   1.6118370
   2.1025660  35.8362650   2.5267250  10.7643750  21.6388020  10.6636150
  10.2617350  22.3793420  11.0029960  11.5800410  22.0272020  10.3472940
   9.0565760  26.8821200   4.1097510   8.1155900  26.8971430   4.2845200
   9.3709830  26.0957160   4.5557810  11.0591340  34.0530050   5.7851770
  11.1838760  34.8761220   6.2575580  11.9256900  33.8420780   5.4375920
   6.3731780  31.4387200  14.5929890   5.7669940  31.4618800  13.8525640
   6.0685890  30.7070240  15.1297140   7.8032150  35.1667490  13.2039300
   8.7553900  35.0825510  13.1539540   7.6560370  35.8309200  13.8773090
   9.4526250  30.9557110  13.6801070  10.1935720  31.2932870  13.1768530
   8.6898930  31.1249170  13.1270840   8.1271910  29.0071940  12.2156280
   8.5412930  29.1617020  13.0646700   7.1922910  29.1327160  12.3782060
   8.5994080  26.3468100  14.2195430   9.1814850  25.5920420  14.1315910
   8.7755850  26.8775540  13.4426910   2.4827590  20.0638090   9.5639770
   2.0344890  20.0862350   8.7185320   1.8492790  19.6657110  10.1610070
   2.8887140  28.9592420  10.1852210   3.3075250  29.8025150  10.0128450
   1.9695770  29.0964460   9.9558990   5.2251040  26.6908600  11.5690050
   5.3447250  26.0949740  12.3084890   6.0845040  26.7278290  11.1491350
   7.5638940  27.2445790  10.1452560   7.0374160  27.7688410   9.5417700
   7.9070280  27.8773180  10.7762290   6.8113240  22.8495760  13.0598890
   6.1228760  22.1877300  12.9948880   7.5319260  22.4034030  13.5047350
   3.5956770  36.4996640  11.5596590   3.5215470  37.4031780  11.8668960
   2.6935610  36.1808540  11.5318660  11.1236450  34.1958820  11.8889150
  10.5238440  34.2551380  11.1453070  11.2530350  33.2563800  12.0186000
  12.8254330  29.5374220   4.5734990  13.1963160  28.7541540   4.1670960
  13.4656260  30.2263320   4.3952290   9.8088090  30.9210800   9.9865310
   8.9947930  31.3507960  10.2491100  10.2162290  31.5329210   9.3734360
  11.7678870  26.9127480   1.8795010  11.3922470  26.1455410   1.4476300
  11.0381990  27.2950180   2.3669940  11.1578490  26.0599000  11.5134530
  10.9264580  25.8311750  10.6132480  11.4183040  26.9798550  11.4679420
   9.5966560  21.2855430  14.2914230  10.4736740  21.2938830  14.6748230
   9.6087400  20.5486270  13.6806580  11.0429830  25.1384970   5.1802250
  11.5667310  24.6447620   4.5492420  11.6289250  25.2735330   5.9249820
  11.2219550  25.2224840   8.7021800  10.2722260  25.1888380   8.8166790
  11.4032560  26.1324950   8.4671570  11.9616960  23.0319270   3.6532340
  11.8516240  22.8775310   4.5914610  12.7224550  22.5040210   3.4107750
  10.3082680  18.9713400  10.1115340  10.9454900  19.5847540  10.4774530
  10.4557570  19.0074060   9.1664570   9.8664140  35.6729400   3.5133580
  10.4623210  35.3513970   2.8368000  10.1242290  35.2001220   4.3046850
   3.6787160  20.1239590  13.0190440   3.6176050  20.7161420  13.7685850
   4.6187540  20.0165550  12.8740700   6.3161720  19.7809650  12.6582730
   6.9302130  20.0988940  11.9963810   6.8611280  19.2958240  13.2778590
  12.7336900  35.6801280  10.0644570  12.2395180  36.0770150   9.3471700
  12.1250190  35.0550490  10.4581850   7.0569760  18.3441790   8.9852020
   6.1829600  18.6776900   8.7824950   6.9480510  17.8714970   9.8103890
   7.9641740  20.5512660  10.3693740   7.6355100  19.7364420   9.9895470
   8.9124040  20.5082470  10.2459430  10.4176350  36.3224700   7.3431310
   9.9579320  37.0740510   6.9689330   9.7888810  35.6031170   7.2846110
   3.5867570  35.5221430   7.3448420   3.8745380  35.2675730   6.4681430
   4.0990790  34.9698790   7.9353990   4.8044580  19.2611630   7.9244930
   4.0216370  19.7357130   8.2041690   4.5107510  18.3566460   7.8158110
   9.3565650  19.9634730   5.9694020   9.7973740  19.9079830   5.1215620
   9.0873240  20.8792740   6.0404200  11.2204220  19.5949970   3.9802840
  11.1592620  18.6511190   3.8333860  11.9996250  19.7030060   4.5256300
   2.6898800  21.6798380   3.4360960   1.8773310  21.3055270   3.0956840
   3.1940440  20.9243460   3.7382150   7.1923780  18.3440830   4.6744030
   7.7953150  18.9161040   5.1492550   6.4516770  18.9080270   4.4517930
   3.6539930  36.4437530  14.7116620   4.5807240  36.2081800  14.7552580
   3.6390360  37.2709530  14.2302650   7.4419000  18.5235860  15.0538970
   7.3284450  18.8430470  15.9490490   8.2588740  18.9248370  14.7576250
  10.2217490  35.6707390  14.5357660  11.0142810  35.1756620  14.3283620
  10.5150640  36.3497530  15.1433270   6.3477150   7.7684840  60.5147670
   6.2671200   6.8539450  60.2439380   5.9341570   8.2651910  59.8087380
   4.4795190   9.5463860  62.3956940   3.7037290   9.0664300  62.6855510
   5.1308120   8.8669510  62.2213100   8.5002620  13.9524050  61.1756070
   8.0384150  13.1811290  61.5043240   9.3128170  13.9790120  61.6808520
   4.7265930  16.2382060  60.7960060   4.1077370  16.6939560  60.2254500
   5.5817710  16.3933520  60.3949760   3.9204180  12.2221050  62.4027100
   3.8512460  11.2810990  62.2416230   4.6824040  12.3122460  62.9749670
   4.9509350   5.0291430  62.6296030   5.3274170   4.1563310  62.5169700
   4.8528860   5.3650130  61.7386470   8.7333470   2.5241870  59.5624370
   9.5543090   2.0338440  59.6049850   8.7667550   3.1139530  60.3156210
   5.5929280  11.1221300  58.1891970   4.9746550  11.5870750  57.6254690
   6.1052530  11.8148780  58.6061480   8.9694950   4.4642250  62.3351910
   8.2650520   4.7527140  62.9155020   9.3307110   5.2742360  61.9751470
  10.5857730  14.0817380  64.5979390   9.9021250  14.7516490  64.5896060
  11.1252020  14.2798030  63.8324250  12.0381870   3.9097040  62.7261120
  11.0906780   3.9436020  62.8576550  12.3631860   4.7235990  63.1110480
   8.1216470  15.9261510  63.3124570   8.1343630  15.5223800  62.4446830
   7.5691690  16.7008800  63.2086000   9.4161890  12.6477730  58.4014740
   9.3058220  11.7052060  58.5264160   9.4130140  13.0093370  59.2877500
   7.5201910  10.8291350  64.6407180   7.9370700  10.6151460  63.8060640
   8.2441730  11.0864140  65.2115800   4.9582170   8.2743050  57.7577230
   4.0311450   8.2080430  57.9865700   5.1106990   9.2123180  57.6432470
   4.9451250   4.5460050  54.7544390   4.0054920   4.7074010  54.8396850
   5.2634510   5.2645730  54.2080380  11.4664010   9.2278570  64.7323420
  10.6382640   9.2971660  64.2573550  12.0614490   9.8132880  64.2639250
   8.9879460   9.8363350  58.2612480   8.3691880   9.4982900  57.6138780
   8.9703910   9.1923110  58.9691670   8.4306020   6.0147890  65.6778290
   8.0177200   6.8401600  65.9318280   7.6981970   5.4292930  65.4854650
   9.1206120  16.0607220  66.3659270   8.6436680  16.8679410  66.1731880
   8.4367910  15.4085550  66.5185480   7.1644160   9.0750160  55.2685230
   7.6037440   8.2372590  55.1223050   7.8772580   9.7079560  55.3549370
   5.2739540  14.0146230  59.2366470   5.7135450  14.7570560  58.8221860
   5.2126430  14.2572800  60.1605430   7.9409720  17.0015350  56.5929480
   7.7810860  16.7118290  57.4911310   7.7756430  16.2255480  56.0574710
   7.6435850  14.5102910  55.1527480   6.9501010  14.5080200  54.4929760
   8.3858710  14.0862230  54.7221650   7.2085780  16.1365620  59.2275970
   7.6642730  15.3555000  59.5414590   7.5478300  16.8472440  59.7717150
   6.7519080   6.1684780  57.7499180   6.1527970   6.8920580  57.5662800
   7.2998690   6.1061560  56.9675630   5.3583950   4.8048320  59.7802460
   5.7513520   5.1220520  58.9671150   5.7200800   3.9260200  59.8946980
   5.9439090   7.3954070  63.8753240   5.2120210   7.9040880  64.2243340
   5.5463430   6.5784050  63.5742020   2.3816480   4.0708270  62.2805730
   2.3852540   3.6298220  61.4310270   3.2767600   4.3925600  62.3877550
   2.4436630   5.0720350  55.2712490   2.5649450   5.0306830  56.2198310
   2.0585140   5.9344500  55.1159220   6.4065000   2.8487750  63.2876180
   6.4237740   3.2996400  64.1318030   6.1580580   1.9493390  63.5009620
   2.6824450   8.1310050  64.0271140   3.0494580   7.6568620  64.7732480
   2.4929510   9.0051620  64.3679480   9.7593590  10.3745040  62.7348590
  10.4792710  10.8700330  62.3444700   9.5575410   9.6962930  62.0902460
   5.2203530   1.7683000  56.8777980   4.4068140   1.2696170  56.8023290
   5.0265480   2.6081250  56.4614330   7.9351920   6.1402650  55.1740140
   8.8231540   6.4519880  54.9991480   7.9057010   5.2674900  54.7820720
   3.9312510  12.3126340  55.8528310   4.2728210  13.0568570  55.3571630
   3.1025220  12.6257460  56.2153140  10.2066190   7.4514490  54.6420000
  10.1229910   7.8828710  53.7916440  10.9260380   7.9112840  55.0746820
  11.2353440  14.3056750  57.3702130  10.5929600  13.6512370  57.6445850
  10.8484100  14.7111840  56.5942800   6.8139920  11.6342180  61.2173820
   7.1663740  11.0370310  60.5575190   5.9302250  11.3086410  61.3882070
   2.9003200  12.3939870  58.6244230   3.5874330  12.9409080  59.0051820
   2.1135620  12.9380600  58.6593840   2.2030410   9.3985900  58.2369590
   2.6593190  10.2091150  58.4629780   1.8518620   9.0809040  59.0688080
   4.5063020  14.9092240  65.4661890   5.1505240  15.1151620  66.1435310
   4.8692460  14.1480640  65.0132740   5.7795100  12.9124590  64.1839340
   6.4217330  12.2117750  64.2971510   6.3044450  13.6923030  64.0036230
   9.6250820  13.1973210  53.9078480   9.3988400  12.4803650  54.5003120
   9.2347020  12.9485650  53.0700230   9.2067070  11.1145150  55.5692640
   8.9188770  11.5757840  56.3570520  10.0019240  10.6542920  55.8376860
   6.5974900   3.9936980  65.9200260   6.9655720   3.1732190  66.2479830
   5.7373100   4.0538870  66.3355910   9.9636930   2.9493920  56.7287820
   9.3350090   3.0539590  56.0146050   9.4688850   3.1690700  57.5181700
   4.4095070  14.6699510  54.1621800   4.5107050  14.4663500  53.2323780
   3.5096810  14.4157790  54.3669580   5.9636390   1.9530530  59.5841490
   5.8404170   1.9716660  58.6351000   6.9120950   2.0009470  59.7039890
   3.0513180  17.1885830  58.8569470   3.3054680  17.1507220  57.9348840
   2.1025660  17.0619160  58.8497720   9.0565760   8.1077710  60.4327980
   8.1155900   8.1227940  60.6075670   9.3709830   7.3213670  60.8788280
  11.0591340  15.2786560  62.1082240  11.1838760  16.1017730  62.5806050
  11.9256900  15.0677290  61.7606390  10.6941350  15.7718210  55.0261680
  10.4082860  15.3583350  54.2115860  10.4960900  16.7005920  54.9062200
   2.1588580  11.7651490  53.4667290   2.0539220  11.1503840  54.1928670
   1.9912800  11.2417380  52.6830300   5.3991310  10.8271520  54.0709280
   4.8501410  11.2740820  54.7152020   6.0210570  10.3220770  54.5946950
   3.5794070   8.8100050  53.2151680   4.0999730   8.0949070  52.8492830
   4.2262470   9.4485920  53.5152190   2.8887140  10.1848930  66.5082680
   3.3075250  11.0281660  66.3358920   1.9695770  10.3220970  66.2789460
   4.1442100  16.8911660  55.5053420   5.0392890  17.2296630  55.5272180
   4.1759730  16.1691070  54.8777700  12.3637900  13.1633150  53.5489330
  11.5330860  13.2309800  54.0196560  12.5409730  14.0537270  53.2456190
  11.8194360   9.9080630  56.0523530  12.5813270  10.4777280  56.1583220
  11.8348730   9.3407830  56.8231840  12.8254330  10.7630730  60.8965460
  13.1963160   9.9798050  60.4901430  13.4656260  11.4519830  60.7182760
  11.8713530  10.2015000  53.2096050  12.1462370  11.1093880  53.0815270
  11.6824270  10.1377530  54.1458040   8.2689140   3.2259850  54.5049680
   8.6874020   3.0390830  53.6646340   7.9625200   2.3738900  54.8152610
  11.7678870   8.1383990  58.2025480  11.3922470   7.3711920  57.7706770
  11.0381990   8.5206690  58.6900410  11.0429830   6.3641480  61.5032720
  11.5667310   5.8704130  60.8722890  11.6289250   6.4991840  62.2480290
  11.2219550   6.4481350  65.0252270  10.2722260   6.4144890  65.1397260
  11.4032560   7.3581460  64.7902040  10.5329800   5.6214830  57.4425130
  11.0288920   5.3885700  58.2274010  10.3345870   4.7826670  57.0262770
  11.9616960   4.2575780  59.9762810  11.8516240   4.1031820  60.9145080
  12.7224550   3.7296720  59.7338220  12.8507230   2.0883700  53.2168950
  13.7756540   1.9564880  53.0087240  12.8283020   2.1676520  54.1705400
  12.9245720   2.8594360  55.8425660  12.1297220   2.7939480  56.3718570
  13.1289000   3.7945000  55.8311010   9.8664140  16.8985910  59.8364050
  10.4623210  16.5770480  59.1598470  10.1242290  16.4257730  60.6277320
  10.4176350  17.5481210  63.6661780   9.9579320  18.2997020  63.2919800
   9.7888810  16.8287680  63.6076580   3.5867570  16.7477940  63.6678890
   3.8745380  16.4932240  62.7911900   4.0990790  16.1955300  64.2584460
   2.6898800   2.9054890  59.7591430   1.8773310   2.5311780  59.4187310
   3.1940440   2.1499970  60.0612620  11.8884990  17.2119610  58.0321340
  12.0637180  16.5257350  57.3882260  11.1906560  17.7366660  57.6398010
   6.3477150   7.7684840  41.7404180   6.2671200   6.8539450  41.4695890
   5.9341570   8.2651910  41.0343890   4.4795190   9.5463860  43.6213450
   3.7037290   9.0664300  43.9112020   5.1308120   8.8669510  43.4469610
   8.5002620  13.9524050  42.4012580   8.0384150  13.1811290  42.7299750
   9.3128170  13.9790120  42.9065030   4.7265930  16.2382060  42.0216570
   4.1077370  16.6939560  41.4511010   5.5817710  16.3933520  41.6206270
   3.9204180  12.2221050  43.6283610   3.8512460  11.2810990  43.4672740
   4.6824040  12.3122460  44.2006180   4.9509350   5.0291430  43.8552540
   5.3274170   4.1563310  43.7426210   4.8528860   5.3650130  42.9642980
   8.7333470   2.5241870  40.7880880   9.5543090   2.0338440  40.8306360
   8.7667550   3.1139530  41.5412720  13.0233020   4.5408620  47.3524510
  12.3185190   4.9290330  46.8339620  13.2890940   5.2358910  47.9545440
   5.5929280  11.1221300  39.4148480   4.9746550  11.5870750  38.8511200
   6.1052530  11.8148780  39.8317990   8.9694950   4.4642250  43.5608420
   8.2650520   4.7527140  44.1411530   9.3307110   5.2742360  43.2007980
  10.5857730  14.0817380  45.8235900   9.9021250  14.7516490  45.8152570
  11.1252020  14.2798030  45.0580760  12.0381870   3.9097040  43.9517630
  11.0906780   3.9436020  44.0833060  12.3631860   4.7235990  44.3366990
   8.1216470  15.9261510  44.5381080   8.1343630  15.5223800  43.6703340
   7.5691690  16.7008800  44.4342510   9.4161890  12.6477730  39.6271250
   9.3058220  11.7052060  39.7520670   9.4130140  13.0093370  40.5134010
   7.5201910  10.8291350  45.8663690   7.9370700  10.6151460  45.0317150
   8.2441730  11.0864140  46.4372310   4.9582170   8.2743050  38.9833740
   4.0311450   8.2080430  39.2122210   5.1106990   9.2123180  38.8688980
   4.9451250   4.5460050  35.9800900   4.0054920   4.7074010  36.0653360
   5.2634510   5.2645730  35.4336890  11.4664010   9.2278570  45.9579930
  10.6382640   9.2971660  45.4830060  12.0614490   9.8132880  45.4895760
   8.9879460   9.8363350  39.4868990   8.3691880   9.4982900  38.8395290
   8.9703910   9.1923110  40.1948180   8.4306020   6.0147890  46.9034800
   8.0177200   6.8401600  47.1574790   7.6981970   5.4292930  46.7111160
   9.1206120  16.0607220  47.5915780   8.6436680  16.8679410  47.3988390
   8.4367910  15.4085550  47.7441990   7.1644160   9.0750160  36.4941740
   7.6037440   8.2372590  36.3479560   7.8772580   9.7079560  36.5805880
   5.2739540  14.0146230  40.4622980   5.7135450  14.7570560  40.0478370
   5.2126430  14.2572800  41.3861940  12.7005330  15.8219160  52.6607170
  13.1765050  16.3002050  53.3396250  13.3212490  15.7536650  51.9352670
  12.1038580  13.0132010  49.8207180  12.2301640  12.7743890  48.9024360
  12.1459960  12.1816550  50.2929260   5.9655320  16.7160010  48.3901990
   6.4799990  16.6268020  49.1924420   5.1224400  17.0619710  48.6829900
   7.9409720  17.0015350  37.8185990   7.7810860  16.7118290  38.7167820
   7.7756430  16.2255480  37.2831220   7.6435850  14.5102910  36.3783990
   6.9501010  14.5080200  35.7186270   8.3858710  14.0862230  35.9478160
   7.2085780  16.1365620  40.4532480   7.6642730  15.3555000  40.7671100
   7.5478300  16.8472440  40.9973660  11.9562590   5.0664470  50.7856920
  11.3406860   5.5744140  50.2572380  11.6359010   4.1662800  50.7282860
   4.0176910   3.9056360  48.2519110   3.5556280   4.1139380  49.0639050
   3.6155020   3.0915710  47.9489780   9.0181420   5.1265310  49.3815770
   8.1675010   4.8271060  49.7024840   8.8583210   5.3707320  48.4699590
   6.1131130   6.6267060  51.4814560   6.4384540   5.7930810  51.1416790
   6.9011460   7.1495580  51.6292890   6.7519080   6.1684780  38.9755690
   6.1527970   6.8920580  38.7919310   7.2998690   6.1061560  38.1932140
   1.9620530   7.0606990  51.0425310   1.8664130   6.1201720  50.8925710
   2.8052510   7.2822060  50.6473380   5.3583950   4.8048320  41.0058970
   5.7513520   5.1220520  40.1927660   5.7200800   3.9260200  41.1203490
   3.6676120   3.5555630  52.2655830   2.9774440   3.3627830  52.9001920
   4.4108420   3.8390270  52.7980130   5.9439090   7.3954070  45.1009750
   5.2120210   7.9040880  45.4499850   5.5463430   6.5784050  44.7998530
   2.3816480   4.0708270  43.5062240   2.3852540   3.6298220  42.6566780
   3.2767600   4.3925600  43.6134060   2.4436630   5.0720350  36.4969000
   2.5649450   5.0306830  37.4454820   2.0585140   5.9344500  36.3415730
   6.4065000   2.8487750  44.5132690   6.4237740   3.2996400  45.3574540
   6.1580580   1.9493390  44.7266130   2.6824450   8.1310050  45.2527650
   3.0494580   7.6568620  45.9988990   2.4929510   9.0051620  45.5935990
   9.7593590  10.3745040  43.9605100  10.4792710  10.8700330  43.5701210
   9.5575410   9.6962930  43.3158970   5.2203530   1.7683000  38.1034490
   4.4068140   1.2696170  38.0279800   5.0265480   2.6081250  37.6870840
   5.1412390  10.4454100  49.8474100   5.0749700   9.5249770  49.5931690
   4.5117530  10.5429540  50.5618740   7.9351920   6.1402650  36.3996650
   8.8231540   6.4519880  36.2247990   7.9057010   5.2674900  36.0077230
   3.9312510  12.3126340  37.0784820   4.2728210  13.0568570  36.5828140
   3.1025220  12.6257460  37.4409650   5.0729120  13.2674670  49.5977900
   5.0873660  12.3355630  49.3796810   4.3654220  13.3534430  50.2367670
  10.2066190   7.4514490  35.8676510  10.1229910   7.8828710  35.0172950
  10.9260380   7.9112840  36.3003330  11.2840330   9.9082010  48.9446480
  10.5588520  10.5010790  48.7475870  11.8115790   9.9005550  48.1459850
  11.2353440  14.3056750  38.5958640  10.5929600  13.6512370  38.8702360
  10.8484100  14.7111840  37.8199310   6.8139920  11.6342180  42.4430330
   7.1663740  11.0370310  41.7831700   5.9302250  11.3086410  42.6138580
   2.9003200  12.3939870  39.8500740   3.5874330  12.9409080  40.2308330
   2.1135620  12.9380600  39.8850350   2.2030410   9.3985900  39.4626100
   2.6593190  10.2091150  39.6886290   1.8518620   9.0809040  40.2944590
   4.5063020  14.9092240  46.6918400   5.1505240  15.1151620  47.3691820
   4.8692460  14.1480640  46.2389250   5.7795100  12.9124590  45.4095850
   6.4217330  12.2117750  45.5228020   6.3044450  13.6923030  45.2292740
   9.6250820  13.1973210  35.1334990   9.3988400  12.4803650  35.7259630
   9.2347020  12.9485650  34.2956740   7.5532720  13.7119490  48.6131910
   7.8888960  14.2986180  49.2909830   6.6333060  13.5812200  48.8429700
   9.2067070  11.1145150  36.7949150   8.9188770  11.5757840  37.5827030
  10.0019240  10.6542920  37.0633370   3.3821300  13.7610820  51.7819970
   3.0618170  13.0420060  52.3265660   2.7079660  14.4365890  51.8556030
   6.5974900   3.9936980  47.1456770   6.9655720   3.1732190  47.4736340
   5.7373100   4.0538870  47.5612420   9.9636930   2.9493920  37.9544330
   9.3350090   3.0539590  37.2402560   9.4688850   3.1690700  38.7438210
   4.4095070  14.6699510  35.3878310   4.5107050  14.4663500  34.4580290
   3.5096810  14.4157790  35.5926090   3.5576890   6.6476570  47.3694740
   4.0562140   7.1222390  48.0346590   3.6999840   5.7240090  47.5764770
   5.9636390   1.9530530  40.8098000   5.8404170   1.9716660  39.8607510
   6.9120950   2.0009470  40.9296400   3.0513180  17.1885830  40.0825980
   3.3054680  17.1507220  39.1605350   2.1025660  17.0619160  40.0754230
  10.7643750   2.8644530  48.2123130  10.2617350   3.6049930  48.5516940
  11.5800410   3.2528530  47.8959920   9.0565760   8.1077710  41.6584490
   8.1155900   8.1227940  41.8332180   9.3709830   7.3213670  42.1044790
  11.0591340  15.2786560  43.3338750  11.1838760  16.1017730  43.8062560
  11.9256900  15.0677290  42.9862900   6.3731780  12.6643710  52.1416870
   5.7669940  12.6875310  51.4012620   6.0685890  11.9326750  52.6784120
   7.8032150  16.3924000  50.7526280   8.7553900  16.3082020  50.7026520
   7.6560370  17.0565710  51.4260070  10.6941350  15.7718210  36.2518190
  10.4082860  15.3583350  35.4372370  10.4960900  16.7005920  36.1318710
   2.1588580  11.7651490  34.6923800   2.0539220  11.1503840  35.4185180
   1.9912800  11.2417380  33.9086810   5.3991310  10.8271520  35.2965790
   4.8501410  11.2740820  35.9408530   6.0210570  10.3220770  35.8203460
   9.4526250  12.1813620  51.2288050  10.1935720  12.5189380  50.7255510
   8.6898930  12.3505680  50.6757820   3.5794070   8.8100050  34.4408190
   4.0999730   8.0949070  34.0749340   4.2262470   9.4485920  34.7408700
   8.1271910  10.2328450  49.7643260   8.5412930  10.3873530  50.6133680
   7.1922910  10.3583670  49.9269040   8.5994080   7.5724610  51.7682410
   9.1814850   6.8176930  51.6802890   8.7755850   8.1032050  50.9913890
   2.8887140  10.1848930  47.7339190   3.3075250  11.0281660  47.5615430
   1.9695770  10.3220970  47.5045970   5.2251040   7.9165110  49.1177030
   5.3447250   7.3206250  49.8571870   6.0845040   7.9534800  48.6978330
   7.5638940   8.4702300  47.6939540   7.0374160   8.9944920  47.0904680
   7.9070280   9.1029690  48.3249270   6.8113240   4.0752270  50.6085870
   6.1228760   3.4133810  50.5435860   7.5319260   3.6290540  51.0534330
   3.5956770  17.7253150  49.1083570   3.5215470  18.6288290  49.4155940
   2.6935610  17.4065050  49.0805640   4.1442100  16.8911660  36.7309930
   5.0392890  17.2296630  36.7528690   4.1759730  16.1691070  36.1034210
  11.1236450  15.4215330  49.4376130  10.5238440  15.4807890  48.6940050
  11.2530350  14.4820310  49.5672980  12.3637900  13.1633150  34.7745840
  11.5330860  13.2309800  35.2453070  12.5409730  14.0537270  34.4712700
  11.8194360   9.9080630  37.2780040  12.5813270  10.4777280  37.3839730
  11.8348730   9.3407830  38.0488350  12.8254330  10.7630730  42.1221970
  13.1963160   9.9798050  41.7157940  13.4656260  11.4519830  41.9439270
   9.8088090  12.1467310  47.5352290   8.9947930  12.5764470  47.7978080
  10.2162290  12.7585720  46.9221340  11.8713530  10.2015000  34.4352560
  12.1462370  11.1093880  34.3071780  11.6824270  10.1377530  35.3714550
   8.2689140   3.2259850  35.7306190   8.6874020   3.0390830  34.8902850
   7.9625200   2.3738900  36.0409120  11.7678870   8.1383990  39.4281990
  11.3922470   7.3711920  38.9963280  11.0381990   8.5206690  39.9156920
  11.1578490   7.2855510  49.0621510  10.9264580   7.0568260  48.1619460
  11.4183040   8.2055060  49.0166400   9.5966560   2.5111940  51.8401210
  10.4736740   2.5195340  52.2235210   9.6087400   1.7742780  51.2293560
  11.0429830   6.3641480  42.7289230  11.5667310   5.8704130  42.0979400
  11.6289250   6.4991840  43.4736800  11.2219550   6.4481350  46.2508780
  10.2722260   6.4144890  46.3653770  11.4032560   7.3581460  46.0158550
  10.5329800   5.6214830  38.6681640  11.0288920   5.3885700  39.4530520
  10.3345870   4.7826670  38.2519280  11.9616960   4.2575780  41.2019320
  11.8516240   4.1031820  42.1401590  12.7224550   3.7296720  40.9594730
  12.8507230   2.0883700  34.4425460  13.7756540   1.9564880  34.2343750
  12.8283020   2.1676520  35.3961910  12.9245720   2.8594360  37.0682170
  12.1297220   2.7939480  37.5975080  13.1289000   3.7945000  37.0567520
   9.8664140  16.8985910  41.0620560  10.4623210  16.5770480  40.3854980
  10.1242290  16.4257730  41.8533830  12.7336900  16.9057790  47.6131550
  12.2395180  17.3026660  46.8958680  12.1250190  16.2807000  48.0068830
  10.4176350  17.5481210  44.8918290   9.9579320  18.2997020  44.5176310
   9.7888810  16.8287680  44.8333090   3.5867570  16.7477940  44.8935400
   3.8745380  16.4932240  44.0168410   4.0990790  16.1955300  45.4840970
   2.6898800   2.9054890  40.9847940   1.8773310   2.5311780  40.6443820
   3.1940440   2.1499970  41.2869130   3.6539930  17.6694040  52.2603600
   4.5807240  17.4338310  52.3039560   3.6390360  18.4966040  51.7789630
  11.8884990  17.2119610  39.2577850  12.0637180  16.5257350  38.6138770
  11.1906560  17.7366660  38.8654520  10.2217490  16.8963900  52.0844640
  11.0142810  16.4013130  51.8770600  10.5150640  17.5754040  52.6920250
   6.3477150   7.7684840  22.9660690   6.2671200   6.8539450  22.6952400
   5.9341570   8.2651910  22.2600400   4.4795190   9.5463860  24.8469960
   3.7037290   9.0664300  25.1368530   5.1308120   8.8669510  24.6726120
   8.5002620  13.9524050  23.6269090   8.0384150  13.1811290  23.9556260
   9.3128170  13.9790120  24.1321540   4.7265930  16.2382060  23.2473080
   4.1077370  16.6939560  22.6767520   5.5817710  16.3933520  22.8462780
   3.9204180  12.2221050  24.8540120   3.8512460  11.2810990  24.6929250
   4.6824040  12.3122460  25.4262690   4.9509350   5.0291430  25.0809050
   5.3274170   4.1563310  24.9682720   4.8528860   5.3650130  24.1899490
   8.7333470   2.5241870  22.0137390   9.5543090   2.0338440  22.0562870
   8.7667550   3.1139530  22.7669230  13.0233020   4.5408620  28.5781020
  12.3185190   4.9290330  28.0596130  13.2890940   5.2358910  29.1801950
   5.5929280  11.1221300  20.6404990   4.9746550  11.5870750  20.0767710
   6.1052530  11.8148780  21.0574500   8.9694950   4.4642250  24.7864930
   8.2650520   4.7527140  25.3668040   9.3307110   5.2742360  24.4264490
  10.5857730  14.0817380  27.0492410   9.9021250  14.7516490  27.0409080
  11.1252020  14.2798030  26.2837270  12.0381870   3.9097040  25.1774140
  11.0906780   3.9436020  25.3089570  12.3631860   4.7235990  25.5623500
   8.1216470  15.9261510  25.7637590   8.1343630  15.5223800  24.8959850
   7.5691690  16.7008800  25.6599020   9.4161890  12.6477730  20.8527760
   9.3058220  11.7052060  20.9777180   9.4130140  13.0093370  21.7390520
   7.5201910  10.8291350  27.0920200   7.9370700  10.6151460  26.2573660
   8.2441730  11.0864140  27.6628820   4.9582170   8.2743050  20.2090250
   4.0311450   8.2080430  20.4378720   5.1106990   9.2123180  20.0945490
   4.9451250   4.5460050  17.2057410   4.0054920   4.7074010  17.2909870
   5.2634510   5.2645730  16.6593400  11.4664010   9.2278570  27.1836440
  10.6382640   9.2971660  26.7086570  12.0614490   9.8132880  26.7152270
   8.9879460   9.8363350  20.7125500   8.3691880   9.4982900  20.0651800
   8.9703910   9.1923110  21.4204690   8.4306020   6.0147890  28.1291310
   8.0177200   6.8401600  28.3831300   7.6981970   5.4292930  27.9367670
   9.1206120  16.0607220  28.8172290   8.6436680  16.8679410  28.6244900
   8.4367910  15.4085550  28.9698500   7.1644160   9.0750160  17.7198250
   7.6037440   8.2372590  17.5736070   7.8772580   9.7079560  17.8062390
   5.2739540  14.0146230  21.6879490   5.7135450  14.7570560  21.2734880
   5.2126430  14.2572800  22.6118450  12.7005330  15.8219160  33.8863680
  13.1765050  16.3002050  34.5652760  13.3212490  15.7536650  33.1609180
  12.1038580  13.0132010  31.0463690  12.2301640  12.7743890  30.1280870
  12.1459960  12.1816550  31.5185770   5.9655320  16.7160010  29.6158500
   6.4799990  16.6268020  30.4180930   5.1224400  17.0619710  29.9086410
   7.9409720  17.0015350  19.0442500   7.7810860  16.7118290  19.9424330
   7.7756430  16.2255480  18.5087730   7.6435850  14.5102910  17.6040500
   6.9501010  14.5080200  16.9442780   8.3858710  14.0862230  17.1734670
   7.2085780  16.1365620  21.6788990   7.6642730  15.3555000  21.9927610
   7.5478300  16.8472440  22.2230170  11.9562590   5.0664470  32.0113430
  11.3406860   5.5744140  31.4828890  11.6359010   4.1662800  31.9539370
   4.0176910   3.9056360  29.4775620   3.5556280   4.1139380  30.2895560
   3.6155020   3.0915710  29.1746290   9.0181420   5.1265310  30.6072280
   8.1675010   4.8271060  30.9281350   8.8583210   5.3707320  29.6956100
   6.1131130   6.6267060  32.7071070   6.4384540   5.7930810  32.3673300
   6.9011460   7.1495580  32.8549400   6.7519080   6.1684780  20.2012200
   6.1527970   6.8920580  20.0175820   7.2998690   6.1061560  19.4188650
   1.9620530   7.0606990  32.2681820   1.8664130   6.1201720  32.1182220
   2.8052510   7.2822060  31.8729890   5.3583950   4.8048320  22.2315480
   5.7513520   5.1220520  21.4184170   5.7200800   3.9260200  22.3460000
   3.6676120   3.5555630  33.4912340   2.9774440   3.3627830  34.1258430
   4.4108420   3.8390270  34.0236640   5.9439090   7.3954070  26.3266260
   5.2120210   7.9040880  26.6756360   5.5463430   6.5784050  26.0255040
   2.3816480   4.0708270  24.7318750   2.3852540   3.6298220  23.8823290
   3.2767600   4.3925600  24.8390570   2.4436630   5.0720350  17.7225510
   2.5649450   5.0306830  18.6711330   2.0585140   5.9344500  17.5672240
   6.4065000   2.8487750  25.7389200   6.4237740   3.2996400  26.5831050
   6.1580580   1.9493390  25.9522640   2.6824450   8.1310050  26.4784160
   3.0494580   7.6568620  27.2245500   2.4929510   9.0051620  26.8192500
   9.7593590  10.3745040  25.1861610  10.4792710  10.8700330  24.7957720
   9.5575410   9.6962930  24.5415480   5.2203530   1.7683000  19.3291000
   4.4068140   1.2696170  19.2536310   5.0265480   2.6081250  18.9127350
   5.1412390  10.4454100  31.0730610   5.0749700   9.5249770  30.8188200
   4.5117530  10.5429540  31.7875250   7.9351920   6.1402650  17.6253160
   8.8231540   6.4519880  17.4504500   7.9057010   5.2674900  17.2333740
   3.9312510  12.3126340  18.3041330   4.2728210  13.0568570  17.8084650
   3.1025220  12.6257460  18.6666160   5.0729120  13.2674670  30.8234410
   5.0873660  12.3355630  30.6053320   4.3654220  13.3534430  31.4624180
  10.2066190   7.4514490  17.0933020  10.1229910   7.8828710  16.2429460
  10.9260380   7.9112840  17.5259840  11.2840330   9.9082010  30.1702990
  10.5588520  10.5010790  29.9732380  11.8115790   9.9005550  29.3716360
  11.2353440  14.3056750  19.8215150  10.5929600  13.6512370  20.0958870
  10.8484100  14.7111840  19.0455820   6.8139920  11.6342180  23.6686840
   7.1663740  11.0370310  23.0088210   5.9302250  11.3086410  23.8395090
   2.9003200  12.3939870  21.0757250   3.5874330  12.9409080  21.4564840
   2.1135620  12.9380600  21.1106860   2.2030410   9.3985900  20.6882610
   2.6593190  10.2091150  20.9142800   1.8518620   9.0809040  21.5201100
   4.5063020  14.9092240  27.9174910   5.1505240  15.1151620  28.5948330
   4.8692460  14.1480640  27.4645760   5.7795100  12.9124590  26.6352360
   6.4217330  12.2117750  26.7484530   6.3044450  13.6923030  26.4549250
   9.6250820  13.1973210  16.3591500   9.3988400  12.4803650  16.9516140
   9.2347020  12.9485650  15.5213250   7.5532720  13.7119490  29.8388420
   7.8888960  14.2986180  30.5166340   6.6333060  13.5812200  30.0686210
   9.2067070  11.1145150  18.0205660   8.9188770  11.5757840  18.8083540
  10.0019240  10.6542920  18.2889880   3.3821300  13.7610820  33.0076480
   3.0618170  13.0420060  33.5522170   2.7079660  14.4365890  33.0812540
   6.5974900   3.9936980  28.3713280   6.9655720   3.1732190  28.6992850
   5.7373100   4.0538870  28.7868930   9.9636930   2.9493920  19.1800840
   9.3350090   3.0539590  18.4659070   9.4688850   3.1690700  19.9694720
   4.4095070  14.6699510  16.6134820   4.5107050  14.4663500  15.6836800
   3.5096810  14.4157790  16.8182600   3.5576890   6.6476570  28.5951250
   4.0562140   7.1222390  29.2603100   3.6999840   5.7240090  28.8021280
   5.9636390   1.9530530  22.0354510   5.8404170   1.9716660  21.0864020
   6.9120950   2.0009470  22.1552910   3.0513180  17.1885830  21.3082490
   3.3054680  17.1507220  20.3861860   2.1025660  17.0619160  21.3010740
  10.7643750   2.8644530  29.4379640  10.2617350   3.6049930  29.7773450
  11.5800410   3.2528530  29.1216430   9.0565760   8.1077710  22.8841000
   8.1155900   8.1227940  23.0588690   9.3709830   7.3213670  23.3301300
  11.0591340  15.2786560  24.5595260  11.1838760  16.1017730  25.0319070
  11.9256900  15.0677290  24.2119410   6.3731780  12.6643710  33.3673380
   5.7669940  12.6875310  32.6269130   6.0685890  11.9326750  33.9040630
   7.8032150  16.3924000  31.9782790   8.7553900  16.3082020  31.9283030
   7.6560370  17.0565710  32.6516580  10.6941350  15.7718210  17.4774700
  10.4082860  15.3583350  16.6628880  10.4960900  16.7005920  17.3575220
   2.1588580  11.7651490  15.9180310   2.0539220  11.1503840  16.6441690
   1.9912800  11.2417380  15.1343320   5.3991310  10.8271520  16.5222300
   4.8501410  11.2740820  17.1665040   6.0210570  10.3220770  17.0459970
   9.4526250  12.1813620  32.4544560  10.1935720  12.5189380  31.9512020
   8.6898930  12.3505680  31.9014330   3.5794070   8.8100050  15.6664700
   4.0999730   8.0949070  15.3005850   4.2262470   9.4485920  15.9665210
   8.1271910  10.2328450  30.9899770   8.5412930  10.3873530  31.8390190
   7.1922910  10.3583670  31.1525550   8.5994080   7.5724610  32.9938920
   9.1814850   6.8176930  32.9059400   8.7755850   8.1032050  32.2170400
   2.8887140  10.1848930  28.9595700   3.3075250  11.0281660  28.7871940
   1.9695770  10.3220970  28.7302480   5.2251040   7.9165110  30.3433540
   5.3447250   7.3206250  31.0828380   6.0845040   7.9534800  29.9234840
   7.5638940   8.4702300  28.9196050   7.0374160   8.9944920  28.3161190
   7.9070280   9.1029690  29.5505780   6.8113240   4.0752270  31.8342380
   6.1228760   3.4133810  31.7692370   7.5319260   3.6290540  32.2790840
   3.5956770  17.7253150  30.3340080   3.5215470  18.6288290  30.6412450
   2.6935610  17.4065050  30.3062150   4.1442100  16.8911660  17.9566440
   5.0392890  17.2296630  17.9785200   4.1759730  16.1691070  17.3290720
  11.1236450  15.4215330  30.6632640  10.5238440  15.4807890  29.9196560
  11.2530350  14.4820310  30.7929490  12.3637900  13.1633150  16.0002350
  11.5330860  13.2309800  16.4709580  12.5409730  14.0537270  15.6969210
  11.8194360   9.9080630  18.5036550  12.5813270  10.4777280  18.6096240
  11.8348730   9.3407830  19.2744860  12.8254330  10.7630730  23.3478480
  13.1963160   9.9798050  22.9414450  13.4656260  11.4519830  23.1695780
   9.8088090  12.1467310  28.7608800   8.9947930  12.5764470  29.0234590
  10.2162290  12.7585720  28.1477850  11.8713530  10.2015000  15.6609070
  12.1462370  11.1093880  15.5328290  11.6824270  10.1377530  16.5971060
   8.2689140   3.2259850  16.9562700   8.6874020   3.0390830  16.1159360
   7.9625200   2.3738900  17.2665630  11.7678870   8.1383990  20.6538500
  11.3922470   7.3711920  20.2219790  11.0381990   8.5206690  21.1413430
  11.1578490   7.2855510  30.2878020  10.9264580   7.0568260  29.3875970
  11.4183040   8.2055060  30.2422910   9.5966560   2.5111940  33.0657720
  10.4736740   2.5195340  33.4491720   9.6087400   1.7742780  32.4550070
  11.0429830   6.3641480  23.9545740  11.5667310   5.8704130  23.3235910
  11.6289250   6.4991840  24.6993310  11.2219550   6.4481350  27.4765290
  10.2722260   6.4144890  27.5910280  11.4032560   7.3581460  27.2415060
  10.5329800   5.6214830  19.8938150  11.0288920   5.3885700  20.6787030
  10.3345870   4.7826670  19.4775790  11.9616960   4.2575780  22.4275830
  11.8516240   4.1031820  23.3658100  12.7224550   3.7296720  22.1851240
  12.8507230   2.0883700  15.6681970  13.7756540   1.9564880  15.4600260
  12.8283020   2.1676520  16.6218420  12.9245720   2.8594360  18.2938680
  12.1297220   2.7939480  18.8231590  13.1289000   3.7945000  18.2824030
   9.8664140  16.8985910  22.2877070  10.4623210  16.5770480  21.6111490
  10.1242290  16.4257730  23.0790340  12.7336900  16.9057790  28.8388060
  12.2395180  17.3026660  28.1215190  12.1250190  16.2807000  29.2325340
  10.4176350  17.5481210  26.1174800   9.9579320  18.2997020  25.7432820
   9.7888810  16.8287680  26.0589600   3.5867570  16.7477940  26.1191910
   3.8745380  16.4932240  25.2424920   4.0990790  16.1955300  26.7097480
   2.6898800   2.9054890  22.2104450   1.8773310   2.5311780  21.8700330
   3.1940440   2.1499970  22.5125640   3.6539930  17.6694040  33.4860110
   4.5807240  17.4338310  33.5296070   3.6390360  18.4966040  33.0046140
  11.8884990  17.2119610  20.4834360  12.0637180  16.5257350  19.8395280
  11.1906560  17.7366660  20.0911030  10.2217490  16.8963900  33.3101150
  11.0142810  16.4013130  33.1027110  10.5150640  17.5754040  33.9176760
   6.3477150   7.7684840   4.1917200   6.2671200   6.8539450   3.9208910
   5.9341570   8.2651910   3.4856910   4.4795190   9.5463860   6.0726470
   3.7037290   9.0664300   6.3625040   5.1308120   8.8669510   5.8982630
   8.5002620  13.9524050   4.8525600   8.0384150  13.1811290   5.1812770
   9.3128170  13.9790120   5.3578050   4.7265930  16.2382060   4.4729590
   4.1077370  16.6939560   3.9024030   5.5817710  16.3933520   4.0719290
   3.9204180  12.2221050   6.0796630   3.8512460  11.2810990   5.9185760
   4.6824040  12.3122460   6.6519200   4.9509350   5.0291430   6.3065560
   5.3274170   4.1563310   6.1939230   4.8528860   5.3650130   5.4156000
   8.7333470   2.5241870   3.2393900   9.5543090   2.0338440   3.2819380
   8.7667550   3.1139530   3.9925740  13.0233020   4.5408620   9.8037530
  12.3185190   4.9290330   9.2852640  13.2890940   5.2358910  10.4058460
   8.9694950   4.4642250   6.0121440   8.2650520   4.7527140   6.5924550
   9.3307110   5.2742360   5.6521000  10.5857730  14.0817380   8.2748920
   9.9021250  14.7516490   8.2665590  11.1252020  14.2798030   7.5093780
  12.0381870   3.9097040   6.4030650  11.0906780   3.9436020   6.5346080
  12.3631860   4.7235990   6.7880010   8.1216470  15.9261510   6.9894100
   8.1343630  15.5223800   6.1216360   7.5691690  16.7008800   6.8855530
   9.4161890  12.6477730   2.0784270   9.3058220  11.7052060   2.2033690
   9.4130140  13.0093370   2.9647030   7.5201910  10.8291350   8.3176710
   7.9370700  10.6151460   7.4830170   8.2441730  11.0864140   8.8885330
  11.4664010   9.2278570   8.4092950  10.6382640   9.2971660   7.9343080
  12.0614490   9.8132880   7.9408780   8.4306020   6.0147890   9.3547820
   8.0177200   6.8401600   9.6087810   7.6981970   5.4292930   9.1624180
   9.1206120  16.0607220  10.0428800   8.6436680  16.8679410   9.8501410
   8.4367910  15.4085550  10.1955010   5.2739540  14.0146230   2.9136000
   5.7135450  14.7570560   2.4991390   5.2126430  14.2572800   3.8374960
  12.7005330  15.8219160  15.1120190  13.1765050  16.3002050  15.7909270
  13.3212490  15.7536650  14.3865690  12.1038580  13.0132010  12.2720200
  12.2301640  12.7743890  11.3537380  12.1459960  12.1816550  12.7442280
   5.9655320  16.7160010  10.8415010   6.4799990  16.6268020  11.6437440
   5.1224400  17.0619710  11.1342920   7.2085780  16.1365620   2.9045500
   7.6642730  15.3555000   3.2184120   7.5478300  16.8472440   3.4486680
  11.9562590   5.0664470  13.2369940  11.3406860   5.5744140  12.7085400
  11.6359010   4.1662800  13.1795880   4.0176910   3.9056360  10.7032130
   3.5556280   4.1139380  11.5152070   3.6155020   3.0915710  10.4002800
   9.0181420   5.1265310  11.8328790   8.1675010   4.8271060  12.1537860
   8.8583210   5.3707320  10.9212610   6.1131130   6.6267060  13.9327580
   6.4384540   5.7930810  13.5929810   6.9011460   7.1495580  14.0805910
   1.9620530   7.0606990  13.4938330   1.8664130   6.1201720  13.3438730
   2.8052510   7.2822060  13.0986400   5.3583950   4.8048320   3.4571990
   5.7513520   5.1220520   2.6440680   5.7200800   3.9260200   3.5716510
   3.6676120   3.5555630  14.7168850   2.9774440   3.3627830  15.3514940
   4.4108420   3.8390270  15.2493150   5.9439090   7.3954070   7.5522770
   5.2120210   7.9040880   7.9012870   5.5463430   6.5784050   7.2511550
   2.3816480   4.0708270   5.9575260   2.3852540   3.6298220   5.1079800
   3.2767600   4.3925600   6.0647080   6.4065000   2.8487750   6.9645710
   6.4237740   3.2996400   7.8087560   6.1580580   1.9493390   7.1779150
   2.6824450   8.1310050   7.7040670   3.0494580   7.6568620   8.4502010
   2.4929510   9.0051620   8.0449010   9.7593590  10.3745040   6.4118120
  10.4792710  10.8700330   6.0214230   9.5575410   9.6962930   5.7671990
   5.1412390  10.4454100  12.2987120   5.0749700   9.5249770  12.0444710
   4.5117530  10.5429540  13.0131760   5.0729120  13.2674670  12.0490920
   5.0873660  12.3355630  11.8309830   4.3654220  13.3534430  12.6880690
  11.2840330   9.9082010  11.3959500  10.5588520  10.5010790  11.1988890
  11.8115790   9.9005550  10.5972870   6.8139920  11.6342180   4.8943350
   7.1663740  11.0370310   4.2344720   5.9302250  11.3086410   5.0651600
   2.9003200  12.3939870   2.3013760   3.5874330  12.9409080   2.6821350
   2.1135620  12.9380600   2.3363370   2.2030410   9.3985900   1.9139120
   2.6593190  10.2091150   2.1399310   1.8518620   9.0809040   2.7457610
   4.5063020  14.9092240   9.1431420   5.1505240  15.1151620   9.8204840
   4.8692460  14.1480640   8.6902270   5.7795100  12.9124590   7.8608870
   6.4217330  12.2117750   7.9741040   6.3044450  13.6923030   7.6805760
   7.5532720  13.7119490  11.0644930   7.8888960  14.2986180  11.7422850
   6.6333060  13.5812200  11.2942720   3.3821300  13.7610820  14.2332990
   3.0618170  13.0420060  14.7778680   2.7079660  14.4365890  14.3069050
   6.5974900   3.9936980   9.5969790   6.9655720   3.1732190   9.9249360
   5.7373100   4.0538870  10.0125440   3.5576890   6.6476570   9.8207760
   4.0562140   7.1222390  10.4859610   3.6999840   5.7240090  10.0277790
   5.9636390   1.9530530   3.2611020   5.8404170   1.9716660   2.3120530
   6.9120950   2.0009470   3.3809420   3.0513180  17.1885830   2.5339000
   3.3054680  17.1507220   1.6118370   2.1025660  17.0619160   2.5267250
  10.7643750   2.8644530  10.6636150  10.2617350   3.6049930  11.0029960
  11.5800410   3.2528530  10.3472940   9.0565760   8.1077710   4.1097510
   8.1155900   8.1227940   4.2845200   9.3709830   7.3213670   4.5557810
  11.0591340  15.2786560   5.7851770  11.1838760  16.1017730   6.2575580
  11.9256900  15.0677290   5.4375920   6.3731780  12.6643710  14.5929890
   5.7669940  12.6875310  13.8525640   6.0685890  11.9326750  15.1297140
   7.8032150  16.3924000  13.2039300   8.7553900  16.3082020  13.1539540
   7.6560370  17.0565710  13.8773090   9.4526250  12.1813620  13.6801070
  10.1935720  12.5189380  13.1768530   8.6898930  12.3505680  13.1270840
   8.1271910  10.2328450  12.2156280   8.5412930  10.3873530  13.0646700
   7.1922910  10.3583670  12.3782060   8.5994080   7.5724610  14.2195430
   9.1814850   6.8176930  14.1315910   8.7755850   8.1032050  13.4426910
   2.8887140  10.1848930  10.1852210   3.3075250  11.0281660  10.0128450
   1.9695770  10.3220970   9.9558990   5.2251040   7.9165110  11.5690050
   5.3447250   7.3206250  12.3084890   6.0845040   7.9534800  11.1491350
   7.5638940   8.4702300  10.1452560   7.0374160   8.9944920   9.5417700
   7.9070280   9.1029690  10.7762290   6.8113240   4.0752270  13.0598890
   6.1228760   3.4133810  12.9948880   7.5319260   3.6290540  13.5047350
   3.5956770  17.7253150  11.5596590   3.5215470  18.6288290  11.8668960
   2.6935610  17.4065050  11.5318660  11.1236450  15.4215330  11.8889150
  10.5238440  15.4807890  11.1453070  11.2530350  14.4820310  12.0186000
  12.8254330  10.7630730   4.5734990  13.1963160   9.9798050   4.1670960
  13.4656260  11.4519830   4.3952290   9.8088090  12.1467310   9.9865310
   8.9947930  12.5764470  10.2491100  10.2162290  12.7585720   9.3734360
  11.7678870   8.1383990   1.8795010  11.3922470   7.3711920   1.4476300
  11.0381990   8.5206690   2.3669940  11.1578490   7.2855510  11.5134530
  10.9264580   7.0568260  10.6132480  11.4183040   8.2055060  11.4679420
   9.5966560   2.5111940  14.2914230  10.4736740   2.5195340  14.6748230
   9.6087400   1.7742780  13.6806580  11.0429830   6.3641480   5.1802250
  11.5667310   5.8704130   4.5492420  11.6289250   6.4991840   5.9249820
  11.2219550   6.4481350   8.7021800  10.2722260   6.4144890   8.8166790
  11.4032560   7.3581460   8.4671570  11.9616960   4.2575780   3.6532340
  11.8516240   4.1031820   4.5914610  12.7224550   3.7296720   3.4107750
   9.8664140  16.8985910   3.5133580  10.4623210  16.5770480   2.8368000
  10.1242290  16.4257730   4.3046850  12.7336900  16.9057790  10.0644570
  12.2395180  17.3026660   9.3471700  12.1250190  16.2807000  10.4581850
  10.4176350  17.5481210   7.3431310   9.9579320  18.2997020   6.9689330
   9.7888810  16.8287680   7.2846110   3.5867570  16.7477940   7.3448420
   3.8745380  16.4932240   6.4681430   4.0990790  16.1955300   7.9353990
   2.6898800   2.9054890   3.4360960   1.8773310   2.5311780   3.0956840
   3.1940440   2.1499970   3.7382150   3.6539930  17.6694040  14.7116620
   4.5807240  17.4338310  14.7552580   3.6390360  18.4966040  14.2302650
  10.2217490  16.8963900  14.5357660  11.0142810  16.4013130  14.3283620
  10.5150640  17.5754040  15.1433270
  82.0860490  92.3551890  68.2765680  90.0000000  90.0000000  90.0000000
